 vasp.5.4.1 05Feb16 (build Feb 08 2018 09:21:51) complex                        
  
 executed on             LinuxIFC date 2019.11.21  13:18:32
 running on   24 total cores
 distrk:  each k-point on   24 cores,    1 groups
 distr:  one band on NCORES_PER_BAND=   1 cores,   24 groups


--------------------------------------------------------------------------------------------------------


 INCAR:
 POTCAR:    PAW_PBE Cu 22Jun2005                  

 ----------------------------------------------------------------------------- 
|                                                                             |
|           W    W    AA    RRRRR   N    N  II  N    N   GGGG   !!!           |
|           W    W   A  A   R    R  NN   N  II  NN   N  G    G  !!!           |
|           W    W  A    A  R    R  N N  N  II  N N  N  G       !!!           |
|           W WW W  AAAAAA  RRRRR   N  N N  II  N  N N  G  GGG   !            |
|           WW  WW  A    A  R   R   N   NN  II  N   NN  G    G                |
|           W    W  A    A  R    R  N    N  II  N    N   GGGG   !!!           |
|                                                                             |
|      For optimal performance we recommend to set                            |
|        NCORE= 4 - approx SQRT( number of cores)                             |
|      NCORE specifies how many cores store one orbital (NPAR=cpu/NCORE).     |
|      This setting can  greatly improve the performance of VASP for DFT.     |
|      The default, NPAR=number of cores might be grossly inefficient         |
|      on modern multi-core architectures or massively parallel machines.     |
|      Do your own testing !!!!                                               |
|      Unfortunately you need to use the default for GW and RPA calculations. |
|      (for HF NCORE is supported but not extensively tested yet)             |
|                                                                             |
 ----------------------------------------------------------------------------- 

 POTCAR:    PAW_PBE Cu 22Jun2005                  
   VRHFIN =Cu: d10 p1                                                           
   LEXCH  = PE                                                                  
   EATOM  =  1390.9808 eV,  102.2342 Ry                                         
                                                                                
   TITEL  = PAW_PBE Cu 22Jun2005                                                
   LULTRA =        F    use ultrasoft PP ?                                      
   IUNSCR =        1    unscreen: 0-lin 1-nonlin 2-no                           
   RPACOR =    2.000    partial core radius                                     
   POMASS =   63.546; ZVAL   =   11.000    mass and valenz                      
   RCORE  =    2.300    outmost cutoff radius                                   
   RWIGS  =    2.200; RWIGS  =    1.164    wigner-seitz radius (au A)           
   ENMAX  =  295.446; ENMIN  =  221.585 eV                                      
   ICORE  =        3    local potential                                         
   LCOR   =        T    correct aug charges                                     
   LPAW   =        T    paw PP                                                  
   EAUG   =  586.980                                                            
   DEXC   =    0.000                                                            
   RMAX   =    2.344    core radius for proj-oper                               
   RAUG   =    1.300    factor for augmentation sphere                          
   RDEP   =    2.302    radius for radial grids                                 
   RDEPT  =    1.771    core radius for aug-charge                              
                                                                                
   Atomic configuration                                                         
    9 entries                                                                   
     n  l   j            E        occ.                                          
     1  0  0.50     -8850.2468   2.0000                                         
     2  0  0.50     -1062.3498   2.0000                                         
     2  1  1.50      -916.8226   6.0000                                         
     3  0  0.50      -114.6929   2.0000                                         
     3  1  1.50       -72.1325   6.0000                                         
     3  2  2.50        -5.0394  10.0000                                         
     4  0  0.50        -4.6097   1.0000                                         
     4  1  0.50        -4.0817   0.0000                                         
     4  3  2.50        -1.3606   0.0000                                         
   Description                                                                  
     l       E           TYP  RCUT    TYP  RCUT                                 
     2     -5.0393973     23  2.200                                             
     2     10.8846608     23  2.200                                             
     0     -4.6097109     23  2.200                                             
     0      8.2520465     23  2.200                                             
     1     -2.7211652     23  2.200                                             
     1     21.7055443     23  2.200                                             
     3      2.7211652     23  2.300                                             
  local pseudopotential read in
  partial core-charges read in
  partial kinetic energy density read in
  atomic valenz-charges read in
  non local Contribution for L=           2  read in
    real space projection operators read in
  non local Contribution for L=           2  read in
    real space projection operators read in
  non local Contribution for L=           0  read in
    real space projection operators read in
  non local Contribution for L=           0  read in
    real space projection operators read in
  non local Contribution for L=           1  read in
    real space projection operators read in
  non local Contribution for L=           1  read in
    real space projection operators read in
    PAW grid and wavefunctions read in
 
   number of l-projection  operators is LMAX  =           6
   number of lm-projection operators is LMMAX =          18
 
  PAW_PBE Cu 22Jun2005                  :
 energy of atom  1       EATOM=-1390.9808
 kinetic energy error for atom=    0.0232 (will be added to EATOM!!)
 
 
 POSCAR: Cu                                      
  positions in cartesian coordinates
  No initial velocities read in
 exchange correlation table for  LEXCH =        8
   RHO(1)=    0.500       N(1)  =     2000
   RHO(2)=  100.500       N(2)  =     4000
 


--------------------------------------------------------------------------------------------------------


 ion  position               nearest neighbor table
   1  0.000  0.000  0.000-   2 2.55   3 2.55   4 2.55   2 2.55   3 2.55   2 2.55   4 2.55   2 2.55
                             3 2.55   4 2.55   3 2.55   4 2.55
   2  0.000  0.500  0.500-   1 2.55   3 2.55   4 2.55   1 2.55   4 2.55   1 2.55   3 2.55   1 2.55
                             3 2.55   4 2.55   4 2.55   3 2.55
   3  0.500  0.000  0.500-   1 2.55   2 2.55   4 2.55   1 2.55   4 2.55   2 2.55   4 2.55   4 2.55
                             1 2.55   2 2.55   1 2.55   2 2.55
   4  0.500  0.500  0.000-   1 2.55   2 2.55   3 2.55   2 2.55   3 2.55   1 2.55   3 2.55   3 2.55
                             1 2.55   2 2.55   2 2.55   1 2.55
 
  LATTYP: Found a simple cubic cell.
 ALAT       =     3.6100000000
  
  Lattice vectors:
  
 A1 = (   3.6100000000,   0.0000000000,   0.0000000000)
 A2 = (   0.0000000000,   3.6100000000,   0.0000000000)
 A3 = (   0.0000000000,   0.0000000000,   3.6100000000)


Analysis of symmetry for initial positions (statically):
=====================================================================
 Subroutine PRICEL returns following result:
 
  LATTYP: Found a face centered cubic cell.
 ALAT       =     3.6100000000
  
  Lattice vectors:
  
 A1 = (   1.8050000000,   1.8050000000,  -0.0000000000)
 A2 = (   1.8050000000,   0.0000000000,  -1.8050000000)
 A3 = (   0.0000000000,   1.8050000000,  -1.8050000000)
 
   4 primitive cells build up your supercell.
 

 Routine SETGRP: Setting up the symmetry group for a 
 simple cubic supercell.


 Subroutine GETGRP returns: Found 48 space group operations
 (whereof 48 operations were pure point group operations)
 out of a pool of 48 trial point group operations.


The static configuration has the point symmetry O_h .


Analysis of symmetry for dynamics (positions and initial velocities):
=====================================================================
 Subroutine PRICEL returns following result:
 
  LATTYP: Found a face centered cubic cell.
 ALAT       =     3.6100000000
  
  Lattice vectors:
  
 A1 = (   1.8050000000,   1.8050000000,  -0.0000000000)
 A2 = (   1.8050000000,   0.0000000000,  -1.8050000000)
 A3 = (   0.0000000000,   1.8050000000,  -1.8050000000)
 
   4 primitive cells build up your supercell.
 

 Routine SETGRP: Setting up the symmetry group for a 
 simple cubic supercell.


 Subroutine GETGRP returns: Found 48 space group operations
 (whereof 48 operations were pure point group operations)
 out of a pool of 48 trial point group operations.


The dynamic configuration has the point symmetry O_h .


 Subroutine INISYM returns: Found 48 space group operations
 (whereof 48 operations are pure point group operations),
 and found     4 'primitive' translations

 
 
 KPOINTS: KPOINTS created by Atomic Simulation Env

Automatic generation of k-mesh.
Space group operators:
 irot       det(A)        alpha          n_x          n_y          n_z        tau_x        tau_y        tau_z
    1     1.000000     0.000000     1.000000     0.000000     0.000000     0.000000     0.000000     0.000000
    2    -1.000000     0.000000     1.000000     0.000000     0.000000     0.000000     0.000000     0.000000
    3     1.000000   120.000000    -0.577350    -0.577350    -0.577350     0.000000     0.000000     0.000000
    4    -1.000000   120.000000    -0.577350    -0.577350    -0.577350     0.000000     0.000000     0.000000
    5     1.000000   120.000000     0.577350     0.577350     0.577350     0.000000     0.000000     0.000000
    6    -1.000000   120.000000     0.577350     0.577350     0.577350     0.000000     0.000000     0.000000
    7     1.000000    90.000000     0.000000     0.000000    -1.000000     0.000000     0.000000     0.000000
    8    -1.000000    90.000000     0.000000     0.000000    -1.000000     0.000000     0.000000     0.000000
    9     1.000000   180.000000     0.000000     0.707107     0.707107     0.000000     0.000000     0.000000
   10    -1.000000   180.000000     0.000000     0.707107     0.707107     0.000000     0.000000     0.000000
   11     1.000000    90.000000     0.000000     1.000000     0.000000     0.000000     0.000000     0.000000
   12    -1.000000    90.000000     0.000000     1.000000     0.000000     0.000000     0.000000     0.000000
   13     1.000000   179.999999     0.000000     0.000000     1.000000     0.000000     0.000000     0.000000
   14    -1.000000   179.999999     0.000000     0.000000     1.000000     0.000000     0.000000     0.000000
   15     1.000000   120.000000    -0.577350     0.577350     0.577350     0.000000     0.000000     0.000000
   16    -1.000000   120.000000    -0.577350     0.577350     0.577350     0.000000     0.000000     0.000000
   17     1.000000   120.000000    -0.577350     0.577350    -0.577350     0.000000     0.000000     0.000000
   18    -1.000000   120.000000    -0.577350     0.577350    -0.577350     0.000000     0.000000     0.000000
   19     1.000000    90.000000     0.000000     0.000000     1.000000     0.000000     0.000000     0.000000
   20    -1.000000    90.000000     0.000000     0.000000     1.000000     0.000000     0.000000     0.000000
   21     1.000000    90.000000    -1.000000     0.000000     0.000000     0.000000     0.000000     0.000000
   22    -1.000000    90.000000    -1.000000     0.000000     0.000000     0.000000     0.000000     0.000000
   23     1.000000   180.000000     0.707107     0.000000     0.707107     0.000000     0.000000     0.000000
   24    -1.000000   180.000000     0.707107     0.000000     0.707107     0.000000     0.000000     0.000000
   25     1.000000   120.000000     0.577350    -0.577350     0.577350     0.000000     0.000000     0.000000
   26    -1.000000   120.000000     0.577350    -0.577350     0.577350     0.000000     0.000000     0.000000
   27     1.000000   120.000000    -0.577350    -0.577350     0.577350     0.000000     0.000000     0.000000
   28    -1.000000   120.000000    -0.577350    -0.577350     0.577350     0.000000     0.000000     0.000000
   29     1.000000   180.000000     1.000000     0.000000     0.000000     0.000000     0.000000     0.000000
   30    -1.000000   180.000000     1.000000     0.000000     0.000000     0.000000     0.000000     0.000000
   31     1.000000    90.000000     0.000000    -1.000000     0.000000     0.000000     0.000000     0.000000
   32    -1.000000    90.000000     0.000000    -1.000000     0.000000     0.000000     0.000000     0.000000
   33     1.000000   180.000000     0.707107     0.707107     0.000000     0.000000     0.000000     0.000000
   34    -1.000000   180.000000     0.707107     0.707107     0.000000     0.000000     0.000000     0.000000
   35     1.000000    90.000000     1.000000     0.000000     0.000000     0.000000     0.000000     0.000000
   36    -1.000000    90.000000     1.000000     0.000000     0.000000     0.000000     0.000000     0.000000
   37     1.000000   120.000000     0.577350    -0.577350    -0.577350     0.000000     0.000000     0.000000
   38    -1.000000   120.000000     0.577350    -0.577350    -0.577350     0.000000     0.000000     0.000000
   39     1.000000   180.000000     0.000000     1.000000     0.000000     0.000000     0.000000     0.000000
   40    -1.000000   180.000000     0.000000     1.000000     0.000000     0.000000     0.000000     0.000000
   41     1.000000   120.000000     0.577350     0.577350    -0.577350     0.000000     0.000000     0.000000
   42    -1.000000   120.000000     0.577350     0.577350    -0.577350     0.000000     0.000000     0.000000
   43     1.000000   180.000000     0.000000    -0.707107     0.707107     0.000000     0.000000     0.000000
   44    -1.000000   180.000000     0.000000    -0.707107     0.707107     0.000000     0.000000     0.000000
   45     1.000000   180.000000     0.707107    -0.707107     0.000000     0.000000     0.000000     0.000000
   46    -1.000000   180.000000     0.707107    -0.707107     0.000000     0.000000     0.000000     0.000000
   47     1.000000   180.000000     0.707107     0.000000    -0.707107     0.000000     0.000000     0.000000
   48    -1.000000   180.000000     0.707107     0.000000    -0.707107     0.000000     0.000000     0.000000
 
 Subroutine IBZKPT returns following result:
 ===========================================
 
 Found     20 irreducible k-points:
 
 Following reciprocal coordinates:
            Coordinates               Weight
  0.000000  0.000000  0.000000      1.000000
  0.142857  0.000000  0.000000      6.000000
  0.285714  0.000000  0.000000      6.000000
  0.428571  0.000000  0.000000      6.000000
  0.142857  0.142857  0.000000     12.000000
  0.285714  0.142857  0.000000     24.000000
  0.428571  0.142857  0.000000     24.000000
  0.285714  0.285714  0.000000     12.000000
  0.428571  0.285714  0.000000     24.000000
  0.428571  0.428571  0.000000     12.000000
  0.142857  0.142857  0.142857      8.000000
  0.285714  0.142857  0.142857     24.000000
  0.428571  0.142857  0.142857     24.000000
  0.285714  0.285714  0.142857     24.000000
  0.428571  0.285714  0.142857     48.000000
  0.428571  0.428571  0.142857     24.000000
  0.285714  0.285714  0.285714      8.000000
  0.428571  0.285714  0.285714     24.000000
  0.428571  0.428571  0.285714     24.000000
  0.428571  0.428571  0.428571      8.000000
 
 Following cartesian coordinates:
            Coordinates               Weight
  0.000000  0.000000  0.000000      1.000000
  0.039573  0.000000  0.000000      6.000000
  0.079145  0.000000  0.000000      6.000000
  0.118718  0.000000  0.000000      6.000000
  0.039573  0.039573  0.000000     12.000000
  0.079145  0.039573  0.000000     24.000000
  0.118718  0.039573  0.000000     24.000000
  0.079145  0.079145  0.000000     12.000000
  0.118718  0.079145  0.000000     24.000000
  0.118718  0.118718  0.000000     12.000000
  0.039573  0.039573  0.039573      8.000000
  0.079145  0.039573  0.039573     24.000000
  0.118718  0.039573  0.039573     24.000000
  0.079145  0.079145  0.039573     24.000000
  0.118718  0.079145  0.039573     48.000000
  0.118718  0.118718  0.039573     24.000000
  0.079145  0.079145  0.079145      8.000000
  0.118718  0.079145  0.079145     24.000000
  0.118718  0.118718  0.079145     24.000000
  0.118718  0.118718  0.118718      8.000000
 


--------------------------------------------------------------------------------------------------------




 Dimension of arrays:
   k-points           NKPTS =     20   k-points in BZ     NKDIM =     20   number of bands    NBANDS=     48
   number of dos      NEDOS =    301   number of ions     NIONS =      4
   non local maximal  LDIM  =      6   non local SUM 2l+1 LMDIM =     18
   total plane-waves  NPLWV =   5832
   max r-space proj   IRMAX =      1   max aug-charges    IRDMAX=   3790
   dimension x,y,z NGX =    18 NGY =   18 NGZ =   18
   dimension x,y,z NGXF=    36 NGYF=   36 NGZF=   36
   support grid    NGXF=    36 NGYF=   36 NGZF=   36
   ions per type =               4
 NGX,Y,Z   is equivalent  to a cutoff of   8.29,  8.29,  8.29 a.u.
 NGXF,Y,Z  is equivalent  to a cutoff of  16.58, 16.58, 16.58 a.u.


 I would recommend the setting:
   dimension x,y,z NGX =    18 NGY =   18 NGZ =   18
 SYSTEM =  unknown system                          
 POSCAR =  Cu                                      

 Startparameter for this run:
   NWRITE =      2    write-flag & timer
   PREC   = normal    normal or accurate (medium, high low for compatibility)
   ISTART =      0    job   : 0-new  1-cont  2-samecut
   ICHARG =      2    charge: 1-file 2-atom 10-const
   ISPIN  =      1    spin polarized calculation?
   LNONCOLLINEAR =      F non collinear calculations
   LSORBIT =      F    spin-orbit coupling
   INIWAV =      1    electr: 0-lowe 1-rand  2-diag
   LASPH  =      F    aspherical Exc in radial PAW
   METAGGA=      F    non-selfconsistent MetaGGA calc.

 Electronic Relaxation 1
   ENCUT  =  400.0 eV  29.40 Ry    5.42 a.u.   5.89  5.89  5.89*2*pi/ulx,y,z
   ENINI  =  400.0     initial cutoff
   ENAUG  =  587.0 eV  augmentation charge cutoff
   NELM   =     60;   NELMIN=  2; NELMDL= -5     # of ELM steps 
   EDIFF  = 0.1E-03   stopping-criterion for ELM
   LREAL  =      F    real-space projection
   NLSPLINE    = F    spline interpolate recip. space projectors
   LCOMPAT=      F    compatible to vasp.4.4
   GGA_COMPAT  = T    GGA compatible to vasp.4.4-vasp.4.6
   LMAXPAW     = -100 max onsite density
   LMAXMIX     =    2 max onsite mixed and CHGCAR
   VOSKOWN=      0    Vosko Wilk Nusair interpolation
   ROPT   =    0.00000
 Ionic relaxation
   EDIFFG = 0.1E-02   stopping-criterion for IOM
   NSW    =      0    number of steps for IOM
   NBLOCK =      1;   KBLOCK =      1    inner block; outer block 
   IBRION =     -1    ionic relax: 0-MD 1-quasi-New 2-CG
   NFREE  =      0    steps in history (QN), initial steepest desc. (CG)
   ISIF   =      2    stress and relaxation
   IWAVPR =     10    prediction:  0-non 1-charg 2-wave 3-comb
   ISYM   =      2    0-nonsym 1-usesym 2-fastsym
   LCORR  =      T    Harris-Foulkes like correction to forces

   POTIM  = 0.5000    time-step for ionic-motion
   TEIN   =    0.0    initial temperature
   TEBEG  =    0.0;   TEEND  =   0.0 temperature during run
   SMASS  =  -3.00    Nose mass-parameter (am)
   estimated Nose-frequenzy (Omega)   =  0.10E-29 period in steps =****** mass=  -0.298E-27a.u.
   SCALEE = 1.0000    scale energy and forces
   NPACO  =    256;   APACO  = 16.0  distance and # of slots for P.C.
   PSTRESS=    0.0 pullay stress

  Mass of Ions in am
   POMASS =  63.55
  Ionic Valenz
   ZVAL   =  11.00
  Atomic Wigner-Seitz radii
   RWIGS  =  -1.00
  virtual crystal weights 
   VCA    =   1.00
   NELECT =      44.0000    total number of electrons
   NUPDOWN=      -1.0000    fix difference up-down

 DOS related values:
   EMIN   =  10.00;   EMAX   =-10.00  energy-range for DOS
   EFERMI =   0.00
   ISMEAR =     1;   SIGMA  =   0.10  broadening in eV -4-tet -1-fermi 0-gaus

 Electronic relaxation 2 (details)
   IALGO  =     38    algorithm
   LDIAG  =      T    sub-space diagonalisation (order eigenvalues)
   LSUBROT=      F    optimize rotation matrix (better conditioning)
   TURBO    =      0    0=normal 1=particle mesh
   IRESTART =      0    0=no restart 2=restart with 2 vectors
   NREBOOT  =      0    no. of reboots
   NMIN     =      0    reboot dimension
   EREF     =   0.00    reference energy to select bands
   IMIX   =      4    mixing-type and parameters
     AMIX     =   0.40;   BMIX     =  1.00
     AMIX_MAG =   1.60;   BMIX_MAG =  1.00
     AMIN     =   0.10
     WC   =   100.;   INIMIX=   1;  MIXPRE=   1;  MAXMIX= -45

 Intra band minimization:
   WEIMIN = 0.0000     energy-eigenvalue tresh-hold
   EBREAK =  0.52E-06  absolut break condition
   DEPER  =   0.30     relativ break condition  

   TIME   =   0.40     timestep for ELM

  volume/ion in A,a.u.               =      11.76        79.37
  Fermi-wavevector in a.u.,A,eV,Ry     =   1.600977  3.025409 34.873480  2.563128
  Thomas-Fermi vector in A             =   2.698028
 
 Write flags
   LWAVE  =      F    write WAVECAR
   LCHARG =      F    write CHGCAR
   LVTOT  =      F    write LOCPOT, total local potential
   LVHAR  =      F    write LOCPOT, Hartree potential only
   LELF   =      F    write electronic localiz. function (ELF)
   LORBIT =      0    0 simple, 1 ext, 2 COOP (PROOUT)


 Dipole corrections
   LMONO  =      F    monopole corrections only (constant potential shift)
   LDIPOL =      F    correct potential (dipole corrections)
   IDIPOL =      0    1-x, 2-y, 3-z, 4-all directions 
   EPSILON=  1.0000000 bulk dielectric constant

 Exchange correlation treatment:
   GGA     =    --    GGA type
   LEXCH   =     8    internal setting for exchange type
   VOSKOWN=      0    Vosko Wilk Nusair interpolation
   LHFCALC =     F    Hartree Fock is set to
   LHFONE  =     F    Hartree Fock one center treatment
   AEXX    =    0.0000 exact exchange contribution

 Linear response parameters
   LEPSILON=     F    determine dielectric tensor
   LRPA    =     F    only Hartree local field effects (RPA)
   LNABLA  =     F    use nabla operator in PAW spheres
   LVEL    =     F    velocity operator in full k-point grid
   LINTERFAST=   F  fast interpolation
   KINTER  =     0    interpolate to denser k-point grid
   CSHIFT  =0.1000    complex shift for real part using Kramers Kronig
   OMEGAMAX=  -1.0    maximum frequency
   DEG_THRESHOLD= 0.2000000E-02 threshold for treating states as degnerate
   RTIME   =    0.100 relaxation time in fs

 Orbital magnetization related:
   ORBITALMAG=     F  switch on orbital magnetization
   LCHIMAG   =     F  perturbation theory with respect to B field
   DQ        =  0.001000  dq finite difference perturbation B field



--------------------------------------------------------------------------------------------------------


 Static calculation
 charge density and potential will be updated during run
 non-spin polarized calculation
 Variant of blocked Davidson
 Davidson routine will perform the subspace rotation
 perform sub-space diagonalisation
    after iterative eigenvector-optimisation
 modified Broyden-mixing scheme, WC =      100.0
 initial mixing is a Kerker type mixing with AMIX =  0.4000 and BMIX =      1.0000
 Hartree-type preconditioning will be used
 using additional bands           26
 reciprocal scheme for non local part
 use partial core corrections
 calculate Harris-corrections to forces 
   (improved forces if not selfconsistent)
 use gradient corrections 
 use of overlap-Matrix (Vanderbilt PP)
 Methfessel and Paxton  Order N= 1 SIGMA  =   0.10


--------------------------------------------------------------------------------------------------------


  energy-cutoff  :      400.00
  volume of cell :       47.05
      direct lattice vectors                 reciprocal lattice vectors
     3.610000000  0.000000000  0.000000000     0.277008310  0.000000000  0.000000000
     0.000000000  3.610000000  0.000000000     0.000000000  0.277008310  0.000000000
     0.000000000  0.000000000  3.610000000     0.000000000  0.000000000  0.277008310

  length of vectors
     3.610000000  3.610000000  3.610000000     0.277008310  0.277008310  0.277008310


 
 k-points in units of 2pi/SCALE and weight: KPOINTS created by Atomic Simulation Env
   0.00000000  0.00000000  0.00000000       0.003
   0.03957262  0.00000000  0.00000000       0.017
   0.07914523  0.00000000  0.00000000       0.017
   0.11871785  0.00000000  0.00000000       0.017
   0.03957262  0.03957262  0.00000000       0.035
   0.07914523  0.03957262  0.00000000       0.070
   0.11871785  0.03957262  0.00000000       0.070
   0.07914523  0.07914523  0.00000000       0.035
   0.11871785  0.07914523  0.00000000       0.070
   0.11871785  0.11871785  0.00000000       0.035
   0.03957262  0.03957262  0.03957262       0.023
   0.07914523  0.03957262  0.03957262       0.070
   0.11871785  0.03957262  0.03957262       0.070
   0.07914523  0.07914523  0.03957262       0.070
   0.11871785  0.07914523  0.03957262       0.140
   0.11871785  0.11871785  0.03957262       0.070
   0.07914523  0.07914523  0.07914523       0.023
   0.11871785  0.07914523  0.07914523       0.070
   0.11871785  0.11871785  0.07914523       0.070
   0.11871785  0.11871785  0.11871785       0.023
 
 k-points in reciprocal lattice and weights: KPOINTS created by Atomic Simulation Env
   0.00000000  0.00000000  0.00000000       0.003
   0.14285714  0.00000000  0.00000000       0.017
   0.28571429  0.00000000  0.00000000       0.017
   0.42857143  0.00000000  0.00000000       0.017
   0.14285714  0.14285714  0.00000000       0.035
   0.28571429  0.14285714  0.00000000       0.070
   0.42857143  0.14285714  0.00000000       0.070
   0.28571429  0.28571429  0.00000000       0.035
   0.42857143  0.28571429  0.00000000       0.070
   0.42857143  0.42857143  0.00000000       0.035
   0.14285714  0.14285714  0.14285714       0.023
   0.28571429  0.14285714  0.14285714       0.070
   0.42857143  0.14285714  0.14285714       0.070
   0.28571429  0.28571429  0.14285714       0.070
   0.42857143  0.28571429  0.14285714       0.140
   0.42857143  0.42857143  0.14285714       0.070
   0.28571429  0.28571429  0.28571429       0.023
   0.42857143  0.28571429  0.28571429       0.070
   0.42857143  0.42857143  0.28571429       0.070
   0.42857143  0.42857143  0.42857143       0.023
 
 position of ions in fractional coordinates (direct lattice) 
   0.00000000  0.00000000  0.00000000
   0.00000000  0.50000000  0.50000000
   0.50000000  0.00000000  0.50000000
   0.50000000  0.50000000  0.00000000
 
 position of ions in cartesian coordinates  (Angst):
   0.00000000  0.00000000  0.00000000
   0.00000000  1.80500000  1.80500000
   1.80500000  0.00000000  1.80500000
   1.80500000  1.80500000  0.00000000
 


--------------------------------------------------------------------------------------------------------


 k-point  1 :   0.0000 0.0000 0.0000  plane waves:     847
 k-point  2 :   0.1429 0.0000 0.0000  plane waves:     844
 k-point  3 :   0.2857 0.0000 0.0000  plane waves:     856
 k-point  4 :   0.4286 0.0000 0.0000  plane waves:     856
 k-point  5 :   0.1429 0.1429 0.0000  plane waves:     857
 k-point  6 :   0.2857 0.1429 0.0000  plane waves:     845
 k-point  7 :   0.4286 0.1429 0.0000  plane waves:     850
 k-point  8 :   0.2857 0.2857 0.0000  plane waves:     856
 k-point  9 :   0.4286 0.2857 0.0000  plane waves:     854
 k-point 10 :   0.4286 0.4286 0.0000  plane waves:     864
 k-point 11 :   0.1429 0.1429 0.1429  plane waves:     850
 k-point 12 :   0.2857 0.1429 0.1429  plane waves:     850
 k-point 13 :   0.4286 0.1429 0.1429  plane waves:     858
 k-point 14 :   0.2857 0.2857 0.1429  plane waves:     862
 k-point 15 :   0.4286 0.2857 0.1429  plane waves:     853
 k-point 16 :   0.4286 0.4286 0.1429  plane waves:     849
 k-point 17 :   0.2857 0.2857 0.2857  plane waves:     847
 k-point 18 :   0.4286 0.2857 0.2857  plane waves:     859
 k-point 19 :   0.4286 0.4286 0.2857  plane waves:     858
 k-point 20 :   0.4286 0.4286 0.4286  plane waves:     870

 maximum and minimum number of plane-waves per node :       870      844

 maximum number of plane-waves:       870
 maximum index in each direction: 
   IXMAX=    5   IYMAX=    5   IZMAX=    5
   IXMIN=   -6   IYMIN=   -6   IZMIN=   -6

 WARNING: aliasing errors must be expected set NGX to  24 to avoid them
 WARNING: aliasing errors must be expected set NGY to  24 to avoid them
 WARNING: aliasing errors must be expected set NGZ to  24 to avoid them
 aliasing errors are usually negligible using standard VASP settings
 and one can safely disregard these warnings

 serial   3D FFT for wavefunctions
 parallel 3D FFT for charge:
    minimum data exchange during FFTs selected (reduces bandwidth)


 total amount of memory used by VASP on root node    33770. kBytes
========================================================================

   base      :      30000. kBytes
   nonl-proj :       2614. kBytes
   fftplans  :        113. kBytes
   grid      :        367. kBytes
   one-center:         62. kBytes
   wavefun   :        614. kBytes
 
     INWAV:  cpu time    0.0000: real time    0.0001
 Broyden mixing: mesh for mixing (old mesh)
   NGX = 11   NGY = 11   NGZ = 11
  (NGX  = 36   NGY  = 36   NGZ  = 36)
  gives a total of   1331 points

 initial charge density was supplied:
 charge density of overlapping atoms calculated
 number of electron      44.0000000 magnetization 
 keeping initial charge density in first step


--------------------------------------------------------------------------------------------------------


 Maximum index for augmentation-charges          277 (set IRDMAX)


--------------------------------------------------------------------------------------------------------


 First call to EWALD:  gamma=   0.491
 Maximum number of real-space cells 3x 3x 3
 Maximum number of reciprocal cells 3x 3x 3

 FEWALD executed in parallel
    FEWALD:  cpu time    0.0018: real time    0.0018


----------------------------------------- Iteration    1(   1)  ---------------------------------------


    POTLOK:  cpu time    0.0250: real time    0.0258
    SETDIJ:  cpu time    0.0029: real time    0.0029
     EDDAV:  cpu time    0.3628: real time    0.3636
       DOS:  cpu time    0.0008: real time    0.0008
    --------------------------------------------
      LOOP:  cpu time    0.3943: real time    0.3968

 eigenvalue-minimisations  :  2256
 total energy-change (2. order) : 0.1599549E+03  (-0.1637224E+04)
 number of electron      44.0000000 magnetization 
 augmentation part       44.0000000 magnetization 

 Free energy of the ion-electron system (eV)
  ---------------------------------------------------
  alpha Z        PSCENC =       248.71993771
  Ewald energy   TEWEN  =     -4425.78708566
  -Hartree energ DENC   =     -1444.32473403
  -exchange      EXHF   =         0.00000000
  -V(xc)+E(xc)   XCENC  =       183.18686199
  PAW double counting   =      4912.82663951    -5336.19386850
  entropy T*S    EENTRO =        -0.00145799
  eigenvalues    EBANDS =       457.69801441
  atomic energy  EATOM  =      5563.83056080
  Solvation  Ediel_sol  =         0.00000000
  ---------------------------------------------------
  free energy    TOTEN  =       159.95486824 eV

  energy without entropy =      159.95632623  energy(sigma->0) =      159.95535424


--------------------------------------------------------------------------------------------------------




----------------------------------------- Iteration    1(   2)  ---------------------------------------


     EDDAV:  cpu time    0.2891: real time    0.2910
       DOS:  cpu time    0.0012: real time    0.0012
    --------------------------------------------
      LOOP:  cpu time    0.2917: real time    0.2947

 eigenvalue-minimisations  :  1920
 total energy-change (2. order) :-0.1732971E+03  (-0.1574739E+03)
 number of electron      44.0000000 magnetization 
 augmentation part       44.0000000 magnetization 

 Free energy of the ion-electron system (eV)
  ---------------------------------------------------
  alpha Z        PSCENC =       248.71993771
  Ewald energy   TEWEN  =     -4425.78708566
  -Hartree energ DENC   =     -1444.32473403
  -exchange      EXHF   =         0.00000000
  -V(xc)+E(xc)   XCENC  =       183.18686199
  PAW double counting   =      4912.82663951    -5336.19386850
  entropy T*S    EENTRO =        -0.00049324
  eigenvalues    EBANDS =       284.39991053
  atomic energy  EATOM  =      5563.83056080
  Solvation  Ediel_sol  =         0.00000000
  ---------------------------------------------------
  free energy    TOTEN  =       -13.34227089 eV

  energy without entropy =      -13.34177765  energy(sigma->0) =      -13.34210648


--------------------------------------------------------------------------------------------------------




----------------------------------------- Iteration    1(   3)  ---------------------------------------


     EDDAV:  cpu time    0.4013: real time    0.4020
       DOS:  cpu time    0.0006: real time    0.0006
    --------------------------------------------
      LOOP:  cpu time    0.4028: real time    0.4049

 eigenvalue-minimisations  :  2688
 total energy-change (2. order) :-0.5145283E+01  (-0.5103643E+01)
 number of electron      44.0000000 magnetization 
 augmentation part       44.0000000 magnetization 

 Free energy of the ion-electron system (eV)
  ---------------------------------------------------
  alpha Z        PSCENC =       248.71993771
  Ewald energy   TEWEN  =     -4425.78708566
  -Hartree energ DENC   =     -1444.32473403
  -exchange      EXHF   =         0.00000000
  -V(xc)+E(xc)   XCENC  =       183.18686199
  PAW double counting   =      4912.82663951    -5336.19386850
  entropy T*S    EENTRO =        -0.00030468
  eigenvalues    EBANDS =       279.25443942
  atomic energy  EATOM  =      5563.83056080
  Solvation  Ediel_sol  =         0.00000000
  ---------------------------------------------------
  free energy    TOTEN  =       -18.48755343 eV

  energy without entropy =      -18.48724876  energy(sigma->0) =      -18.48745187


--------------------------------------------------------------------------------------------------------




----------------------------------------- Iteration    1(   4)  ---------------------------------------


     EDDAV:  cpu time    0.2451: real time    0.2454
       DOS:  cpu time    0.0005: real time    0.0005
    --------------------------------------------
      LOOP:  cpu time    0.2465: real time    0.2485

 eigenvalue-minimisations  :  1944
 total energy-change (2. order) :-0.3809499E-01  (-0.3809379E-01)
 number of electron      44.0000000 magnetization 
 augmentation part       44.0000000 magnetization 

 Free energy of the ion-electron system (eV)
  ---------------------------------------------------
  alpha Z        PSCENC =       248.71993771
  Ewald energy   TEWEN  =     -4425.78708566
  -Hartree energ DENC   =     -1444.32473403
  -exchange      EXHF   =         0.00000000
  -V(xc)+E(xc)   XCENC  =       183.18686199
  PAW double counting   =      4912.82663951    -5336.19386850
  entropy T*S    EENTRO =        -0.00029936
  eigenvalues    EBANDS =       279.21633913
  atomic energy  EATOM  =      5563.83056080
  Solvation  Ediel_sol  =         0.00000000
  ---------------------------------------------------
  free energy    TOTEN  =       -18.52564842 eV

  energy without entropy =      -18.52534906  energy(sigma->0) =      -18.52554863


--------------------------------------------------------------------------------------------------------




----------------------------------------- Iteration    1(   5)  ---------------------------------------


     EDDAV:  cpu time    0.4767: real time    0.4844
       DOS:  cpu time    0.0012: real time    0.0014
    CHARGE:  cpu time    0.0113: real time    0.0129
    MIXING:  cpu time    0.0597: real time    0.0598
    --------------------------------------------
      LOOP:  cpu time    0.5499: real time    0.5609

 eigenvalue-minimisations  :  2784
 total energy-change (2. order) :-0.5222564E-03  (-0.5222545E-03)
 number of electron      44.0000853 magnetization 
 augmentation part       25.9535779 magnetization 

 Broyden mixing:
  rms(total) = 0.15284E+01    rms(broyden)= 0.15280E+01
  rms(prec ) = 0.35905E+01
  weight for this iteration     100.00

 Free energy of the ion-electron system (eV)
  ---------------------------------------------------
  alpha Z        PSCENC =       248.71993771
  Ewald energy   TEWEN  =     -4425.78708566
  -Hartree energ DENC   =     -1444.32473403
  -exchange      EXHF   =         0.00000000
  -V(xc)+E(xc)   XCENC  =       183.18686199
  PAW double counting   =      4912.82663951    -5336.19386850
  entropy T*S    EENTRO =        -0.00029931
  eigenvalues    EBANDS =       279.21581681
  atomic energy  EATOM  =      5563.83056080
  Solvation  Ediel_sol  =         0.00000000
  ---------------------------------------------------
  free energy    TOTEN  =       -18.52617068 eV

  energy without entropy =      -18.52587137  energy(sigma->0) =      -18.52607091


--------------------------------------------------------------------------------------------------------




----------------------------------------- Iteration    1(   6)  ---------------------------------------


    POTLOK:  cpu time    0.0031: real time    0.0031
    SETDIJ:  cpu time    0.0023: real time    0.0023
     EDDAV:  cpu time    0.4274: real time    0.4281
       DOS:  cpu time    0.0007: real time    0.0007
    CHARGE:  cpu time    0.0051: real time    0.0051
    MIXING:  cpu time    0.0003: real time    0.0004
    --------------------------------------------
      LOOP:  cpu time    0.4399: real time    0.4421

 eigenvalue-minimisations  :  2400
 total energy-change (2. order) : 0.2145279E+01  (-0.3313691E+01)
 number of electron      44.0000952 magnetization 
 augmentation part       29.2163947 magnetization 

 Broyden mixing:
  rms(total) = 0.76962E+00    rms(broyden)= 0.76910E+00
  rms(prec ) = 0.16549E+01
  weight for this iteration     100.00

 eigenvalues of (default mixing * dielectric matrix)
  average eigenvalue GAMMA=   0.6662
  0.6662

 Free energy of the ion-electron system (eV)
  ---------------------------------------------------
  alpha Z        PSCENC =       248.71993771
  Ewald energy   TEWEN  =     -4425.78708566
  -Hartree energ DENC   =     -1333.19646936
  -exchange      EXHF   =         0.00000000
  -V(xc)+E(xc)   XCENC  =       177.66500346
  PAW double counting   =      4994.92489891    -5396.38276629
  entropy T*S    EENTRO =        -0.00104810
  eigenvalues    EBANDS =       153.84607731
  atomic energy  EATOM  =      5563.83056080
  Solvation  Ediel_sol  =         0.00000000
  ---------------------------------------------------
  free energy    TOTEN  =       -16.38089122 eV

  energy without entropy =      -16.37984312  energy(sigma->0) =      -16.38054186


--------------------------------------------------------------------------------------------------------




----------------------------------------- Iteration    1(   7)  ---------------------------------------


    POTLOK:  cpu time    0.0021: real time    0.0021
    SETDIJ:  cpu time    0.0020: real time    0.0020
     EDDAV:  cpu time    0.3681: real time    0.3684
       DOS:  cpu time    0.0013: real time    0.0013
    CHARGE:  cpu time    0.0061: real time    0.0065
    MIXING:  cpu time    0.0003: real time    0.0003
    --------------------------------------------
      LOOP:  cpu time    0.3809: real time    0.3833

 eigenvalue-minimisations  :  2376
 total energy-change (2. order) : 0.1415069E+01  (-0.5394071E+00)
 number of electron      44.0000913 magnetization 
 augmentation part       27.9688838 magnetization 

 Broyden mixing:
  rms(total) = 0.11347E+00    rms(broyden)= 0.11327E+00
  rms(prec ) = 0.28561E+00
  weight for this iteration     100.00

 eigenvalues of (default mixing * dielectric matrix)
  average eigenvalue GAMMA=   1.3967
  2.1532  0.6403

 Free energy of the ion-electron system (eV)
  ---------------------------------------------------
  alpha Z        PSCENC =       248.71993771
  Ewald energy   TEWEN  =     -4425.78708566
  -Hartree energ DENC   =     -1366.73664988
  -exchange      EXHF   =         0.00000000
  -V(xc)+E(xc)   XCENC  =       179.42488695
  PAW double counting   =      5093.24477946    -5513.72702921
  entropy T*S    EENTRO =         0.00039162
  eigenvalues    EBANDS =       206.06438588
  atomic energy  EATOM  =      5563.83056080
  Solvation  Ediel_sol  =         0.00000000
  ---------------------------------------------------
  free energy    TOTEN  =       -14.96582233 eV

  energy without entropy =      -14.96621394  energy(sigma->0) =      -14.96595287


--------------------------------------------------------------------------------------------------------




----------------------------------------- Iteration    1(   8)  ---------------------------------------


    POTLOK:  cpu time    0.0030: real time    0.0030
    SETDIJ:  cpu time    0.0021: real time    0.0021
     EDDAV:  cpu time    0.3126: real time    0.3145
       DOS:  cpu time    0.0006: real time    0.0006
    CHARGE:  cpu time    0.0054: real time    0.0054
    MIXING:  cpu time    0.0002: real time    0.0002
    --------------------------------------------
      LOOP:  cpu time    0.3250: real time    0.3283

 eigenvalue-minimisations  :  2256
 total energy-change (2. order) : 0.4178204E-01  (-0.2414012E-02)
 number of electron      44.0000913 magnetization 
 augmentation part       27.9559285 magnetization 

 Broyden mixing:
  rms(total) = 0.59770E-01    rms(broyden)= 0.59751E-01
  rms(prec ) = 0.14428E+00
  weight for this iteration     100.00

 eigenvalues of (default mixing * dielectric matrix)
  average eigenvalue GAMMA=   1.3764
  0.6595  0.9452  2.5245

 Free energy of the ion-electron system (eV)
  ---------------------------------------------------
  alpha Z        PSCENC =       248.71993771
  Ewald energy   TEWEN  =     -4425.78708566
  -Hartree energ DENC   =     -1355.09515211
  -exchange      EXHF   =         0.00000000
  -V(xc)+E(xc)   XCENC  =       178.94161306
  PAW double counting   =      5248.41221001    -5679.14277103
  entropy T*S    EENTRO =         0.00039770
  eigenvalues    EBANDS =       205.19624922
  atomic energy  EATOM  =      5563.83056080
  Solvation  Ediel_sol  =         0.00000000
  ---------------------------------------------------
  free energy    TOTEN  =       -14.92404029 eV

  energy without entropy =      -14.92443798  energy(sigma->0) =      -14.92417285


--------------------------------------------------------------------------------------------------------




----------------------------------------- Iteration    1(   9)  ---------------------------------------


    POTLOK:  cpu time    0.0028: real time    0.0028
    SETDIJ:  cpu time    0.0020: real time    0.0020
     EDDAV:  cpu time    0.3481: real time    0.3505
       DOS:  cpu time    0.0006: real time    0.0006
    CHARGE:  cpu time    0.0044: real time    0.0044
    MIXING:  cpu time    0.0003: real time    0.0006
    --------------------------------------------
      LOOP:  cpu time    0.3594: real time    0.3635

 eigenvalue-minimisations  :  2472
 total energy-change (2. order) : 0.6415368E-02  (-0.2039573E-02)
 number of electron      44.0000915 magnetization 
 augmentation part       28.0356790 magnetization 

 Broyden mixing:
  rms(total) = 0.38810E-02    rms(broyden)= 0.38549E-02
  rms(prec ) = 0.77545E-02
  weight for this iteration     100.00

 eigenvalues of (default mixing * dielectric matrix)
  average eigenvalue GAMMA=   1.5841
  0.6599  0.9431  2.6578  2.0755

 Free energy of the ion-electron system (eV)
  ---------------------------------------------------
  alpha Z        PSCENC =       248.71993771
  Ewald energy   TEWEN  =     -4425.78708566
  -Hartree energ DENC   =     -1350.33288419
  -exchange      EXHF   =         0.00000000
  -V(xc)+E(xc)   XCENC  =       178.72281258
  PAW double counting   =      5276.14026846    -5707.96867213
  entropy T*S    EENTRO =         0.00043344
  eigenvalues    EBANDS =       201.75700406
  atomic energy  EATOM  =      5563.83056080
  Solvation  Ediel_sol  =         0.00000000
  ---------------------------------------------------
  free energy    TOTEN  =       -14.91762492 eV

  energy without entropy =      -14.91805836  energy(sigma->0) =      -14.91776940


--------------------------------------------------------------------------------------------------------




----------------------------------------- Iteration    1(  10)  ---------------------------------------


    POTLOK:  cpu time    0.0028: real time    0.0028
    SETDIJ:  cpu time    0.0020: real time    0.0020
     EDDAV:  cpu time    0.2822: real time    0.2829
       DOS:  cpu time    0.0008: real time    0.0008
    --------------------------------------------
      LOOP:  cpu time    0.2888: real time    0.2912

 eigenvalue-minimisations  :  1968
 total energy-change (2. order) :-0.3960327E-04  (-0.1523726E-04)
 number of electron      44.0000915 magnetization 
 augmentation part       28.0356790 magnetization 

 Free energy of the ion-electron system (eV)
  ---------------------------------------------------
  alpha Z        PSCENC =       248.71993771
  Ewald energy   TEWEN  =     -4425.78708566
  -Hartree energ DENC   =     -1350.58370916
  -exchange      EXHF   =         0.00000000
  -V(xc)+E(xc)   XCENC  =       178.73525730
  PAW double counting   =      5273.07355685    -5704.71065308
  entropy T*S    EENTRO =         0.00043278
  eigenvalues    EBANDS =       201.80403794
  atomic energy  EATOM  =      5563.83056080
  Solvation  Ediel_sol  =         0.00000000
  ---------------------------------------------------
  free energy    TOTEN  =       -14.91766452 eV

  energy without entropy =      -14.91809730  energy(sigma->0) =      -14.91780878


--------------------------------------------------------------------------------------------------------




 average (electrostatic) potential at core
  the test charge radii are     0.9430
  (the norm of the test charge is              1.0000)
       1 -63.6602       2 -63.6602       3 -63.6602       4 -63.6602
 
 
 
 E-fermi :   7.4166     XC(G=0): -12.7514     alpha+bet :-13.4799


 k-point     1 :       0.0000    0.0000    0.0000
  band No.  band energies     occupation 
      1      -1.7484      2.00000
      2       2.7340      2.00000
      3       2.7340      2.00000
      4       2.7340      2.00000
      5       3.1916      2.00000
      6       3.1916      2.00000
      7       3.1916      2.00000
      8       4.5947      2.00000
      9       4.5947      2.00000
     10       4.5947      2.00000
     11       5.4272      2.00000
     12       5.4272      2.00000
     13       5.9793      2.00000
     14       5.9793      2.00000
     15       5.9793      2.00000
     16       6.1348      2.00000
     17       6.1348      2.00000
     18       6.1348      2.00000
     19       6.1348      2.00000
     20       6.1348      2.00000
     21       6.1348      2.00000
     22       9.1299     -0.00000
     23       9.1299     -0.00000
     24       9.1299     -0.00000
     25      14.7775      0.00000
     26      14.7775      0.00000
     27      14.7775      0.00000
     28      20.7476      0.00000
     29      20.7476      0.00000
     30      20.7476      0.00000
     31      20.7476      0.00000
     32      20.7476      0.00000
     33      20.7476      0.00000
     34      25.2517      0.00000
     35      25.2517      0.00000
     36      25.2517      0.00000
     37      27.9604      0.00000
     38      27.9604      0.00000
     39      27.9604      0.00000
     40      30.2658      0.00000
     41      32.9379      0.00000
     42      32.9379      0.00000
     43      32.9379      0.00000
     44      35.4323      0.00000
     45      35.4323      0.00000
     46      35.4323      0.00000
     47      39.2042      0.00000
     48      44.0051      0.00000

 k-point     2 :       0.1429    0.0000    0.0000
  band No.  band energies     occupation 
      1      -1.5002      2.00000
      2       2.7235      2.00000
      3       2.8479      2.00000
      4       2.8479      2.00000
      5       3.2574      2.00000
      6       3.2623      2.00000
      7       3.2623      2.00000
      8       4.5213      2.00000
      9       4.6528      2.00000
     10       4.6528      2.00000
     11       5.3605      2.00000
     12       5.4534      2.00000
     13       5.7432      2.00000
     14       5.7432      2.00000
     15       5.8937      2.00000
     16       5.8937      2.00000
     17       5.9513      2.00000
     18       6.0347      2.00000
     19       6.0347      2.00000
     20       6.1352      2.00000
     21       6.1352      2.00000
     22       7.8548     -0.00000
     23       9.7440     -0.00000
     24       9.7440     -0.00000
     25      14.8685      0.00000
     26      14.8685      0.00000
     27      16.5466      0.00000
     28      19.3684      0.00000
     29      19.3684      0.00000
     30      19.8151      0.00000
     31      19.8151      0.00000
     32      21.1117      0.00000
     33      21.1117      0.00000
     34      25.3573      0.00000
     35      26.9362      0.00000
     36      26.9362      0.00000
     37      28.0581      0.00000
     38      29.4362      0.00000
     39      29.4362      0.00000
     40      29.5087      0.00000
     41      30.9619      0.00000
     42      30.9619      0.00000
     43      31.9892      0.00000
     44      36.7177      0.00000
     45      37.5196      0.00000
     46      37.5196      0.00000
     47      38.9756      0.00000
     48      41.6632      0.00000

 k-point     3 :       0.2857    0.0000    0.0000
  band No.  band energies     occupation 
      1      -0.7730      2.00000
      2       2.5241      2.00000
      3       3.1386      2.00000
      4       3.1386      2.00000
      5       3.4434      2.00000
      6       3.4767      2.00000
      7       3.4767      2.00000
      8       4.3172      2.00000
      9       4.8245      2.00000
     10       4.8245      2.00000
     11       5.0278      2.00000
     12       5.0278      2.00000
     13       5.1863      2.00000
     14       5.5283      2.00000
     15       5.6651      2.00000
     16       5.6651      2.00000
     17       5.7714      2.00000
     18       5.7714      2.00000
     19       5.8731      2.00000
     20       5.9920      2.00000
     21       6.1356      2.00000
     22       6.1356      2.00000
     23      11.1217      0.00000
     24      11.1217      0.00000
     25      15.1658      0.00000
     26      15.1658      0.00000
     27      17.1014      0.00000
     28      17.1014      0.00000
     29      18.1827      0.00000
     30      18.1827      0.00000
     31      20.0236      0.00000
     32      22.1596      0.00000
     33      22.1596      0.00000
     34      25.6826      0.00000
     35      28.2186      0.00000
     36      28.3121      0.00000
     37      28.3121      0.00000
     38      28.3989      0.00000
     39      30.1239      0.00000
     40      30.1239      0.00000
     41      30.1897      0.00000
     42      32.6492      0.00000
     43      32.6492      0.00000
     44      34.6907      0.00000
     45      39.5735      0.00000
     46      40.4610      0.00000
     47      40.4610      0.00000
     48      42.6877      0.00000

 k-point     4 :       0.4286    0.0000    0.0000
  band No.  band energies     occupation 
      1       0.3618      2.00000
      2       1.6678      2.00000
      3       3.4277      2.00000
      4       3.4277      2.00000
      5       3.7174      2.00000
      6       3.8421      2.00000
      7       3.8421      2.00000
      8       4.0290      2.00000
      9       4.3639      2.00000
     10       4.3639      2.00000
     11       4.9972      2.00000
     12       5.0575      2.00000
     13       5.0950      2.00000
     14       5.0950      2.00000
     15       5.4254      2.00000
     16       5.4254      2.00000
     17       5.4300      2.00000
     18       5.4300      2.00000
     19       5.6381      2.00000
     20       5.7611      2.00000
     21       6.1360      2.00000
     22       6.1360      2.00000
     23      12.8746      0.00000
     24      12.8746      0.00000
     25      14.8881      0.00000
     26      14.8881      0.00000
     27      15.7171      0.00000
     28      15.7171      0.00000
     29      16.8213      0.00000
     30      16.8213      0.00000
     31      23.7861      0.00000
     32      23.7861      0.00000
     33      24.0147      0.00000
     34      25.8737      0.00000
     35      25.8737      0.00000
     36      26.2514      0.00000
     37      27.0936      0.00000
     38      27.7750      0.00000
     39      29.1543      0.00000
     40      30.9158      0.00000
     41      33.8869      0.00000
     42      33.8869      0.00000
     43      36.2548      0.00000
     44      36.2548      0.00000
     45      38.0954      0.00000
     46      38.0954      0.00000
     47      42.7761      0.00000
     48      42.7762      0.00000

 k-point     5 :       0.1429    0.1429    0.0000
  band No.  band energies     occupation 
      1      -1.2552      2.00000
      2       2.8458      2.00000
      3       2.8458      2.00000
      4       2.9538      2.00000
      5       3.3241      2.00000
      6       3.3241      2.00000
      7       3.3253      2.00000
      8       4.4830      2.00000
      9       4.6797      2.00000
     10       4.6929      2.00000
     11       5.3450      2.00000
     12       5.4473      2.00000
     13       5.5099      2.00000
     14       5.5632      2.00000
     15       5.5632      2.00000
     16       5.8181      2.00000
     17       5.9006      2.00000
     18       5.9006      2.00000
     19       6.0341      2.00000
     20       6.0341      2.00000
     21       6.0694      2.00000
     22       8.4530     -0.00000
     23       8.4530     -0.00000
     24      10.2663      0.00000
     25      14.9565      0.00000
     26      16.6986      0.00000
     27      16.6986      0.00000
     28      17.0611      0.00000
     29      19.6877      0.00000
     30      19.6877      0.00000
     31      20.1361      0.00000
     32      20.1361      0.00000
     33      21.4545      0.00000
     34      26.4342      0.00000
     35      27.0910      0.00000
     36      27.0910      0.00000
     37      27.7770      0.00000
     38      28.7895      0.00000
     39      29.5596      0.00000
     40      29.5596      0.00000
     41      31.4639      0.00000
     42      32.0809      0.00000
     43      33.6376      0.00000
     44      35.6841      0.00000
     45      36.1019      0.00000
     46      39.5171      0.00000
     47      39.7454      0.00000
     48      41.1913      0.00000

 k-point     6 :       0.2857    0.1429    0.0000
  band No.  band energies     occupation 
      1      -0.5383      2.00000
      2       2.6723      2.00000
      3       3.1616      2.00000
      4       3.2274      2.00000
      5       3.4992      2.00000
      6       3.5113      2.00000
      7       3.5264      2.00000
      8       4.3107      2.00000
      9       4.7949      2.00000
     10       4.8333      2.00000
     11       4.8573      2.00000
     12       4.9399      2.00000
     13       5.1304      2.00000
     14       5.2230      2.00000
     15       5.5420      2.00000
     16       5.6145      2.00000
     17       5.6775      2.00000
     18       5.7700      2.00000
     19       5.8080      2.00000
     20       6.0327      2.00000
     21       6.0358      2.00000
     22       6.7414      2.00000
     23       9.6345     -0.00000
     24      11.5359      0.00000
     25      14.6194      0.00000
     26      15.4055      0.00000
     27      17.1714      0.00000
     28      17.4063      0.00000
     29      18.4540      0.00000
     30      20.1776      0.00000
     31      20.5948      0.00000
     32      20.8408      0.00000
     33      21.0926      0.00000
     34      25.6379      0.00000
     35      26.3691      0.00000
     36      27.5689      0.00000
     37      28.4108      0.00000
     38      29.9724      0.00000
     39      30.3071      0.00000
     40      31.1552      0.00000
     41      32.1414      0.00000
     42      32.7418      0.00000
     43      34.9029      0.00000
     44      34.9199      0.00000
     45      37.6742      0.00000
     46      38.2356      0.00000
     47      41.5222      0.00000
     48      42.4546      0.00000

 k-point     7 :       0.4286    0.1429    0.0000
  band No.  band energies     occupation 
      1       0.5765      2.00000
      2       1.8505      2.00000
      3       3.4929      2.00000
      4       3.5213      2.00000
      5       3.7560      2.00000
      6       3.7944      2.00000
      7       3.8686      2.00000
      8       4.0463      2.00000
      9       4.2398      2.00000
     10       4.3500      2.00000
     11       4.7733      2.00000
     12       4.8024      2.00000
     13       5.0972      2.00000
     14       5.2431      2.00000
     15       5.4052      2.00000
     16       5.4293      2.00000
     17       5.4333      2.00000
     18       5.5400      2.00000
     19       5.7068      2.00000
     20       5.9654      2.00000
     21       6.0299      2.00000
     22       6.0307      2.00000
     23      11.0570      0.00000
     24      12.7131      0.00000
     25      13.2259      0.00000
     26      15.2056      0.00000
     27      15.9611      0.00000
     28      16.9564      0.00000
     29      18.0922      0.00000
     30      19.3487      0.00000
     31      21.9689      0.00000
     32      22.4053      0.00000
     33      23.6810      0.00000
     34      24.2261      0.00000
     35      24.3529      0.00000
     36      28.4044      0.00000
     37      28.5864      0.00000
     38      29.6264      0.00000
     39      30.7961      0.00000
     40      31.9647      0.00000
     41      32.2614      0.00000
     42      34.0827      0.00000
     43      35.1907      0.00000
     44      38.2979      0.00000
     45      38.3143      0.00000
     46      38.5775      0.00000
     47      40.2597      0.00000
     48      41.1191      0.00000

 k-point     8 :       0.2857    0.2857    0.0000
  band No.  band energies     occupation 
      1       0.1442      2.00000
      2       3.0624      2.00000
      3       3.0624      2.00000
      4       3.4410      2.00000
      5       3.6262      2.00000
      6       3.6655      2.00000
      7       3.6655      2.00000
      8       4.2431      2.00000
      9       4.5254      2.00000
     10       4.5254      2.00000
     11       4.6713      2.00000
     12       4.7561      2.00000
     13       4.9157      2.00000
     14       5.1763      2.00000
     15       5.4683      2.00000
     16       5.6094      2.00000
     17       5.6094      2.00000
     18       5.7041      2.00000
     19       5.7675      2.00000
     20       5.7675      2.00000
     21       5.8795      2.00000
     22       7.7135     -0.00022
     23       7.7135     -0.00022
     24      12.2749      0.00000
     25      12.6347      0.00000
     26      15.7399      0.00000
     27      18.2739      0.00000
     28      18.2739      0.00000
     29      19.1668      0.00000
     30      19.1668      0.00000
     31      20.8236      0.00000
     32      20.8236      0.00000
     33      23.3174      0.00000
     34      23.4304      0.00000
     35      24.0209      0.00000
     36      27.1813      0.00000
     37      30.8602      0.00000
     38      30.8602      0.00000
     39      33.0336      0.00000
     40      33.0336      0.00000
     41      33.4139      0.00000
     42      33.6049      0.00000
     43      34.4788      0.00000
     44      35.7252      0.00000
     45      36.4751      0.00000
     46      38.4983      0.00000
     47      39.6789      0.00000
     48      39.6789      0.00000

 k-point     9 :       0.4286    0.2857    0.0000
  band No.  band energies     occupation 
      1       1.1886      2.00000
      2       2.3470      2.00000
      3       3.5097      2.00000
      4       3.6618      2.00000
      5       3.7702      2.00000
      6       3.8650      2.00000
      7       3.9384      2.00000
      8       4.0616      2.00000
      9       4.0780      2.00000
     10       4.2964      2.00000
     11       4.4583      2.00000
     12       4.6426      2.00000
     13       5.1278      2.00000
     14       5.1820      2.00000
     15       5.3154      2.00000
     16       5.3760      2.00000
     17       5.3937      2.00000
     18       5.4352      2.00000
     19       5.7709      2.00000
     20       5.7975      2.00000
     21       6.0195      2.00000
     22       6.5589      2.00000
     23       8.8726     -0.00000
     24      10.3511      0.00000
     25      14.2001      0.00000
     26      16.1039      0.00000
     27      16.4627      0.00000
     28      17.6002      0.00000
     29      19.6028      0.00000
     30      20.3852      0.00000
     31      21.3011      0.00000
     32      21.7622      0.00000
     33      22.0084      0.00000
     34      23.0066      0.00000
     35      24.9429      0.00000
     36      29.3711      0.00000
     37      29.6766      0.00000
     38      31.7828      0.00000
     39      33.0068      0.00000
     40      33.3621      0.00000
     41      33.5267      0.00000
     42      34.0613      0.00000
     43      34.6683      0.00000
     44      36.8176      0.00000
     45      38.0671      0.00000
     46      38.7379      0.00000
     47      38.9043      0.00000
     48      39.0714      0.00000

 k-point    10 :       0.4286    0.4286    0.0000
  band No.  band energies     occupation 
      1       2.0764      2.00000
      2       2.9708      2.00000
      3       2.9708      2.00000
      4       3.4300      2.00000
      5       4.0226      2.00000
      6       4.0226      2.00000
      7       4.0550      2.00000
      8       4.0783      2.00000
      9       4.1831      2.00000
     10       4.2534      2.00000
     11       4.2534      2.00000
     12       4.5069      2.00000
     13       5.0785      2.00000
     14       5.1737      2.00000
     15       5.1959      2.00000
     16       5.1959      2.00000
     17       5.2438      2.00000
     18       5.4743      2.00000
     19       5.4743      2.00000
     20       5.5884      2.00000
     21       6.5259      2.00000
     22       7.3661      1.74538
     23       7.3661      1.74538
     24       8.5627     -0.00000
     25      15.6514      0.00000
     26      17.3397      0.00000
     27      17.4730      0.00000
     28      17.4730      0.00000
     29      18.6443      0.00000
     30      18.6443      0.00000
     31      19.2222      0.00000
     32      20.1152      0.00000
     33      25.8916      0.00000
     34      25.8916      0.00000
     35      26.3973      0.00000
     36      28.4318      0.00000
     37      30.1365      0.00000
     38      30.5200      0.00000
     39      31.6886      0.00000
     40      31.6886      0.00000
     41      35.6178      0.00000
     42      35.6178      0.00000
     43      36.2230      0.00000
     44      37.9006      0.00000
     45      38.7628      0.00000
     46      39.2318      0.00000
     47      39.2318      0.00000
     48      39.7213      0.00000

 k-point    11 :       0.1429    0.1429    0.1429
  band No.  band energies     occupation 
      1      -1.0141      2.00000
      2       2.9557      2.00000
      3       2.9557      2.00000
      4       2.9557      2.00000
      5       3.3848      2.00000
      6       3.3848      2.00000
      7       3.3848      2.00000
      8       4.4554      2.00000
      9       4.7087      2.00000
     10       4.7087      2.00000
     11       5.3509      2.00000
     12       5.3509      2.00000
     13       5.3509      2.00000
     14       5.3953      2.00000
     15       5.3953      2.00000
     16       5.7105      2.00000
     17       5.7105      2.00000
     18       5.7105      2.00000
     19       6.0681      2.00000
     20       6.0681      2.00000
     21       6.0681      2.00000
     22       8.9076     -0.00000
     23       8.9076     -0.00000
     24       8.9076     -0.00000
     25      16.8317      0.00000
     26      16.8317      0.00000
     27      16.8317      0.00000
     28      17.3805      0.00000
     29      17.3805      0.00000
     30      17.3805      0.00000
     31      21.7992      0.00000
     32      21.7992      0.00000
     33      21.7992      0.00000
     34      25.5607      0.00000
     35      26.5450      0.00000
     36      26.5450      0.00000
     37      26.5450      0.00000
     38      30.8201      0.00000
     39      31.5247      0.00000
     40      31.5247      0.00000
     41      31.6148      0.00000
     42      31.6148      0.00000
     43      31.6148      0.00000
     44      37.2939      0.00000
     45      37.6462      0.00000
     46      37.6462      0.00000
     47      40.1698      0.00000
     48      40.1698      0.00000

 k-point    12 :       0.2857    0.1429    0.1429
  band No.  band energies     occupation 
      1      -0.3101      2.00000
      2       2.7955      2.00000
      3       3.2381      2.00000
      4       3.2381      2.00000
      5       3.5559      2.00000
      6       3.5623      2.00000
      7       3.5623      2.00000
      8       4.3138      2.00000
      9       4.7848      2.00000
     10       4.8030      2.00000
     11       4.8038      2.00000
     12       4.8038      2.00000
     13       4.9389      2.00000
     14       5.3028      2.00000
     15       5.4751      2.00000
     16       5.5282      2.00000
     17       5.5415      2.00000
     18       5.5415      2.00000
     19       6.0095      2.00000
     20       6.0238      2.00000
     21       6.0238      2.00000
     22       7.0852      2.00003
     23       9.9452     -0.00000
     24       9.9452     -0.00000
     25      15.0279      0.00000
     26      15.0279      0.00000
     27      17.3772      0.00000
     28      17.3772      0.00000
     29      18.1957      0.00000
     30      20.4118      0.00000
     31      21.1233      0.00000
     32      21.1233      0.00000
     33      22.7994      0.00000
     34      23.2210      0.00000
     35      26.9002      0.00000
     36      28.5491      0.00000
     37      28.5491      0.00000
     38      28.8442      0.00000
     39      29.4069      0.00000
     40      32.0927      0.00000
     41      33.7650      0.00000
     42      34.1484      0.00000
     43      35.0443      0.00000
     44      35.0443      0.00000
     45      37.5506      0.00000
     46      39.3559      0.00000
     47      39.8987      0.00000
     48      41.6975      0.00000

 k-point    13 :       0.4286    0.1429    0.1429
  band No.  band energies     occupation 
      1       0.7786      2.00000
      2       2.0094      2.00000
      3       3.5693      2.00000
      4       3.5693      2.00000
      5       3.7626      2.00000
      6       3.7626      2.00000
      7       3.8044      2.00000
      8       4.0761      2.00000
      9       4.3236      2.00000
     10       4.3236      2.00000
     11       4.6715      2.00000
     12       4.7467      2.00000
     13       4.9723      2.00000
     14       5.2082      2.00000
     15       5.3598      2.00000
     16       5.3598      2.00000
     17       5.4479      2.00000
     18       5.7040      2.00000
     19       5.8782      2.00000
     20       5.9879      2.00000
     21       5.9888      2.00000
     22       5.9888      2.00000
     23      11.2201      0.00000
     24      11.2201      0.00000
     25      13.1489      0.00000
     26      13.1489      0.00000
     27      18.2633      0.00000
     28      18.2633      0.00000
     29      19.5082      0.00000
     30      19.5910      0.00000
     31      19.5910      0.00000
     32      21.1964      0.00000
     33      24.3725      0.00000
     34      24.4371      0.00000
     35      26.4196      0.00000
     36      27.6047      0.00000
     37      27.8034      0.00000
     38      29.6131      0.00000
     39      32.0051      0.00000
     40      32.0051      0.00000
     41      32.9491      0.00000
     42      34.1427      0.00000
     43      36.6378      0.00000
     44      36.6378      0.00000
     45      38.9452      0.00000
     46      39.5597      0.00000
     47      39.5597      0.00000
     48      40.7211      0.00000

 k-point    14 :       0.2857    0.2857    0.1429
  band No.  band energies     occupation 
      1       0.3500      2.00000
      2       3.0948      2.00000
      3       3.0948      2.00000
      4       3.3890      2.00000
      5       3.6985      2.00000
      6       3.7308      2.00000
      7       3.7308      2.00000
      8       4.2809      2.00000
      9       4.5371      2.00000
     10       4.5371      2.00000
     11       4.6284      2.00000
     12       4.7506      2.00000
     13       4.8143      2.00000
     14       5.3256      2.00000
     15       5.3347      2.00000
     16       5.3347      2.00000
     17       5.3376      2.00000
     18       5.6604      2.00000
     19       5.9578      2.00000
     20       5.9623      2.00000
     21       5.9623      2.00000
     22       7.8966     -0.00000
     23       7.8966     -0.00000
     24      10.6560      0.00000
     25      12.7883      0.00000
     26      15.8644      0.00000
     27      15.8644      0.00000
     28      17.9274      0.00000
     29      20.8287      0.00000
     30      20.9561      0.00000
     31      20.9561      0.00000
     32      21.9688      0.00000
     33      21.9688      0.00000
     34      23.7276      0.00000
     35      26.8561      0.00000
     36      27.2719      0.00000
     37      28.9861      0.00000
     38      28.9861      0.00000
     39      31.6388      0.00000
     40      32.9990      0.00000
     41      34.7137      0.00000
     42      35.2834      0.00000
     43      35.4079      0.00000
     44      35.4079      0.00000
     45      38.5945      0.00000
     46      39.4974      0.00000
     47      39.8331      0.00000
     48      39.8331      0.00000

 k-point    15 :       0.4286    0.2857    0.1429
  band No.  band energies     occupation 
      1       1.3454      2.00000
      2       2.4185      2.00000
      3       3.3864      2.00000
      4       3.4833      2.00000
      5       3.8653      2.00000
      6       3.9220      2.00000
      7       3.9635      2.00000
      8       4.1595      2.00000
      9       4.3075      2.00000
     10       4.4251      2.00000
     11       4.4786      2.00000
     12       4.6436      2.00000
     13       4.8988      2.00000
     14       5.0868      2.00000
     15       5.1815      2.00000
     16       5.2059      2.00000
     17       5.4725      2.00000
     18       5.7786      2.00000
     19       5.8790      2.00000
     20       5.8795      2.00000
     21       5.9632      2.00000
     22       6.5598      2.00000
     23       8.9740     -0.00000
     24      10.2870      0.00000
     25      12.4847      0.00000
     26      13.9284      0.00000
     27      17.1370      0.00000
     28      18.7983      0.00000
     29      18.8884      0.00000
     30      20.2574      0.00000
     31      21.9761      0.00000
     32      23.1789      0.00000
     33      23.2377      0.00000
     34      24.8606      0.00000
     35      25.1259      0.00000
     36      29.3215      0.00000
     37      29.7398      0.00000
     38      29.7892      0.00000
     39      31.1656      0.00000
     40      31.9346      0.00000
     41      35.1873      0.00000
     42      35.7044      0.00000
     43      35.8793      0.00000
     44      36.3714      0.00000
     45      37.5735      0.00000
     46      38.1932      0.00000
     47      39.3560      0.00000
     48      40.2165      0.00000

 k-point    16 :       0.4286    0.4286    0.1429
  band No.  band energies     occupation 
      1       2.1331      2.00000
      2       2.8803      2.00000
      3       2.8803      2.00000
      4       3.2275      2.00000
      5       4.1309      2.00000
      6       4.2109      2.00000
      7       4.2109      2.00000
      8       4.2522      2.00000
      9       4.3473      2.00000
     10       4.3473      2.00000
     11       4.4361      2.00000
     12       4.5346      2.00000
     13       4.8706      2.00000
     14       4.9961      2.00000
     15       4.9961      2.00000
     16       5.0123      2.00000
     17       5.4797      2.00000
     18       5.6807      2.00000
     19       5.6807      2.00000
     20       5.7352      2.00000
     21       6.4631      2.00000
     22       7.3556      1.84866
     23       7.3556      1.84866
     24       8.5628     -0.00000
     25      13.5839      0.00000
     26      15.1569      0.00000
     27      15.1569      0.00000
     28      16.7828      0.00000
     29      19.9358      0.00000
     30      21.4025      0.00000
     31      21.4025      0.00000
     32      22.9560      0.00000
     33      26.0693      0.00000
     34      26.0693      0.00000
     35      26.6319      0.00000
     36      28.4628      0.00000
     37      30.2809      0.00000
     38      30.3067      0.00000
     39      31.2800      0.00000
     40      31.2800      0.00000
     41      34.9517      0.00000
     42      34.9517      0.00000
     43      35.4938      0.00000
     44      35.9463      0.00000
     45      38.3403      0.00000
     46      38.7750      0.00000
     47      39.4878      0.00000
     48      39.4878      0.00000

 k-point    17 :       0.2857    0.2857    0.2857
  band No.  band energies     occupation 
      1       0.9312      2.00000
      2       3.1287      2.00000
      3       3.1287      2.00000
      4       3.1287      2.00000
      5       3.9370      2.00000
      6       3.9370      2.00000
      7       3.9370      2.00000
      8       4.3794      2.00000
      9       4.5602      2.00000
     10       4.5602      2.00000
     11       4.5602      2.00000
     12       4.7263      2.00000
     13       4.7263      2.00000
     14       5.0791      2.00000
     15       5.0791      2.00000
     16       5.0791      2.00000
     17       5.5943      2.00000
     18       5.5943      2.00000
     19       6.0247      2.00000
     20       6.0247      2.00000
     21       6.0247      2.00000
     22       8.4077     -0.00000
     23       8.4077     -0.00000
     24       8.4077     -0.00000
     25      13.5576      0.00000
     26      13.5576      0.00000
     27      13.5576      0.00000
     28      18.4123      0.00000
     29      21.5569      0.00000
     30      21.5569      0.00000
     31      21.5569      0.00000
     32      24.6055      0.00000
     33      24.6055      0.00000
     34      24.6055      0.00000
     35      27.5771      0.00000
     36      27.5771      0.00000
     37      27.5771      0.00000
     38      29.8576      0.00000
     39      30.2825      0.00000
     40      30.2825      0.00000
     41      35.3731      0.00000
     42      35.3731      0.00000
     43      37.4814      0.00000
     44      38.7752      0.00000
     45      38.7752      0.00000
     46      38.7752      0.00000
     47      39.7661      0.00000
     48      39.7661      0.00000

 k-point    18 :       0.4286    0.2857    0.2857
  band No.  band energies     occupation 
      1       1.7558      2.00000
      2       2.5690      2.00000
      3       3.1313      2.00000
      4       3.1313      2.00000
      5       4.1145      2.00000
      6       4.1145      2.00000
      7       4.2556      2.00000
      8       4.4386      2.00000
      9       4.5467      2.00000
     10       4.6312      2.00000
     11       4.6367      2.00000
     12       4.6367      2.00000
     13       4.7408      2.00000
     14       4.8660      2.00000
     15       4.9522      2.00000
     16       4.9522      2.00000
     17       5.8091      2.00000
     18       5.8267      2.00000
     19       5.9622      2.00000
     20       5.9622      2.00000
     21       5.9814      2.00000
     22       6.7222      2.00000
     23       9.0331     -0.00000
     24       9.0331     -0.00000
     25      12.0056      0.00000
     26      12.0056      0.00000
     27      14.7734      0.00000
     28      16.3935      0.00000
     29      22.5235      0.00000
     30      22.5235      0.00000
     31      23.9494      0.00000
     32      23.9494      0.00000
     33      25.5243      0.00000
     34      26.0268      0.00000
     35      27.9386      0.00000
     36      28.2454      0.00000
     37      28.4627      0.00000
     38      29.9165      0.00000
     39      29.9165      0.00000
     40      30.3664      0.00000
     41      34.6908      0.00000
     42      35.7752      0.00000
     43      35.7752      0.00000
     44      36.4576      0.00000
     45      37.7168      0.00000
     46      37.9381      0.00000
     47      38.4945      0.00000
     48      39.4241      0.00000

 k-point    19 :       0.4286    0.4286    0.2857
  band No.  band energies     occupation 
      1       2.2605      2.00000
      2       2.7241      2.00000
      3       2.7241      2.00000
      4       2.9017      2.00000
      5       4.3214      2.00000
      6       4.4008      2.00000
      7       4.4008      2.00000
      8       4.5832      2.00000
      9       4.6742      2.00000
     10       4.7454      2.00000
     11       4.7454      2.00000
     12       4.7814      2.00000
     13       4.8332      2.00000
     14       4.8493      2.00000
     15       4.8493      2.00000
     16       4.9058      2.00000
     17       5.7503      2.00000
     18       5.9143      2.00000
     19       5.9143      2.00000
     20       5.9195      2.00000
     21       6.2644      2.00000
     22       7.3088      2.06285
     23       7.3088      2.06285
     24       8.2933     -0.00000
     25      11.8039      0.00000
     26      12.9423      0.00000
     27      12.9423      0.00000
     28      14.4344      0.00000
     29      23.5638      0.00000
     30      24.9427      0.00000
     31      24.9427      0.00000
     32      26.4546      0.00000
     33      26.6265      0.00000
     34      26.6265      0.00000
     35      27.3284      0.00000
     36      28.5906      0.00000
     37      29.7850      0.00000
     38      30.1265      0.00000
     39      30.1265      0.00000
     40      30.5074      0.00000
     41      33.4134      0.00000
     42      34.4705      0.00000
     43      34.4705      0.00000
     44      35.1495      0.00000
     45      36.1219      0.00000
     46      36.9800      0.00000
     47      37.4681      0.00000
     48      37.4681      0.00000

 k-point    20 :       0.4286    0.4286    0.4286
  band No.  band energies     occupation 
      1       2.4173      2.00000
      2       2.6235      2.00000
      3       2.6235      2.00000
      4       2.6235      2.00000
      5       4.4991      2.00000
      6       4.4991      2.00000
      7       4.4991      2.00000
      8       4.5873      2.00000
      9       4.5873      2.00000
     10       4.6256      2.00000
     11       4.6256      2.00000
     12       4.6256      2.00000
     13       5.4310      2.00000
     14       5.4310      2.00000
     15       5.4310      2.00000
     16       5.8448      2.00000
     17       5.9373      2.00000
     18       5.9373      2.00000
     19       5.9975      2.00000
     20       5.9975      2.00000
     21       5.9975      2.00000
     22       7.2149      2.01513
     23       7.2149      2.01513
     24       7.2149      2.01513
     25      11.6226      0.00000
     26      11.6226      0.00000
     27      11.6226      0.00000
     28      12.6593      0.00000
     29      27.2727      0.00000
     30      27.2727      0.00000
     31      27.2727      0.00000
     32      28.4481      0.00000
     33      28.4481      0.00000
     34      28.4481      0.00000
     35      28.8988      0.00000
     36      28.9802      0.00000
     37      28.9802      0.00000
     38      28.9802      0.00000
     39      29.8071      0.00000
     40      29.8071      0.00000
     41      33.0892      0.00000
     42      33.0892      0.00000
     43      34.2895      0.00000
     44      34.2895      0.00000
     45      34.2895      0.00000
     46      34.6017      0.00000
     47      34.6017      0.00000
     48      34.6017      0.00000


--------------------------------------------------------------------------------------------------------


 soft charge-density along one line, spin component           1
         0         1         2         3         4         5         6         7         8         9
 total charge-density along one line
 
 pseudopotential strength for first ion, spin component:           1
 -2.881   0.000   0.000   0.000   0.000  -4.732  -0.000  -0.000
  0.000  -2.881   0.000  -0.000  -0.000  -0.000  -4.732  -0.000
  0.000   0.000  -2.864  -0.000   0.000  -0.000  -0.000  -4.744
  0.000  -0.000  -0.000  -2.881  -0.000  -0.000   0.000   0.000
  0.000  -0.000   0.000  -0.000  -2.864  -0.000   0.000  -0.000
 -4.732  -0.000  -0.000  -0.000  -0.000  10.294  -0.000   0.000
 -0.000  -4.732  -0.000   0.000   0.000  -0.000  10.294   0.000
 -0.000  -0.000  -4.744   0.000  -0.000   0.000   0.000  10.303
 -0.000   0.000   0.000  -4.732   0.000   0.000  -0.000  -0.000
 -0.000   0.000  -0.000   0.000  -4.744   0.000  -0.000   0.000
  0.000  -0.000   0.000   0.000   0.000   0.000  -0.000  -0.000
  0.000  -0.000   0.000   0.000   0.000   0.000  -0.000  -0.000
  0.000  -0.000   0.000   0.000   0.000   0.000  -0.000   0.000
  0.000  -0.000  -0.000   0.000  -0.000   0.000   0.000   0.000
 -0.000   0.000   0.000  -0.000  -0.000   0.000   0.000   0.000
 -0.000  -0.000   0.000  -0.000   0.000   0.000  -0.000   0.000
 -0.000  -0.000  -0.000   0.000   0.000   0.000   0.000   0.000
 -0.000  -0.000   0.000  -0.000  -0.000   0.000   0.000   0.000
 total augmentation occupancy for first ion, spin component:           1
  1.907  -0.000  -0.000   0.000   0.000  -0.014   0.000  -0.000  -0.000  -0.000  -0.000   0.000  -0.000   0.000   0.000  -0.000
 -0.000   1.907  -0.000   0.000  -0.000  -0.000  -0.014  -0.000   0.000  -0.000  -0.000  -0.000   0.000   0.000  -0.000  -0.000
  0.000   0.000   1.927   0.000   0.000   0.000  -0.000  -0.033  -0.000  -0.000   0.000  -0.000   0.000   0.000  -0.000   0.000
 -0.000   0.000  -0.000   1.907   0.000   0.000  -0.000  -0.000  -0.014   0.000  -0.000  -0.000   0.000   0.000   0.000  -0.000
 -0.000  -0.000  -0.000   0.000   1.927   0.000  -0.000   0.000  -0.000  -0.033   0.000   0.000   0.000   0.000   0.000   0.000
 -0.014   0.000  -0.000   0.000   0.000   0.017  -0.000   0.000  -0.000  -0.000  -0.000   0.000  -0.000  -0.000  -0.000   0.000
 -0.000  -0.014  -0.000   0.000   0.000  -0.000   0.017  -0.000  -0.000  -0.000   0.000  -0.000  -0.000   0.000  -0.000  -0.000
 -0.000   0.000  -0.033   0.000   0.000   0.000   0.000   0.016   0.000   0.000   0.000  -0.000   0.000   0.000   0.000  -0.000
  0.000  -0.000  -0.000  -0.014  -0.000  -0.000  -0.000   0.000   0.017   0.000   0.000  -0.000  -0.000   0.000  -0.000  -0.000
 -0.000  -0.000  -0.000   0.000  -0.033  -0.000  -0.000   0.000   0.000   0.016  -0.000  -0.000   0.000   0.000   0.000   0.000
  0.000   0.000  -0.000   0.000   0.000  -0.000  -0.000   0.000   0.000  -0.000   1.807  -0.177   0.000   0.000   0.000   0.000
  0.000   0.000  -0.000   0.000   0.000  -0.000   0.000  -0.000  -0.000   0.000  -0.177   0.023   0.000   0.000   0.000  -0.000
  0.000   0.000   0.000   0.000  -0.000  -0.000  -0.000  -0.000   0.000  -0.000   0.000   0.000   0.242  -0.000   0.000  -0.016
  0.000   0.000   0.000   0.000   0.000   0.000   0.000   0.000  -0.000   0.000   0.000   0.000   0.000   0.242  -0.000   0.000
  0.000   0.000  -0.000   0.000   0.000   0.000   0.000   0.000  -0.000  -0.000   0.000   0.000  -0.000   0.000   0.242   0.000
  0.000   0.000   0.000  -0.000  -0.000   0.000   0.000   0.000   0.000   0.000   0.000   0.000  -0.016   0.000   0.000   0.001
  0.000   0.000   0.000   0.000   0.000   0.000   0.000  -0.000   0.000   0.000   0.000   0.000  -0.000  -0.016  -0.000  -0.000
  0.000   0.000   0.000   0.000   0.000  -0.000  -0.000   0.000  -0.000   0.000   0.000   0.000   0.000   0.000  -0.016  -0.000


------------------------ aborting loop because EDIFF is reached ----------------------------------------


    CHARGE:  cpu time    0.0050: real time    0.0050
    FORLOC:  cpu time    0.0001: real time    0.0002
    FORNL :  cpu time    0.0327: real time    0.0328
    STRESS:  cpu time    0.1013: real time    0.1014
    FORCOR:  cpu time    0.0025: real time    0.0025
    FORHAR:  cpu time    0.0006: real time    0.0006
    MIXING:  cpu time    0.0003: real time    0.0003
    OFIELD:  cpu time    0.0000: real time    0.0000

  FORCE on cell =-STRESS in cart. coord.  units (eV):
  Direction    XX          YY          ZZ          XY          YZ          ZX
  --------------------------------------------------------------------------------------
  Alpha Z   248.71994   248.71994   248.71994
  Ewald   -1475.26301 -1475.26301 -1475.26301    -0.00000     0.00000     0.00000
  Hartree   450.27583   450.27583   450.27583    -0.00000    -0.00000    -0.00000
  E(xc)    -257.39366  -257.39366  -257.39366    -0.00000     0.00000     0.00000
  Local     379.48008   379.48008   379.48008     0.00000    -0.00000     0.00000
  n-local   -78.53310   -86.38966   -88.02988     0.51444     2.38530     1.12344
  augment   379.44080   379.44080   379.44080     0.00000    -0.00000    -0.00000
  Kinetic   366.43833   359.00077   353.36045    -3.60930    -0.21396    -1.12585
  Fock        0.00000     0.00000     0.00000     0.00000     0.00000     0.00000
  -------------------------------------------------------------------------------------
  Total       0.54229     0.54229     0.54229    -0.00000    -0.00000    -0.00000
  in kB      18.46798    18.46798    18.46798    -0.00000    -0.00000    -0.00000
  external pressure =       18.47 kB  Pullay stress =        0.00 kB


 VOLUME and BASIS-vectors are now :
 -----------------------------------------------------------------------------
  energy-cutoff  :      400.00
  volume of cell :       47.05
      direct lattice vectors                 reciprocal lattice vectors
     3.610000000  0.000000000  0.000000000     0.277008310  0.000000000  0.000000000
     0.000000000  3.610000000  0.000000000     0.000000000  0.277008310  0.000000000
     0.000000000  0.000000000  3.610000000     0.000000000  0.000000000  0.277008310

  length of vectors
     3.610000000  3.610000000  3.610000000     0.277008310  0.277008310  0.277008310


 FORCES acting on ions
    electron-ion (+dipol)            ewald-force                    non-local-force                 convergence-correction
 -----------------------------------------------------------------------------------------------
   -.395E-13 0.225E-13 -.175E-12   0.108E-13 0.352E-14 0.349E-14   0.132E-22 0.132E-22 0.496E-22   0.661E-13 0.697E-13 -.396E-13
   -.388E-13 0.847E-12 0.636E-12   0.102E-13 0.558E-14 0.654E-14   -.331E-23 0.298E-22 0.265E-22   0.574E-13 0.551E-13 0.561E-13
   0.799E-12 0.170E-13 -.101E-11   -.885E-14 -.498E-14 0.641E-14   -.463E-22 0.296E-22 0.000E+00   -.461E-13 0.610E-13 0.705E-13
   0.791E-12 0.845E-12 0.762E-12   -.941E-14 -.292E-14 -.131E-13   -.662E-23 0.265E-22 0.199E-22   -.460E-13 0.671E-13 -.322E-13
 -----------------------------------------------------------------------------------------------
   0.151E-11 0.173E-11 0.210E-12   0.271E-14 0.120E-14 0.330E-14   -.430E-22 0.991E-22 0.960E-22   0.314E-13 0.253E-12 0.547E-13
 
 
 POSITION                                       TOTAL-FORCE (eV/Angst)
 -----------------------------------------------------------------------------------
      0.00000      0.00000      0.00000         0.000000     -0.000000      0.000000
      0.00000      1.80500      1.80500         0.000000     -0.000000     -0.000000
      1.80500      0.00000      1.80500         0.000000      0.000000     -0.000000
      1.80500      1.80500      0.00000        -0.000000     -0.000000      0.000000
 -----------------------------------------------------------------------------------
    total drift:                                0.000000      0.000000      0.000000


--------------------------------------------------------------------------------------------------------



  FREE ENERGIE OF THE ION-ELECTRON SYSTEM (eV)
  ---------------------------------------------------
  free  energy   TOTEN  =       -14.91766452 eV

  energy  without entropy=      -14.91809730  energy(sigma->0) =      -14.91780878
 


--------------------------------------------------------------------------------------------------------


    POTLOK:  cpu time    0.0048: real time    0.0048


--------------------------------------------------------------------------------------------------------


     LOOP+:  cpu time    3.8384: real time    3.8880
    4ORBIT:  cpu time    0.0000: real time    0.0000

 total amount of memory used by VASP on root node    33770. kBytes
========================================================================

   base      :      30000. kBytes
   nonl-proj :       2614. kBytes
   fftplans  :        113. kBytes
   grid      :        367. kBytes
   one-center:         62. kBytes
   wavefun   :        614. kBytes
 
  
  
 General timing and accounting informations for this job:
 ========================================================
  
                  Total CPU time used (sec):        4.389
                            User time (sec):        4.230
                          System time (sec):        0.159
                         Elapsed time (sec):        4.609
  
                   Maximum memory used (kb):       63668.
                   Average memory used (kb):           0.
  
                          Minor page faults:        14983
                          Major page faults:           15
                 Voluntary context switches:         1909
