<?xml version="1.0" encoding="ISO-8859-1"?>
<modeling>
 <generator>
  <i name="program" type="string">vasp </i>
  <i name="version" type="string">5.4.1  </i>
  <i name="subversion" type="string">05Feb16 (build Feb 08 2018 09:21:51) complex                          parallel </i>
  <i name="platform" type="string">LinuxIFC </i>
  <i name="date" type="string">2019 11 21 </i>
  <i name="time" type="string">13:18:32 </i>
 </generator>
 <incar>
  <i type="string" name="PREC">normal</i>
  <i name="ENCUT">    400.00000000</i>
  <i type="int" name="ISMEAR">     1</i>
  <i name="SIGMA">      0.10000000</i>
  <i type="logical" name="LWAVE"> F  </i>
  <i type="logical" name="LCHARG"> F  </i>
  <v type="int" name="KPOINT_BSE">    -1     0     0     0</v>
 </incar>
 <kpoints>
  <generation param="Monkhorst-Pack">
   <v type="int" name="divisions">       7        7        7 </v>
   <v name="usershift">      0.00000000       0.00000000       0.00000000 </v>
   <v name="genvec1">      0.14285714       0.00000000       0.00000000 </v>
   <v name="genvec2">      0.00000000       0.14285714       0.00000000 </v>
   <v name="genvec3">      0.00000000       0.00000000       0.14285714 </v>
   <v name="shift">      0.00000000       0.00000000       0.00000000 </v>
  </generation>
  <varray name="kpointlist" >
   <v>       0.00000000       0.00000000       0.00000000 </v>
   <v>       0.14285714       0.00000000       0.00000000 </v>
   <v>       0.28571429       0.00000000       0.00000000 </v>
   <v>       0.42857143       0.00000000       0.00000000 </v>
   <v>       0.14285714       0.14285714       0.00000000 </v>
   <v>       0.28571429       0.14285714       0.00000000 </v>
   <v>       0.42857143       0.14285714       0.00000000 </v>
   <v>       0.28571429       0.28571429       0.00000000 </v>
   <v>       0.42857143       0.28571429       0.00000000 </v>
   <v>       0.42857143       0.42857143       0.00000000 </v>
   <v>       0.14285714       0.14285714       0.14285714 </v>
   <v>       0.28571429       0.14285714       0.14285714 </v>
   <v>       0.42857143       0.14285714       0.14285714 </v>
   <v>       0.28571429       0.28571429       0.14285714 </v>
   <v>       0.42857143       0.28571429       0.14285714 </v>
   <v>       0.42857143       0.42857143       0.14285714 </v>
   <v>       0.28571429       0.28571429       0.28571429 </v>
   <v>       0.42857143       0.28571429       0.28571429 </v>
   <v>       0.42857143       0.42857143       0.28571429 </v>
   <v>       0.42857143       0.42857143       0.42857143 </v>
  </varray>
  <varray name="weights" >
   <v>       0.00291545 </v>
   <v>       0.01749271 </v>
   <v>       0.01749271 </v>
   <v>       0.01749271 </v>
   <v>       0.03498542 </v>
   <v>       0.06997085 </v>
   <v>       0.06997085 </v>
   <v>       0.03498542 </v>
   <v>       0.06997085 </v>
   <v>       0.03498542 </v>
   <v>       0.02332362 </v>
   <v>       0.06997085 </v>
   <v>       0.06997085 </v>
   <v>       0.06997085 </v>
   <v>       0.13994169 </v>
   <v>       0.06997085 </v>
   <v>       0.02332362 </v>
   <v>       0.06997085 </v>
   <v>       0.06997085 </v>
   <v>       0.02332362 </v>
  </varray>
 </kpoints>
 <parameters>
  <separator name="general" >
   <i type="string" name="SYSTEM">unknown system</i>
   <i type="logical" name="LCOMPAT"> F  </i>
  </separator>
  <separator name="electronic" >
   <i type="string" name="PREC">normal</i>
   <i name="ENMAX">    400.00000000</i>
   <i name="ENAUG">    586.98000000</i>
   <i name="EDIFF">      0.00010000</i>
   <i type="int" name="IALGO">    38</i>
   <i type="int" name="IWAVPR">    10</i>
   <i type="int" name="NBANDS">    48</i>
   <i name="NELECT">     44.00000000</i>
   <i type="int" name="TURBO">     0</i>
   <i type="int" name="IRESTART">     0</i>
   <i type="int" name="NREBOOT">     0</i>
   <i type="int" name="NMIN">     0</i>
   <i name="EREF">      0.00000000</i>
   <separator name="electronic smearing" >
    <i type="int" name="ISMEAR">     1</i>
    <i name="SIGMA">      0.10000000</i>
    <i name="KSPACING">      0.50000000</i>
    <i type="logical" name="KGAMMA"> T  </i>
   </separator>
   <separator name="electronic projectors" >
    <i type="logical" name="LREAL"> F  </i>
    <v name="ROPT">      0.00000000</v>
    <i type="int" name="LMAXPAW">  -100</i>
    <i type="int" name="LMAXMIX">     2</i>
    <i type="logical" name="NLSPLINE"> F  </i>
   </separator>
   <separator name="electronic startup" >
    <i type="int" name="ISTART">     0</i>
    <i type="int" name="ICHARG">     2</i>
    <i type="int" name="INIWAV">     1</i>
   </separator>
   <separator name="electronic spin" >
    <i type="int" name="ISPIN">     1</i>
    <i type="logical" name="LNONCOLLINEAR"> F  </i>
    <v name="MAGMOM">      1.00000000      1.00000000      1.00000000      1.00000000</v>
    <i name="NUPDOWN">     -1.00000000</i>
    <i type="logical" name="LSORBIT"> F  </i>
    <v name="SAXIS">      0.00000000      0.00000000      1.00000000</v>
    <i type="logical" name="LSPIRAL"> F  </i>
    <v name="QSPIRAL">      0.00000000      0.00000000      0.00000000</v>
    <i type="logical" name="LZEROZ"> F  </i>
   </separator>
   <separator name="electronic exchange-correlation" >
    <i type="logical" name="LASPH"> F  </i>
    <i type="logical" name="LMETAGGA"> F  </i>
   </separator>
   <separator name="electronic convergence" >
    <i type="int" name="NELM">    60</i>
    <i type="int" name="NELMDL">    -5</i>
    <i type="int" name="NELMIN">     2</i>
    <i name="ENINI">    400.00000000</i>
    <separator name="electronic convergence detail" >
     <i type="logical" name="LDIAG"> T  </i>
     <i type="logical" name="LSUBROT"> F  </i>
     <i name="WEIMIN">      0.00000000</i>
     <i name="EBREAK">      0.00000052</i>
     <i name="DEPER">      0.30000000</i>
     <i type="int" name="NRMM">     4</i>
     <i name="TIME">      0.40000000</i>
    </separator>
   </separator>
   <separator name="electronic mixer" >
    <i name="AMIX">      0.40000000</i>
    <i name="BMIX">      1.00000000</i>
    <i name="AMIN">      0.10000000</i>
    <i name="AMIX_MAG">      1.60000000</i>
    <i name="BMIX_MAG">      1.00000000</i>
    <separator name="electronic mixer details" >
     <i type="int" name="IMIX">     4</i>
     <i type="logical" name="MIXFIRST"> F  </i>
     <i type="int" name="MAXMIX">   -45</i>
     <i name="WC">    100.00000000</i>
     <i type="int" name="INIMIX">     1</i>
     <i type="int" name="MIXPRE">     1</i>
     <i type="int" name="MREMOVE">     5</i>
    </separator>
   </separator>
   <separator name="electronic dipolcorrection" >
    <i type="logical" name="LDIPOL"> F  </i>
    <i type="logical" name="LMONO"> F  </i>
    <i type="int" name="IDIPOL">     0</i>
    <i name="EPSILON">      1.00000000</i>
    <v name="DIPOL">   -100.00000000   -100.00000000   -100.00000000</v>
    <i name="EFIELD">      0.00000000</i>
   </separator>
  </separator>
  <separator name="grids" >
   <i type="int" name="NGX">    18</i>
   <i type="int" name="NGY">    18</i>
   <i type="int" name="NGZ">    18</i>
   <i type="int" name="NGXF">    36</i>
   <i type="int" name="NGYF">    36</i>
   <i type="int" name="NGZF">    36</i>
   <i type="logical" name="ADDGRID"> F  </i>
  </separator>
  <separator name="ionic" >
   <i type="int" name="NSW">     0</i>
   <i type="int" name="IBRION">    -1</i>
   <i type="int" name="ISIF">     2</i>
   <i name="PSTRESS">      0.00000000</i>
   <i name="EDIFFG">      0.00100000</i>
   <i type="int" name="NFREE">     0</i>
   <i name="POTIM">      0.50000000</i>
   <i name="SMASS">     -3.00000000</i>
   <i name="SCALEE">      1.00000000</i>
  </separator>
  <separator name="ionic md" >
   <i name="TEBEG">      0.00010000</i>
   <i name="TEEND">      0.00010000</i>
   <i type="int" name="NBLOCK">     1</i>
   <i type="int" name="KBLOCK">     1</i>
   <i type="int" name="NPACO">   256</i>
   <i name="APACO">     16.00000000</i>
  </separator>
  <separator name="symmetry" >
   <i type="int" name="ISYM">     2</i>
   <i name="SYMPREC">      0.00001000</i>
  </separator>
  <separator name="dos" >
   <i type="logical" name="LORBIT"> F  </i>
   <v name="RWIGS">     -1.00000000</v>
   <i type="int" name="NEDOS">   301</i>
   <i name="EMIN">     10.00000000</i>
   <i name="EMAX">    -10.00000000</i>
   <i name="EFERMI">      0.00000000</i>
  </separator>
  <separator name="writing" >
   <i type="int" name="NWRITE">     2</i>
   <i type="logical" name="LWAVE"> F  </i>
   <i type="logical" name="LCHARG"> F  </i>
   <i type="logical" name="LPARD"> F  </i>
   <i type="logical" name="LVTOT"> F  </i>
   <i type="logical" name="LVHAR"> F  </i>
   <i type="logical" name="LELF"> F  </i>
   <i type="logical" name="LOPTICS"> F  </i>
   <v name="STM">      0.00000000      0.00000000      0.00000000      0.00000000      0.00000000      0.00000000      0.00000000</v>
  </separator>
  <separator name="performance" >
   <i type="int" name="NPAR">    24</i>
   <i type="int" name="NSIM">     4</i>
   <i type="int" name="NBLK">    -1</i>
   <i type="logical" name="LPLANE"> T  </i>
   <i type="logical" name="LSCALAPACK"> F  </i>
   <i type="logical" name="LSCAAWARE"> F  </i>
   <i type="logical" name="LSCALU"> F  </i>
   <i type="logical" name="LASYNC"> F  </i>
   <i type="logical" name="LORBITALREAL"> F  </i>
  </separator>
  <separator name="miscellaneous" >
   <i type="int" name="IDIOT">     3</i>
   <i type="logical" name="LMUSIC"> F  </i>
   <v name="POMASS">     63.54600000</v>
   <v name="DARWINR">      0.00000000</v>
   <v name="DARWINV">      1.00000000</v>
   <i type="logical" name="LCORR"> T  </i>
  </separator>
  <i type="logical" name="GGA_COMPAT"> T  </i>
  <i type="logical" name="LBERRY"> F  </i>
  <i type="int" name="ICORELEVEL">     0</i>
  <i type="logical" name="LDAU"> F  </i>
  <i type="int" name="I_CONSTRAINED_M">     0</i>
  <separator name="electronic exchange-correlation" >
   <i type="string" name="GGA">--</i>
   <i type="int" name="VOSKOWN">     0</i>
   <i type="logical" name="LHFCALC"> F  </i>
   <i type="string" name="PRECFOCK"></i>
   <i type="logical" name="LSYMGRAD"> F  </i>
   <i type="logical" name="LHFONE"> F  </i>
   <i type="logical" name="LRHFCALC"> F  </i>
   <i type="logical" name="LTHOMAS"> F  </i>
   <i type="logical" name="LMODELHF"> F  </i>
   <i name="ENCUT4O">     -1.00000000</i>
   <i type="int" name="EXXOEP">     0</i>
   <i type="int" name="FOURORBIT">     0</i>
   <i name="AEXX">      0.00000000</i>
   <i name="HFALPHA">      0.00000000</i>
   <i name="MCALPHA">      0.00000000</i>
   <i name="ALDAX">      1.00000000</i>
   <i name="AGGAX">      1.00000000</i>
   <i name="ALDAC">      1.00000000</i>
   <i name="AGGAC">      1.00000000</i>
   <i type="int" name="NKREDX">     1</i>
   <i type="int" name="NKREDY">     1</i>
   <i type="int" name="NKREDZ">     1</i>
   <i type="logical" name="SHIFTRED"> F  </i>
   <i type="logical" name="ODDONLY"> F  </i>
   <i type="logical" name="EVENONLY"> F  </i>
   <i type="int" name="LMAXFOCK">     0</i>
   <i type="int" name="NMAXFOCKAE">     0</i>
   <i type="logical" name="LFOCKAEDFT"> F  </i>
   <i name="HFSCREEN">      0.00000000</i>
   <i name="HFSCREENC">      0.00000000</i>
   <i type="int" name="NBANDSGWLOW">     0</i>
  </separator>
  <separator name="vdW DFT" >
   <i type="logical" name="LUSE_VDW"> F  </i>
   <i name="Zab_VDW">     -0.84910000</i>
   <i name="PARAM1">      0.12340000</i>
   <i name="PARAM2">      1.00000000</i>
   <i name="PARAM3">      0.00000000</i>
  </separator>
  <separator name="model GW" >
   <i type="int" name="MODEL_GW">     0</i>
   <i name="MODEL_EPS0">      7.05688215</i>
   <i name="MODEL_ALPHA">      1.00000000</i>
  </separator>
  <separator name="linear response parameters" >
   <i type="logical" name="LEPSILON"> F  </i>
   <i type="logical" name="LRPA"> F  </i>
   <i type="logical" name="LNABLA"> F  </i>
   <i type="logical" name="LVEL"> F  </i>
   <i type="int" name="KINTER">     0</i>
   <i name="CSHIFT">      0.10000000</i>
   <i name="OMEGAMAX">     -1.00000000</i>
   <i name="DEG_THRESHOLD">      0.00200000</i>
  </separator>
  <separator name="orbital magnetization" >
   <i type="logical" name="NUCIND"> F  </i>
   <v name="MAGPOS">      0.00000000      0.00000000      0.00000000</v>
   <i type="logical" name="LNICSALL"> T  </i>
   <i type="logical" name="ORBITALMAG"> F  </i>
   <i type="logical" name="LMAGBLOCH"> F  </i>
   <i type="logical" name="LCHIMAG"> F  </i>
   <i type="logical" name="LGAUGE"> T  </i>
   <i type="int" name="MAGATOM">     0</i>
   <v name="MAGDIPOL">      0.00000000      0.00000000      0.00000000</v>
   <v name="AVECCONST">      0.00000000      0.00000000      0.00000000</v>
  </separator>
  <separator name="response functions" >
   <i type="logical" name="LADDER"> F  </i>
   <i type="logical" name="LFXC"> F  </i>
   <i type="logical" name="LHARTREE"> T  </i>
   <i type="int" name="IBSE">     0</i>
   <v type="int" name="KPOINT">    -1     0     0     0</v>
   <i type="logical" name="LTCTE"> F  </i>
   <i type="logical" name="LTETE"> F  </i>
   <i type="logical" name="LTRIPLET"> F  </i>
   <i type="logical" name="LFXCEPS"> F  </i>
   <i type="logical" name="LFXHEG"> F  </i>
   <i type="int" name="NATURALO">     0</i>
   <i type="logical" name="L2ORDER"> F  </i>
   <i type="logical" name="LUSEW"> F  </i>
   <i name="ENCUTGW">     -2.00000000</i>
   <i name="ENCUTGWSOFT">     -2.00000000</i>
   <i name="ENCUTLF">     -1.00000000</i>
   <i type="int" name="LMAXMP2">    -1</i>
   <i name="SCISSOR">      0.00000000</i>
   <i type="int" name="NOMEGA">     0</i>
   <i type="int" name="NOMEGAR">     0</i>
   <i type="int" name="NBANDSGW">    -1</i>
   <i type="int" name="NBANDSO">    -1</i>
   <i type="int" name="NBANDSV">    -1</i>
   <i type="int" name="NELM">     1</i>
   <i type="int" name="NELMHF">     1</i>
   <i type="int" name="DIM">     3</i>
   <i type="int" name="ANTIRES">     0</i>
   <i name="OMEGAMAX">    -30.00000000</i>
   <i name="OMEGAMIN">    -30.00000000</i>
   <i name="OMEGATL">   -200.00000000</i>
   <i type="int" name="OMEGAGRID">     0</i>
   <i name="CSHIFT">     -0.10000000</i>
   <i type="logical" name="SELFENERGY"> F  </i>
   <i type="logical" name="LSPECTRAL"> F  </i>
   <i type="logical" name="LSPECTRALGW"> F  </i>
   <i type="logical" name="LSINGLES"> F  </i>
   <i type="logical" name="LFERMIGW"> F  </i>
   <i type="logical" name="ODDONLYGW"> F  </i>
   <i type="logical" name="EVENONLYGW"> F  </i>
   <i type="int" name="NKREDLFX">     1</i>
   <i type="int" name="NKREDLFY">     1</i>
   <i type="int" name="NKREDLFZ">     1</i>
   <i type="int" name="MAXMEM">  1800</i>
   <i type="int" name="TELESCOPE">     0</i>
   <i type="int" name="TAUPAR">     1</i>
   <i type="int" name="OMEGAPAR">    -1</i>
   <i name="LAMBDA">      1.00000000</i>
  </separator>
  <separator name="External order field" >
   <i name="OFIELD_KAPPA">      0.00000000</i>
   <v name="OFIELD_K">      0.00000000      0.00000000      0.00000000</v>
   <i name="OFIELD_Q6_NEAR">      0.00000000</i>
   <i name="OFIELD_Q6_FAR">      0.00000000</i>
   <i name="OFIELD_A">      0.00000000</i>
  </separator>
 </parameters>
 <atominfo>
  <atoms>       4 </atoms>
  <types>       1 </types>
  <array name="atoms" >
   <dimension dim="1">ion</dimension>
   <field type="string">element</field>
   <field type="int">atomtype</field>
   <set>
    <rc><c>Cu</c><c>   1</c></rc>
    <rc><c>Cu</c><c>   1</c></rc>
    <rc><c>Cu</c><c>   1</c></rc>
    <rc><c>Cu</c><c>   1</c></rc>
   </set>
  </array>
  <array name="atomtypes" >
   <dimension dim="1">type</dimension>
   <field type="int">atomspertype</field>
   <field type="string">element</field>
   <field>mass</field>
   <field>valence</field>
   <field type="string">pseudopotential</field>
   <set>
    <rc><c>   4</c><c>Cu</c><c>     63.54600000</c><c>     11.00000000</c><c>  PAW_PBE Cu 22Jun2005                  </c></rc>
   </set>
  </array>
 </atominfo>
 <structure name="initialpos" >
  <crystal>
   <varray name="basis" >
    <v>       3.61000000       0.00000000       0.00000000 </v>
    <v>       0.00000000       3.61000000       0.00000000 </v>
    <v>       0.00000000       0.00000000       3.61000000 </v>
   </varray>
   <i name="volume">     47.04588100 </i>
   <varray name="rec_basis" >
    <v>       0.27700831       0.00000000       0.00000000 </v>
    <v>       0.00000000       0.27700831       0.00000000 </v>
    <v>       0.00000000       0.00000000       0.27700831 </v>
   </varray>
  </crystal>
  <varray name="positions" >
   <v>       0.00000000       0.00000000       0.00000000 </v>
   <v>       0.00000000       0.50000000       0.50000000 </v>
   <v>       0.50000000       0.00000000       0.50000000 </v>
   <v>       0.50000000       0.50000000       0.00000000 </v>
  </varray>
 </structure>
 <calculation>
  <scstep>
   <time name="dav">    0.36    0.36</time>
   <time name="total">    0.39    0.40</time>
   <energy>
    <i name="alphaZ">    248.71993771 </i>
    <i name="ewald">  -4425.78708566 </i>
    <i name="hartreedc">  -1444.32473403 </i>
    <i name="XCdc">    183.18686199 </i>
    <i name="pawpsdc">   4912.82663951 </i>
    <i name="pawaedc">  -5336.19386850 </i>
    <i name="eentropy">     -0.00145799 </i>
    <i name="bandstr">    457.69801441 </i>
    <i name="atom">   5563.83056080 </i>
    <i name="e_fr_energy">    159.95486824 </i>
    <i name="e_wo_entrp">    159.95632623 </i>
    <i name="e_0_energy">    159.95535424 </i>
   </energy>
  </scstep>
  <scstep>
   <time name="dav">    0.29    0.29</time>
   <time name="total">    0.29    0.29</time>
   <energy>
    <i name="e_fr_energy">    -13.34227089 </i>
    <i name="e_wo_entrp">    -13.34177765 </i>
    <i name="e_0_energy">    -13.34210648 </i>
   </energy>
  </scstep>
  <scstep>
   <time name="dav">    0.40    0.40</time>
   <time name="total">    0.40    0.40</time>
   <energy>
    <i name="e_fr_energy">    -18.48755343 </i>
    <i name="e_wo_entrp">    -18.48724876 </i>
    <i name="e_0_energy">    -18.48745187 </i>
   </energy>
  </scstep>
  <scstep>
   <time name="dav">    0.25    0.25</time>
   <time name="total">    0.25    0.25</time>
   <energy>
    <i name="e_fr_energy">    -18.52564842 </i>
    <i name="e_wo_entrp">    -18.52534906 </i>
    <i name="e_0_energy">    -18.52554863 </i>
   </energy>
  </scstep>
  <scstep>
   <time name="dav">    0.48    0.48</time>
   <time name="total">    0.55    0.56</time>
   <energy>
    <i name="e_fr_energy">    -18.52617068 </i>
    <i name="e_wo_entrp">    -18.52587137 </i>
    <i name="e_0_energy">    -18.52607091 </i>
   </energy>
  </scstep>
  <scstep>
   <time name="dav">    0.43    0.43</time>
   <time name="total">    0.44    0.44</time>
   <energy>
    <i name="e_fr_energy">    -16.38089122 </i>
    <i name="e_wo_entrp">    -16.37984312 </i>
    <i name="e_0_energy">    -16.38054186 </i>
   </energy>
  </scstep>
  <scstep>
   <time name="dav">    0.37    0.37</time>
   <time name="total">    0.38    0.38</time>
   <energy>
    <i name="e_fr_energy">    -14.96582233 </i>
    <i name="e_wo_entrp">    -14.96621394 </i>
    <i name="e_0_energy">    -14.96595287 </i>
   </energy>
  </scstep>
  <scstep>
   <time name="dav">    0.31    0.31</time>
   <time name="total">    0.32    0.33</time>
   <energy>
    <i name="e_fr_energy">    -14.92404029 </i>
    <i name="e_wo_entrp">    -14.92443798 </i>
    <i name="e_0_energy">    -14.92417285 </i>
   </energy>
  </scstep>
  <scstep>
   <time name="dav">    0.35    0.35</time>
   <time name="total">    0.36    0.36</time>
   <energy>
    <i name="e_fr_energy">    -14.91762492 </i>
    <i name="e_wo_entrp">    -14.91805836 </i>
    <i name="e_0_energy">    -14.91776940 </i>
   </energy>
  </scstep>
  <scstep>
   <time name="dav">    0.28    0.28</time>
   <time name="total">    0.29    0.29</time>
   <energy>
    <i name="alphaZ">    248.71993771 </i>
    <i name="ewald">  -4425.78708566 </i>
    <i name="hartreedc">  -1350.58370916 </i>
    <i name="XCdc">    178.73525730 </i>
    <i name="pawpsdc">   5273.07355685 </i>
    <i name="pawaedc">  -5704.71065308 </i>
    <i name="eentropy">      0.00043278 </i>
    <i name="bandstr">    201.80403794 </i>
    <i name="atom">   5563.83056080 </i>
    <i name="e_fr_energy">    -14.91766452 </i>
    <i name="e_wo_entrp">    -14.91809730 </i>
    <i name="e_0_energy">    -14.91780878 </i>
   </energy>
  </scstep>
  <structure>
   <crystal>
    <varray name="basis" >
     <v>       3.61000000       0.00000000       0.00000000 </v>
     <v>       0.00000000       3.61000000       0.00000000 </v>
     <v>       0.00000000       0.00000000       3.61000000 </v>
    </varray>
    <i name="volume">     47.04588100 </i>
    <varray name="rec_basis" >
     <v>       0.27700831       0.00000000       0.00000000 </v>
     <v>       0.00000000       0.27700831       0.00000000 </v>
     <v>       0.00000000       0.00000000       0.27700831 </v>
    </varray>
   </crystal>
   <varray name="positions" >
    <v>       0.00000000       0.00000000       0.00000000 </v>
    <v>       0.00000000       0.50000000       0.50000000 </v>
    <v>       0.50000000       0.00000000       0.50000000 </v>
    <v>       0.50000000       0.50000000       0.00000000 </v>
   </varray>
  </structure>
  <varray name="forces" >
   <v>       0.00000000      -0.00000000       0.00000000 </v>
   <v>       0.00000000      -0.00000000      -0.00000000 </v>
   <v>       0.00000000       0.00000000      -0.00000000 </v>
   <v>      -0.00000000      -0.00000000       0.00000000 </v>
  </varray>
  <varray name="stress" >
   <v>      18.46797810      -0.00000000      -0.00000000 </v>
   <v>      -0.00000000      18.46797810      -0.00000000 </v>
   <v>      -0.00000000      -0.00000000      18.46797810 </v>
  </varray>
  <energy>
   <i name="e_fr_energy">    -14.91766452 </i>
   <i name="e_wo_entrp">    -14.91780878 </i>
   <i name="e_0_energy">      0.00043278 </i>
  </energy>
  <time name="totalsc">    3.84    3.89</time>
  <eigenvalues>
   <array>
    <dimension dim="1">band</dimension>
    <dimension dim="2">kpoint</dimension>
    <dimension dim="3">spin</dimension>
    <field>eigene</field>
    <field>occ</field>
    <set>
     <set comment="spin 1">
      <set comment="kpoint 1">
       <r>   -1.7484    1.0000 </r>
       <r>    2.7340    1.0000 </r>
       <r>    2.7340    1.0000 </r>
       <r>    2.7340    1.0000 </r>
       <r>    3.1916    1.0000 </r>
       <r>    3.1916    1.0000 </r>
       <r>    3.1916    1.0000 </r>
       <r>    4.5947    1.0000 </r>
       <r>    4.5947    1.0000 </r>
       <r>    4.5947    1.0000 </r>
       <r>    5.4272    1.0000 </r>
       <r>    5.4272    1.0000 </r>
       <r>    5.9793    1.0000 </r>
       <r>    5.9793    1.0000 </r>
       <r>    5.9793    1.0000 </r>
       <r>    6.1348    1.0000 </r>
       <r>    6.1348    1.0000 </r>
       <r>    6.1348    1.0000 </r>
       <r>    6.1348    1.0000 </r>
       <r>    6.1348    1.0000 </r>
       <r>    6.1348    1.0000 </r>
       <r>    9.1299   -0.0000 </r>
       <r>    9.1299   -0.0000 </r>
       <r>    9.1299   -0.0000 </r>
       <r>   14.7775    0.0000 </r>
       <r>   14.7775    0.0000 </r>
       <r>   14.7775    0.0000 </r>
       <r>   20.7476    0.0000 </r>
       <r>   20.7476    0.0000 </r>
       <r>   20.7476    0.0000 </r>
       <r>   20.7476    0.0000 </r>
       <r>   20.7476    0.0000 </r>
       <r>   20.7476    0.0000 </r>
       <r>   25.2517    0.0000 </r>
       <r>   25.2517    0.0000 </r>
       <r>   25.2517    0.0000 </r>
       <r>   27.9604    0.0000 </r>
       <r>   27.9604    0.0000 </r>
       <r>   27.9604    0.0000 </r>
       <r>   30.2658    0.0000 </r>
       <r>   32.9379    0.0000 </r>
       <r>   32.9379    0.0000 </r>
       <r>   32.9379    0.0000 </r>
       <r>   35.4323    0.0000 </r>
       <r>   35.4323    0.0000 </r>
       <r>   35.4323    0.0000 </r>
       <r>   39.2042    0.0000 </r>
       <r>   44.0051    0.0000 </r>
      </set>
      <set comment="kpoint 2">
       <r>   -1.5002    1.0000 </r>
       <r>    2.7235    1.0000 </r>
       <r>    2.8479    1.0000 </r>
       <r>    2.8479    1.0000 </r>
       <r>    3.2574    1.0000 </r>
       <r>    3.2623    1.0000 </r>
       <r>    3.2623    1.0000 </r>
       <r>    4.5213    1.0000 </r>
       <r>    4.6528    1.0000 </r>
       <r>    4.6528    1.0000 </r>
       <r>    5.3605    1.0000 </r>
       <r>    5.4534    1.0000 </r>
       <r>    5.7432    1.0000 </r>
       <r>    5.7432    1.0000 </r>
       <r>    5.8937    1.0000 </r>
       <r>    5.8937    1.0000 </r>
       <r>    5.9513    1.0000 </r>
       <r>    6.0347    1.0000 </r>
       <r>    6.0347    1.0000 </r>
       <r>    6.1352    1.0000 </r>
       <r>    6.1352    1.0000 </r>
       <r>    7.8548   -0.0000 </r>
       <r>    9.7440   -0.0000 </r>
       <r>    9.7440   -0.0000 </r>
       <r>   14.8685    0.0000 </r>
       <r>   14.8685    0.0000 </r>
       <r>   16.5466    0.0000 </r>
       <r>   19.3684    0.0000 </r>
       <r>   19.3684    0.0000 </r>
       <r>   19.8151    0.0000 </r>
       <r>   19.8151    0.0000 </r>
       <r>   21.1117    0.0000 </r>
       <r>   21.1117    0.0000 </r>
       <r>   25.3573    0.0000 </r>
       <r>   26.9362    0.0000 </r>
       <r>   26.9362    0.0000 </r>
       <r>   28.0581    0.0000 </r>
       <r>   29.4362    0.0000 </r>
       <r>   29.4362    0.0000 </r>
       <r>   29.5087    0.0000 </r>
       <r>   30.9619    0.0000 </r>
       <r>   30.9619    0.0000 </r>
       <r>   31.9892    0.0000 </r>
       <r>   36.7177    0.0000 </r>
       <r>   37.5196    0.0000 </r>
       <r>   37.5196    0.0000 </r>
       <r>   38.9756    0.0000 </r>
       <r>   41.6632    0.0000 </r>
      </set>
      <set comment="kpoint 3">
       <r>   -0.7730    1.0000 </r>
       <r>    2.5241    1.0000 </r>
       <r>    3.1386    1.0000 </r>
       <r>    3.1386    1.0000 </r>
       <r>    3.4434    1.0000 </r>
       <r>    3.4767    1.0000 </r>
       <r>    3.4767    1.0000 </r>
       <r>    4.3172    1.0000 </r>
       <r>    4.8245    1.0000 </r>
       <r>    4.8245    1.0000 </r>
       <r>    5.0278    1.0000 </r>
       <r>    5.0278    1.0000 </r>
       <r>    5.1863    1.0000 </r>
       <r>    5.5283    1.0000 </r>
       <r>    5.6651    1.0000 </r>
       <r>    5.6651    1.0000 </r>
       <r>    5.7714    1.0000 </r>
       <r>    5.7714    1.0000 </r>
       <r>    5.8731    1.0000 </r>
       <r>    5.9920    1.0000 </r>
       <r>    6.1356    1.0000 </r>
       <r>    6.1356    1.0000 </r>
       <r>   11.1217    0.0000 </r>
       <r>   11.1217    0.0000 </r>
       <r>   15.1658    0.0000 </r>
       <r>   15.1658    0.0000 </r>
       <r>   17.1014    0.0000 </r>
       <r>   17.1014    0.0000 </r>
       <r>   18.1827    0.0000 </r>
       <r>   18.1827    0.0000 </r>
       <r>   20.0236    0.0000 </r>
       <r>   22.1596    0.0000 </r>
       <r>   22.1596    0.0000 </r>
       <r>   25.6826    0.0000 </r>
       <r>   28.2186    0.0000 </r>
       <r>   28.3121    0.0000 </r>
       <r>   28.3121    0.0000 </r>
       <r>   28.3989    0.0000 </r>
       <r>   30.1239    0.0000 </r>
       <r>   30.1239    0.0000 </r>
       <r>   30.1897    0.0000 </r>
       <r>   32.6492    0.0000 </r>
       <r>   32.6492    0.0000 </r>
       <r>   34.6907    0.0000 </r>
       <r>   39.5735    0.0000 </r>
       <r>   40.4610    0.0000 </r>
       <r>   40.4610    0.0000 </r>
       <r>   42.6877    0.0000 </r>
      </set>
      <set comment="kpoint 4">
       <r>    0.3618    1.0000 </r>
       <r>    1.6678    1.0000 </r>
       <r>    3.4277    1.0000 </r>
       <r>    3.4277    1.0000 </r>
       <r>    3.7174    1.0000 </r>
       <r>    3.8421    1.0000 </r>
       <r>    3.8421    1.0000 </r>
       <r>    4.0290    1.0000 </r>
       <r>    4.3639    1.0000 </r>
       <r>    4.3639    1.0000 </r>
       <r>    4.9972    1.0000 </r>
       <r>    5.0575    1.0000 </r>
       <r>    5.0950    1.0000 </r>
       <r>    5.0950    1.0000 </r>
       <r>    5.4254    1.0000 </r>
       <r>    5.4254    1.0000 </r>
       <r>    5.4300    1.0000 </r>
       <r>    5.4300    1.0000 </r>
       <r>    5.6381    1.0000 </r>
       <r>    5.7611    1.0000 </r>
       <r>    6.1360    1.0000 </r>
       <r>    6.1360    1.0000 </r>
       <r>   12.8746    0.0000 </r>
       <r>   12.8746    0.0000 </r>
       <r>   14.8881    0.0000 </r>
       <r>   14.8881    0.0000 </r>
       <r>   15.7171    0.0000 </r>
       <r>   15.7171    0.0000 </r>
       <r>   16.8213    0.0000 </r>
       <r>   16.8213    0.0000 </r>
       <r>   23.7861    0.0000 </r>
       <r>   23.7861    0.0000 </r>
       <r>   24.0147    0.0000 </r>
       <r>   25.8737    0.0000 </r>
       <r>   25.8737    0.0000 </r>
       <r>   26.2514    0.0000 </r>
       <r>   27.0936    0.0000 </r>
       <r>   27.7750    0.0000 </r>
       <r>   29.1543    0.0000 </r>
       <r>   30.9158    0.0000 </r>
       <r>   33.8869    0.0000 </r>
       <r>   33.8869    0.0000 </r>
       <r>   36.2548    0.0000 </r>
       <r>   36.2548    0.0000 </r>
       <r>   38.0954    0.0000 </r>
       <r>   38.0954    0.0000 </r>
       <r>   42.7761    0.0000 </r>
       <r>   42.7762    0.0000 </r>
      </set>
      <set comment="kpoint 5">
       <r>   -1.2552    1.0000 </r>
       <r>    2.8458    1.0000 </r>
       <r>    2.8458    1.0000 </r>
       <r>    2.9538    1.0000 </r>
       <r>    3.3241    1.0000 </r>
       <r>    3.3241    1.0000 </r>
       <r>    3.3253    1.0000 </r>
       <r>    4.4830    1.0000 </r>
       <r>    4.6797    1.0000 </r>
       <r>    4.6929    1.0000 </r>
       <r>    5.3450    1.0000 </r>
       <r>    5.4473    1.0000 </r>
       <r>    5.5099    1.0000 </r>
       <r>    5.5632    1.0000 </r>
       <r>    5.5632    1.0000 </r>
       <r>    5.8181    1.0000 </r>
       <r>    5.9006    1.0000 </r>
       <r>    5.9006    1.0000 </r>
       <r>    6.0341    1.0000 </r>
       <r>    6.0341    1.0000 </r>
       <r>    6.0694    1.0000 </r>
       <r>    8.4530   -0.0000 </r>
       <r>    8.4530   -0.0000 </r>
       <r>   10.2663    0.0000 </r>
       <r>   14.9565    0.0000 </r>
       <r>   16.6986    0.0000 </r>
       <r>   16.6986    0.0000 </r>
       <r>   17.0611    0.0000 </r>
       <r>   19.6877    0.0000 </r>
       <r>   19.6877    0.0000 </r>
       <r>   20.1361    0.0000 </r>
       <r>   20.1361    0.0000 </r>
       <r>   21.4545    0.0000 </r>
       <r>   26.4342    0.0000 </r>
       <r>   27.0910    0.0000 </r>
       <r>   27.0910    0.0000 </r>
       <r>   27.7770    0.0000 </r>
       <r>   28.7895    0.0000 </r>
       <r>   29.5596    0.0000 </r>
       <r>   29.5596    0.0000 </r>
       <r>   31.4639    0.0000 </r>
       <r>   32.0809    0.0000 </r>
       <r>   33.6376    0.0000 </r>
       <r>   35.6841    0.0000 </r>
       <r>   36.1019    0.0000 </r>
       <r>   39.5171    0.0000 </r>
       <r>   39.7454    0.0000 </r>
       <r>   41.1913    0.0000 </r>
      </set>
      <set comment="kpoint 6">
       <r>   -0.5383    1.0000 </r>
       <r>    2.6723    1.0000 </r>
       <r>    3.1616    1.0000 </r>
       <r>    3.2274    1.0000 </r>
       <r>    3.4992    1.0000 </r>
       <r>    3.5113    1.0000 </r>
       <r>    3.5264    1.0000 </r>
       <r>    4.3107    1.0000 </r>
       <r>    4.7949    1.0000 </r>
       <r>    4.8333    1.0000 </r>
       <r>    4.8573    1.0000 </r>
       <r>    4.9399    1.0000 </r>
       <r>    5.1304    1.0000 </r>
       <r>    5.2230    1.0000 </r>
       <r>    5.5420    1.0000 </r>
       <r>    5.6145    1.0000 </r>
       <r>    5.6775    1.0000 </r>
       <r>    5.7700    1.0000 </r>
       <r>    5.8080    1.0000 </r>
       <r>    6.0327    1.0000 </r>
       <r>    6.0358    1.0000 </r>
       <r>    6.7414    1.0000 </r>
       <r>    9.6345   -0.0000 </r>
       <r>   11.5359    0.0000 </r>
       <r>   14.6194    0.0000 </r>
       <r>   15.4055    0.0000 </r>
       <r>   17.1714    0.0000 </r>
       <r>   17.4063    0.0000 </r>
       <r>   18.4540    0.0000 </r>
       <r>   20.1776    0.0000 </r>
       <r>   20.5948    0.0000 </r>
       <r>   20.8408    0.0000 </r>
       <r>   21.0926    0.0000 </r>
       <r>   25.6379    0.0000 </r>
       <r>   26.3691    0.0000 </r>
       <r>   27.5689    0.0000 </r>
       <r>   28.4108    0.0000 </r>
       <r>   29.9724    0.0000 </r>
       <r>   30.3071    0.0000 </r>
       <r>   31.1552    0.0000 </r>
       <r>   32.1414    0.0000 </r>
       <r>   32.7418    0.0000 </r>
       <r>   34.9029    0.0000 </r>
       <r>   34.9199    0.0000 </r>
       <r>   37.6742    0.0000 </r>
       <r>   38.2356    0.0000 </r>
       <r>   41.5222    0.0000 </r>
       <r>   42.4546    0.0000 </r>
      </set>
      <set comment="kpoint 7">
       <r>    0.5765    1.0000 </r>
       <r>    1.8505    1.0000 </r>
       <r>    3.4929    1.0000 </r>
       <r>    3.5213    1.0000 </r>
       <r>    3.7560    1.0000 </r>
       <r>    3.7944    1.0000 </r>
       <r>    3.8686    1.0000 </r>
       <r>    4.0463    1.0000 </r>
       <r>    4.2398    1.0000 </r>
       <r>    4.3500    1.0000 </r>
       <r>    4.7733    1.0000 </r>
       <r>    4.8024    1.0000 </r>
       <r>    5.0972    1.0000 </r>
       <r>    5.2431    1.0000 </r>
       <r>    5.4052    1.0000 </r>
       <r>    5.4293    1.0000 </r>
       <r>    5.4333    1.0000 </r>
       <r>    5.5400    1.0000 </r>
       <r>    5.7068    1.0000 </r>
       <r>    5.9654    1.0000 </r>
       <r>    6.0299    1.0000 </r>
       <r>    6.0307    1.0000 </r>
       <r>   11.0570    0.0000 </r>
       <r>   12.7131    0.0000 </r>
       <r>   13.2259    0.0000 </r>
       <r>   15.2056    0.0000 </r>
       <r>   15.9611    0.0000 </r>
       <r>   16.9564    0.0000 </r>
       <r>   18.0922    0.0000 </r>
       <r>   19.3487    0.0000 </r>
       <r>   21.9689    0.0000 </r>
       <r>   22.4053    0.0000 </r>
       <r>   23.6810    0.0000 </r>
       <r>   24.2261    0.0000 </r>
       <r>   24.3529    0.0000 </r>
       <r>   28.4044    0.0000 </r>
       <r>   28.5864    0.0000 </r>
       <r>   29.6264    0.0000 </r>
       <r>   30.7961    0.0000 </r>
       <r>   31.9647    0.0000 </r>
       <r>   32.2614    0.0000 </r>
       <r>   34.0827    0.0000 </r>
       <r>   35.1907    0.0000 </r>
       <r>   38.2979    0.0000 </r>
       <r>   38.3143    0.0000 </r>
       <r>   38.5775    0.0000 </r>
       <r>   40.2597    0.0000 </r>
       <r>   41.1191    0.0000 </r>
      </set>
      <set comment="kpoint 8">
       <r>    0.1442    1.0000 </r>
       <r>    3.0624    1.0000 </r>
       <r>    3.0624    1.0000 </r>
       <r>    3.4410    1.0000 </r>
       <r>    3.6262    1.0000 </r>
       <r>    3.6655    1.0000 </r>
       <r>    3.6655    1.0000 </r>
       <r>    4.2431    1.0000 </r>
       <r>    4.5254    1.0000 </r>
       <r>    4.5254    1.0000 </r>
       <r>    4.6713    1.0000 </r>
       <r>    4.7561    1.0000 </r>
       <r>    4.9157    1.0000 </r>
       <r>    5.1763    1.0000 </r>
       <r>    5.4683    1.0000 </r>
       <r>    5.6094    1.0000 </r>
       <r>    5.6094    1.0000 </r>
       <r>    5.7041    1.0000 </r>
       <r>    5.7675    1.0000 </r>
       <r>    5.7675    1.0000 </r>
       <r>    5.8795    1.0000 </r>
       <r>    7.7135   -0.0001 </r>
       <r>    7.7135   -0.0001 </r>
       <r>   12.2749    0.0000 </r>
       <r>   12.6347    0.0000 </r>
       <r>   15.7399    0.0000 </r>
       <r>   18.2739    0.0000 </r>
       <r>   18.2739    0.0000 </r>
       <r>   19.1668    0.0000 </r>
       <r>   19.1668    0.0000 </r>
       <r>   20.8236    0.0000 </r>
       <r>   20.8236    0.0000 </r>
       <r>   23.3174    0.0000 </r>
       <r>   23.4304    0.0000 </r>
       <r>   24.0209    0.0000 </r>
       <r>   27.1813    0.0000 </r>
       <r>   30.8602    0.0000 </r>
       <r>   30.8602    0.0000 </r>
       <r>   33.0336    0.0000 </r>
       <r>   33.0336    0.0000 </r>
       <r>   33.4139    0.0000 </r>
       <r>   33.6049    0.0000 </r>
       <r>   34.4788    0.0000 </r>
       <r>   35.7252    0.0000 </r>
       <r>   36.4751    0.0000 </r>
       <r>   38.4983    0.0000 </r>
       <r>   39.6789    0.0000 </r>
       <r>   39.6789    0.0000 </r>
      </set>
      <set comment="kpoint 9">
       <r>    1.1886    1.0000 </r>
       <r>    2.3470    1.0000 </r>
       <r>    3.5097    1.0000 </r>
       <r>    3.6618    1.0000 </r>
       <r>    3.7702    1.0000 </r>
       <r>    3.8650    1.0000 </r>
       <r>    3.9384    1.0000 </r>
       <r>    4.0616    1.0000 </r>
       <r>    4.0780    1.0000 </r>
       <r>    4.2964    1.0000 </r>
       <r>    4.4583    1.0000 </r>
       <r>    4.6426    1.0000 </r>
       <r>    5.1278    1.0000 </r>
       <r>    5.1820    1.0000 </r>
       <r>    5.3154    1.0000 </r>
       <r>    5.3760    1.0000 </r>
       <r>    5.3937    1.0000 </r>
       <r>    5.4352    1.0000 </r>
       <r>    5.7709    1.0000 </r>
       <r>    5.7975    1.0000 </r>
       <r>    6.0195    1.0000 </r>
       <r>    6.5589    1.0000 </r>
       <r>    8.8726   -0.0000 </r>
       <r>   10.3511    0.0000 </r>
       <r>   14.2001    0.0000 </r>
       <r>   16.1039    0.0000 </r>
       <r>   16.4627    0.0000 </r>
       <r>   17.6002    0.0000 </r>
       <r>   19.6028    0.0000 </r>
       <r>   20.3852    0.0000 </r>
       <r>   21.3011    0.0000 </r>
       <r>   21.7622    0.0000 </r>
       <r>   22.0084    0.0000 </r>
       <r>   23.0066    0.0000 </r>
       <r>   24.9429    0.0000 </r>
       <r>   29.3711    0.0000 </r>
       <r>   29.6766    0.0000 </r>
       <r>   31.7828    0.0000 </r>
       <r>   33.0068    0.0000 </r>
       <r>   33.3621    0.0000 </r>
       <r>   33.5267    0.0000 </r>
       <r>   34.0613    0.0000 </r>
       <r>   34.6683    0.0000 </r>
       <r>   36.8176    0.0000 </r>
       <r>   38.0671    0.0000 </r>
       <r>   38.7379    0.0000 </r>
       <r>   38.9043    0.0000 </r>
       <r>   39.0714    0.0000 </r>
      </set>
      <set comment="kpoint 10">
       <r>    2.0764    1.0000 </r>
       <r>    2.9708    1.0000 </r>
       <r>    2.9708    1.0000 </r>
       <r>    3.4300    1.0000 </r>
       <r>    4.0226    1.0000 </r>
       <r>    4.0226    1.0000 </r>
       <r>    4.0550    1.0000 </r>
       <r>    4.0783    1.0000 </r>
       <r>    4.1831    1.0000 </r>
       <r>    4.2534    1.0000 </r>
       <r>    4.2534    1.0000 </r>
       <r>    4.5069    1.0000 </r>
       <r>    5.0785    1.0000 </r>
       <r>    5.1737    1.0000 </r>
       <r>    5.1959    1.0000 </r>
       <r>    5.1959    1.0000 </r>
       <r>    5.2438    1.0000 </r>
       <r>    5.4743    1.0000 </r>
       <r>    5.4743    1.0000 </r>
       <r>    5.5884    1.0000 </r>
       <r>    6.5259    1.0000 </r>
       <r>    7.3661    0.8727 </r>
       <r>    7.3661    0.8727 </r>
       <r>    8.5627   -0.0000 </r>
       <r>   15.6514    0.0000 </r>
       <r>   17.3397    0.0000 </r>
       <r>   17.4730    0.0000 </r>
       <r>   17.4730    0.0000 </r>
       <r>   18.6443    0.0000 </r>
       <r>   18.6443    0.0000 </r>
       <r>   19.2222    0.0000 </r>
       <r>   20.1152    0.0000 </r>
       <r>   25.8916    0.0000 </r>
       <r>   25.8916    0.0000 </r>
       <r>   26.3973    0.0000 </r>
       <r>   28.4318    0.0000 </r>
       <r>   30.1365    0.0000 </r>
       <r>   30.5200    0.0000 </r>
       <r>   31.6886    0.0000 </r>
       <r>   31.6886    0.0000 </r>
       <r>   35.6178    0.0000 </r>
       <r>   35.6178    0.0000 </r>
       <r>   36.2230    0.0000 </r>
       <r>   37.9006    0.0000 </r>
       <r>   38.7628    0.0000 </r>
       <r>   39.2318    0.0000 </r>
       <r>   39.2318    0.0000 </r>
       <r>   39.7213    0.0000 </r>
      </set>
      <set comment="kpoint 11">
       <r>   -1.0141    1.0000 </r>
       <r>    2.9557    1.0000 </r>
       <r>    2.9557    1.0000 </r>
       <r>    2.9557    1.0000 </r>
       <r>    3.3848    1.0000 </r>
       <r>    3.3848    1.0000 </r>
       <r>    3.3848    1.0000 </r>
       <r>    4.4554    1.0000 </r>
       <r>    4.7087    1.0000 </r>
       <r>    4.7087    1.0000 </r>
       <r>    5.3509    1.0000 </r>
       <r>    5.3509    1.0000 </r>
       <r>    5.3509    1.0000 </r>
       <r>    5.3953    1.0000 </r>
       <r>    5.3953    1.0000 </r>
       <r>    5.7105    1.0000 </r>
       <r>    5.7105    1.0000 </r>
       <r>    5.7105    1.0000 </r>
       <r>    6.0681    1.0000 </r>
       <r>    6.0681    1.0000 </r>
       <r>    6.0681    1.0000 </r>
       <r>    8.9076   -0.0000 </r>
       <r>    8.9076   -0.0000 </r>
       <r>    8.9076   -0.0000 </r>
       <r>   16.8317    0.0000 </r>
       <r>   16.8317    0.0000 </r>
       <r>   16.8317    0.0000 </r>
       <r>   17.3805    0.0000 </r>
       <r>   17.3805    0.0000 </r>
       <r>   17.3805    0.0000 </r>
       <r>   21.7992    0.0000 </r>
       <r>   21.7992    0.0000 </r>
       <r>   21.7992    0.0000 </r>
       <r>   25.5607    0.0000 </r>
       <r>   26.5450    0.0000 </r>
       <r>   26.5450    0.0000 </r>
       <r>   26.5450    0.0000 </r>
       <r>   30.8201    0.0000 </r>
       <r>   31.5247    0.0000 </r>
       <r>   31.5247    0.0000 </r>
       <r>   31.6148    0.0000 </r>
       <r>   31.6148    0.0000 </r>
       <r>   31.6148    0.0000 </r>
       <r>   37.2939    0.0000 </r>
       <r>   37.6462    0.0000 </r>
       <r>   37.6462    0.0000 </r>
       <r>   40.1698    0.0000 </r>
       <r>   40.1698    0.0000 </r>
      </set>
      <set comment="kpoint 12">
       <r>   -0.3101    1.0000 </r>
       <r>    2.7955    1.0000 </r>
       <r>    3.2381    1.0000 </r>
       <r>    3.2381    1.0000 </r>
       <r>    3.5559    1.0000 </r>
       <r>    3.5623    1.0000 </r>
       <r>    3.5623    1.0000 </r>
       <r>    4.3138    1.0000 </r>
       <r>    4.7848    1.0000 </r>
       <r>    4.8030    1.0000 </r>
       <r>    4.8038    1.0000 </r>
       <r>    4.8038    1.0000 </r>
       <r>    4.9389    1.0000 </r>
       <r>    5.3028    1.0000 </r>
       <r>    5.4751    1.0000 </r>
       <r>    5.5282    1.0000 </r>
       <r>    5.5415    1.0000 </r>
       <r>    5.5415    1.0000 </r>
       <r>    6.0095    1.0000 </r>
       <r>    6.0238    1.0000 </r>
       <r>    6.0238    1.0000 </r>
       <r>    7.0852    1.0000 </r>
       <r>    9.9452   -0.0000 </r>
       <r>    9.9452   -0.0000 </r>
       <r>   15.0279    0.0000 </r>
       <r>   15.0279    0.0000 </r>
       <r>   17.3772    0.0000 </r>
       <r>   17.3772    0.0000 </r>
       <r>   18.1957    0.0000 </r>
       <r>   20.4118    0.0000 </r>
       <r>   21.1233    0.0000 </r>
       <r>   21.1233    0.0000 </r>
       <r>   22.7994    0.0000 </r>
       <r>   23.2210    0.0000 </r>
       <r>   26.9002    0.0000 </r>
       <r>   28.5491    0.0000 </r>
       <r>   28.5491    0.0000 </r>
       <r>   28.8442    0.0000 </r>
       <r>   29.4069    0.0000 </r>
       <r>   32.0927    0.0000 </r>
       <r>   33.7650    0.0000 </r>
       <r>   34.1484    0.0000 </r>
       <r>   35.0443    0.0000 </r>
       <r>   35.0443    0.0000 </r>
       <r>   37.5506    0.0000 </r>
       <r>   39.3559    0.0000 </r>
       <r>   39.8987    0.0000 </r>
       <r>   41.6975    0.0000 </r>
      </set>
      <set comment="kpoint 13">
       <r>    0.7786    1.0000 </r>
       <r>    2.0094    1.0000 </r>
       <r>    3.5693    1.0000 </r>
       <r>    3.5693    1.0000 </r>
       <r>    3.7626    1.0000 </r>
       <r>    3.7626    1.0000 </r>
       <r>    3.8044    1.0000 </r>
       <r>    4.0761    1.0000 </r>
       <r>    4.3236    1.0000 </r>
       <r>    4.3236    1.0000 </r>
       <r>    4.6715    1.0000 </r>
       <r>    4.7467    1.0000 </r>
       <r>    4.9723    1.0000 </r>
       <r>    5.2082    1.0000 </r>
       <r>    5.3598    1.0000 </r>
       <r>    5.3598    1.0000 </r>
       <r>    5.4479    1.0000 </r>
       <r>    5.7040    1.0000 </r>
       <r>    5.8782    1.0000 </r>
       <r>    5.9879    1.0000 </r>
       <r>    5.9888    1.0000 </r>
       <r>    5.9888    1.0000 </r>
       <r>   11.2201    0.0000 </r>
       <r>   11.2201    0.0000 </r>
       <r>   13.1489    0.0000 </r>
       <r>   13.1489    0.0000 </r>
       <r>   18.2633    0.0000 </r>
       <r>   18.2633    0.0000 </r>
       <r>   19.5082    0.0000 </r>
       <r>   19.5910    0.0000 </r>
       <r>   19.5910    0.0000 </r>
       <r>   21.1964    0.0000 </r>
       <r>   24.3725    0.0000 </r>
       <r>   24.4371    0.0000 </r>
       <r>   26.4196    0.0000 </r>
       <r>   27.6047    0.0000 </r>
       <r>   27.8034    0.0000 </r>
       <r>   29.6131    0.0000 </r>
       <r>   32.0051    0.0000 </r>
       <r>   32.0051    0.0000 </r>
       <r>   32.9491    0.0000 </r>
       <r>   34.1427    0.0000 </r>
       <r>   36.6378    0.0000 </r>
       <r>   36.6378    0.0000 </r>
       <r>   38.9452    0.0000 </r>
       <r>   39.5597    0.0000 </r>
       <r>   39.5597    0.0000 </r>
       <r>   40.7211    0.0000 </r>
      </set>
      <set comment="kpoint 14">
       <r>    0.3500    1.0000 </r>
       <r>    3.0948    1.0000 </r>
       <r>    3.0948    1.0000 </r>
       <r>    3.3890    1.0000 </r>
       <r>    3.6985    1.0000 </r>
       <r>    3.7308    1.0000 </r>
       <r>    3.7308    1.0000 </r>
       <r>    4.2809    1.0000 </r>
       <r>    4.5371    1.0000 </r>
       <r>    4.5371    1.0000 </r>
       <r>    4.6284    1.0000 </r>
       <r>    4.7506    1.0000 </r>
       <r>    4.8143    1.0000 </r>
       <r>    5.3256    1.0000 </r>
       <r>    5.3347    1.0000 </r>
       <r>    5.3347    1.0000 </r>
       <r>    5.3376    1.0000 </r>
       <r>    5.6604    1.0000 </r>
       <r>    5.9578    1.0000 </r>
       <r>    5.9623    1.0000 </r>
       <r>    5.9623    1.0000 </r>
       <r>    7.8966   -0.0000 </r>
       <r>    7.8966   -0.0000 </r>
       <r>   10.6560    0.0000 </r>
       <r>   12.7883    0.0000 </r>
       <r>   15.8644    0.0000 </r>
       <r>   15.8644    0.0000 </r>
       <r>   17.9274    0.0000 </r>
       <r>   20.8287    0.0000 </r>
       <r>   20.9561    0.0000 </r>
       <r>   20.9561    0.0000 </r>
       <r>   21.9688    0.0000 </r>
       <r>   21.9688    0.0000 </r>
       <r>   23.7276    0.0000 </r>
       <r>   26.8561    0.0000 </r>
       <r>   27.2719    0.0000 </r>
       <r>   28.9861    0.0000 </r>
       <r>   28.9861    0.0000 </r>
       <r>   31.6388    0.0000 </r>
       <r>   32.9990    0.0000 </r>
       <r>   34.7137    0.0000 </r>
       <r>   35.2834    0.0000 </r>
       <r>   35.4079    0.0000 </r>
       <r>   35.4079    0.0000 </r>
       <r>   38.5945    0.0000 </r>
       <r>   39.4974    0.0000 </r>
       <r>   39.8331    0.0000 </r>
       <r>   39.8331    0.0000 </r>
      </set>
      <set comment="kpoint 15">
       <r>    1.3454    1.0000 </r>
       <r>    2.4185    1.0000 </r>
       <r>    3.3864    1.0000 </r>
       <r>    3.4833    1.0000 </r>
       <r>    3.8653    1.0000 </r>
       <r>    3.9220    1.0000 </r>
       <r>    3.9635    1.0000 </r>
       <r>    4.1595    1.0000 </r>
       <r>    4.3075    1.0000 </r>
       <r>    4.4251    1.0000 </r>
       <r>    4.4786    1.0000 </r>
       <r>    4.6436    1.0000 </r>
       <r>    4.8988    1.0000 </r>
       <r>    5.0868    1.0000 </r>
       <r>    5.1815    1.0000 </r>
       <r>    5.2059    1.0000 </r>
       <r>    5.4725    1.0000 </r>
       <r>    5.7786    1.0000 </r>
       <r>    5.8790    1.0000 </r>
       <r>    5.8795    1.0000 </r>
       <r>    5.9632    1.0000 </r>
       <r>    6.5598    1.0000 </r>
       <r>    8.9740   -0.0000 </r>
       <r>   10.2870    0.0000 </r>
       <r>   12.4847    0.0000 </r>
       <r>   13.9284    0.0000 </r>
       <r>   17.1370    0.0000 </r>
       <r>   18.7983    0.0000 </r>
       <r>   18.8884    0.0000 </r>
       <r>   20.2574    0.0000 </r>
       <r>   21.9761    0.0000 </r>
       <r>   23.1789    0.0000 </r>
       <r>   23.2377    0.0000 </r>
       <r>   24.8606    0.0000 </r>
       <r>   25.1259    0.0000 </r>
       <r>   29.3215    0.0000 </r>
       <r>   29.7398    0.0000 </r>
       <r>   29.7892    0.0000 </r>
       <r>   31.1656    0.0000 </r>
       <r>   31.9346    0.0000 </r>
       <r>   35.1873    0.0000 </r>
       <r>   35.7044    0.0000 </r>
       <r>   35.8793    0.0000 </r>
       <r>   36.3714    0.0000 </r>
       <r>   37.5735    0.0000 </r>
       <r>   38.1932    0.0000 </r>
       <r>   39.3560    0.0000 </r>
       <r>   40.2165    0.0000 </r>
      </set>
      <set comment="kpoint 16">
       <r>    2.1331    1.0000 </r>
       <r>    2.8803    1.0000 </r>
       <r>    2.8803    1.0000 </r>
       <r>    3.2275    1.0000 </r>
       <r>    4.1309    1.0000 </r>
       <r>    4.2109    1.0000 </r>
       <r>    4.2109    1.0000 </r>
       <r>    4.2522    1.0000 </r>
       <r>    4.3473    1.0000 </r>
       <r>    4.3473    1.0000 </r>
       <r>    4.4361    1.0000 </r>
       <r>    4.5346    1.0000 </r>
       <r>    4.8706    1.0000 </r>
       <r>    4.9961    1.0000 </r>
       <r>    4.9961    1.0000 </r>
       <r>    5.0123    1.0000 </r>
       <r>    5.4797    1.0000 </r>
       <r>    5.6807    1.0000 </r>
       <r>    5.6807    1.0000 </r>
       <r>    5.7352    1.0000 </r>
       <r>    6.4631    1.0000 </r>
       <r>    7.3556    0.9243 </r>
       <r>    7.3556    0.9243 </r>
       <r>    8.5628   -0.0000 </r>
       <r>   13.5839    0.0000 </r>
       <r>   15.1569    0.0000 </r>
       <r>   15.1569    0.0000 </r>
       <r>   16.7828    0.0000 </r>
       <r>   19.9358    0.0000 </r>
       <r>   21.4025    0.0000 </r>
       <r>   21.4025    0.0000 </r>
       <r>   22.9560    0.0000 </r>
       <r>   26.0693    0.0000 </r>
       <r>   26.0693    0.0000 </r>
       <r>   26.6319    0.0000 </r>
       <r>   28.4628    0.0000 </r>
       <r>   30.2809    0.0000 </r>
       <r>   30.3067    0.0000 </r>
       <r>   31.2800    0.0000 </r>
       <r>   31.2800    0.0000 </r>
       <r>   34.9517    0.0000 </r>
       <r>   34.9517    0.0000 </r>
       <r>   35.4938    0.0000 </r>
       <r>   35.9463    0.0000 </r>
       <r>   38.3403    0.0000 </r>
       <r>   38.7750    0.0000 </r>
       <r>   39.4878    0.0000 </r>
       <r>   39.4878    0.0000 </r>
      </set>
      <set comment="kpoint 17">
       <r>    0.9312    1.0000 </r>
       <r>    3.1287    1.0000 </r>
       <r>    3.1287    1.0000 </r>
       <r>    3.1287    1.0000 </r>
       <r>    3.9370    1.0000 </r>
       <r>    3.9370    1.0000 </r>
       <r>    3.9370    1.0000 </r>
       <r>    4.3794    1.0000 </r>
       <r>    4.5602    1.0000 </r>
       <r>    4.5602    1.0000 </r>
       <r>    4.5602    1.0000 </r>
       <r>    4.7263    1.0000 </r>
       <r>    4.7263    1.0000 </r>
       <r>    5.0791    1.0000 </r>
       <r>    5.0791    1.0000 </r>
       <r>    5.0791    1.0000 </r>
       <r>    5.5943    1.0000 </r>
       <r>    5.5943    1.0000 </r>
       <r>    6.0247    1.0000 </r>
       <r>    6.0247    1.0000 </r>
       <r>    6.0247    1.0000 </r>
       <r>    8.4077   -0.0000 </r>
       <r>    8.4077   -0.0000 </r>
       <r>    8.4077   -0.0000 </r>
       <r>   13.5576    0.0000 </r>
       <r>   13.5576    0.0000 </r>
       <r>   13.5576    0.0000 </r>
       <r>   18.4123    0.0000 </r>
       <r>   21.5569    0.0000 </r>
       <r>   21.5569    0.0000 </r>
       <r>   21.5569    0.0000 </r>
       <r>   24.6055    0.0000 </r>
       <r>   24.6055    0.0000 </r>
       <r>   24.6055    0.0000 </r>
       <r>   27.5771    0.0000 </r>
       <r>   27.5771    0.0000 </r>
       <r>   27.5771    0.0000 </r>
       <r>   29.8576    0.0000 </r>
       <r>   30.2825    0.0000 </r>
       <r>   30.2825    0.0000 </r>
       <r>   35.3731    0.0000 </r>
       <r>   35.3731    0.0000 </r>
       <r>   37.4814    0.0000 </r>
       <r>   38.7752    0.0000 </r>
       <r>   38.7752    0.0000 </r>
       <r>   38.7752    0.0000 </r>
       <r>   39.7661    0.0000 </r>
       <r>   39.7661    0.0000 </r>
      </set>
      <set comment="kpoint 18">
       <r>    1.7558    1.0000 </r>
       <r>    2.5690    1.0000 </r>
       <r>    3.1313    1.0000 </r>
       <r>    3.1313    1.0000 </r>
       <r>    4.1145    1.0000 </r>
       <r>    4.1145    1.0000 </r>
       <r>    4.2556    1.0000 </r>
       <r>    4.4386    1.0000 </r>
       <r>    4.5467    1.0000 </r>
       <r>    4.6312    1.0000 </r>
       <r>    4.6367    1.0000 </r>
       <r>    4.6367    1.0000 </r>
       <r>    4.7408    1.0000 </r>
       <r>    4.8660    1.0000 </r>
       <r>    4.9522    1.0000 </r>
       <r>    4.9522    1.0000 </r>
       <r>    5.8091    1.0000 </r>
       <r>    5.8267    1.0000 </r>
       <r>    5.9622    1.0000 </r>
       <r>    5.9622    1.0000 </r>
       <r>    5.9814    1.0000 </r>
       <r>    6.7222    1.0000 </r>
       <r>    9.0331   -0.0000 </r>
       <r>    9.0331   -0.0000 </r>
       <r>   12.0056    0.0000 </r>
       <r>   12.0056    0.0000 </r>
       <r>   14.7734    0.0000 </r>
       <r>   16.3935    0.0000 </r>
       <r>   22.5235    0.0000 </r>
       <r>   22.5235    0.0000 </r>
       <r>   23.9494    0.0000 </r>
       <r>   23.9494    0.0000 </r>
       <r>   25.5243    0.0000 </r>
       <r>   26.0268    0.0000 </r>
       <r>   27.9386    0.0000 </r>
       <r>   28.2454    0.0000 </r>
       <r>   28.4627    0.0000 </r>
       <r>   29.9165    0.0000 </r>
       <r>   29.9165    0.0000 </r>
       <r>   30.3664    0.0000 </r>
       <r>   34.6908    0.0000 </r>
       <r>   35.7752    0.0000 </r>
       <r>   35.7752    0.0000 </r>
       <r>   36.4576    0.0000 </r>
       <r>   37.7168    0.0000 </r>
       <r>   37.9381    0.0000 </r>
       <r>   38.4945    0.0000 </r>
       <r>   39.4241    0.0000 </r>
      </set>
      <set comment="kpoint 19">
       <r>    2.2605    1.0000 </r>
       <r>    2.7241    1.0000 </r>
       <r>    2.7241    1.0000 </r>
       <r>    2.9017    1.0000 </r>
       <r>    4.3214    1.0000 </r>
       <r>    4.4008    1.0000 </r>
       <r>    4.4008    1.0000 </r>
       <r>    4.5832    1.0000 </r>
       <r>    4.6742    1.0000 </r>
       <r>    4.7454    1.0000 </r>
       <r>    4.7454    1.0000 </r>
       <r>    4.7814    1.0000 </r>
       <r>    4.8332    1.0000 </r>
       <r>    4.8493    1.0000 </r>
       <r>    4.8493    1.0000 </r>
       <r>    4.9058    1.0000 </r>
       <r>    5.7503    1.0000 </r>
       <r>    5.9143    1.0000 </r>
       <r>    5.9143    1.0000 </r>
       <r>    5.9195    1.0000 </r>
       <r>    6.2644    1.0000 </r>
       <r>    7.3088    1.0314 </r>
       <r>    7.3088    1.0314 </r>
       <r>    8.2933   -0.0000 </r>
       <r>   11.8039    0.0000 </r>
       <r>   12.9423    0.0000 </r>
       <r>   12.9423    0.0000 </r>
       <r>   14.4344    0.0000 </r>
       <r>   23.5638    0.0000 </r>
       <r>   24.9427    0.0000 </r>
       <r>   24.9427    0.0000 </r>
       <r>   26.4546    0.0000 </r>
       <r>   26.6265    0.0000 </r>
       <r>   26.6265    0.0000 </r>
       <r>   27.3284    0.0000 </r>
       <r>   28.5906    0.0000 </r>
       <r>   29.7850    0.0000 </r>
       <r>   30.1265    0.0000 </r>
       <r>   30.1265    0.0000 </r>
       <r>   30.5074    0.0000 </r>
       <r>   33.4134    0.0000 </r>
       <r>   34.4705    0.0000 </r>
       <r>   34.4705    0.0000 </r>
       <r>   35.1495    0.0000 </r>
       <r>   36.1219    0.0000 </r>
       <r>   36.9800    0.0000 </r>
       <r>   37.4681    0.0000 </r>
       <r>   37.4681    0.0000 </r>
      </set>
      <set comment="kpoint 20">
       <r>    2.4173    1.0000 </r>
       <r>    2.6235    1.0000 </r>
       <r>    2.6235    1.0000 </r>
       <r>    2.6235    1.0000 </r>
       <r>    4.4991    1.0000 </r>
       <r>    4.4991    1.0000 </r>
       <r>    4.4991    1.0000 </r>
       <r>    4.5873    1.0000 </r>
       <r>    4.5873    1.0000 </r>
       <r>    4.6256    1.0000 </r>
       <r>    4.6256    1.0000 </r>
       <r>    4.6256    1.0000 </r>
       <r>    5.4310    1.0000 </r>
       <r>    5.4310    1.0000 </r>
       <r>    5.4310    1.0000 </r>
       <r>    5.8448    1.0000 </r>
       <r>    5.9373    1.0000 </r>
       <r>    5.9373    1.0000 </r>
       <r>    5.9975    1.0000 </r>
       <r>    5.9975    1.0000 </r>
       <r>    5.9975    1.0000 </r>
       <r>    7.2149    1.0076 </r>
       <r>    7.2149    1.0076 </r>
       <r>    7.2149    1.0076 </r>
       <r>   11.6226    0.0000 </r>
       <r>   11.6226    0.0000 </r>
       <r>   11.6226    0.0000 </r>
       <r>   12.6593    0.0000 </r>
       <r>   27.2727    0.0000 </r>
       <r>   27.2727    0.0000 </r>
       <r>   27.2727    0.0000 </r>
       <r>   28.4481    0.0000 </r>
       <r>   28.4481    0.0000 </r>
       <r>   28.4481    0.0000 </r>
       <r>   28.8988    0.0000 </r>
       <r>   28.9802    0.0000 </r>
       <r>   28.9802    0.0000 </r>
       <r>   28.9802    0.0000 </r>
       <r>   29.8071    0.0000 </r>
       <r>   29.8071    0.0000 </r>
       <r>   33.0892    0.0000 </r>
       <r>   33.0892    0.0000 </r>
       <r>   34.2895    0.0000 </r>
       <r>   34.2895    0.0000 </r>
       <r>   34.2895    0.0000 </r>
       <r>   34.6017    0.0000 </r>
       <r>   34.6017    0.0000 </r>
       <r>   34.6017    0.0000 </r>
      </set>
     </set>
    </set>
   </array>
  </eigenvalues>
  <separator name="orbital magnetization" >
   <v name="MAGDIPOLOUT">      0.00000000      0.00000000      0.00000000</v>
  </separator>
  <dos>
   <i name="efermi">      7.41658097 </i>
   <total>
    <array>
     <dimension dim="1">gridpoints</dimension>
     <dimension dim="2">spin</dimension>
     <field>energy</field>
     <field>total</field>
     <field>integrated</field>
     <set>
      <set comment="spin 1">
       <r>    -4.0360     0.0000     0.0000 </r>
       <r>    -3.8683     0.0000     0.0000 </r>
       <r>    -3.7005     0.0000     0.0000 </r>
       <r>    -3.5328     0.0000     0.0000 </r>
       <r>    -3.3650     0.0000     0.0000 </r>
       <r>    -3.1972     0.0000     0.0000 </r>
       <r>    -3.0295     0.0000     0.0000 </r>
       <r>    -2.8617     0.0000     0.0000 </r>
       <r>    -2.6939    -0.0000    -0.0000 </r>
       <r>    -2.5262    -0.0000    -0.0000 </r>
       <r>    -2.3584    -0.0000    -0.0000 </r>
       <r>    -2.1906    -0.0000    -0.0000 </r>
       <r>    -2.0229    -0.0000    -0.0000 </r>
       <r>    -1.8551    -0.0011    -0.0002 </r>
       <r>    -1.6874     0.0307     0.0050 </r>
       <r>    -1.5196     0.0757     0.0177 </r>
       <r>    -1.3518     0.1350     0.0403 </r>
       <r>    -1.1841     0.3998     0.1074 </r>
       <r>    -1.0163     0.1546     0.1333 </r>
       <r>    -0.8485     0.1540     0.1592 </r>
       <r>    -0.6808     0.1757     0.1886 </r>
       <r>    -0.5130     0.6062     0.2903 </r>
       <r>    -0.3453     0.4438     0.3648 </r>
       <r>    -0.1775     0.6693     0.4771 </r>
       <r>    -0.0097    -0.0391     0.4705 </r>
       <r>     0.1580     0.2577     0.5137 </r>
       <r>     0.3258     0.4716     0.5928 </r>
       <r>     0.4936     0.7759     0.7230 </r>
       <r>     0.6613     0.7714     0.8524 </r>
       <r>     0.8291     0.7493     0.9781 </r>
       <r>     0.9968     0.3704     1.0403 </r>
       <r>     1.1646     0.2511     1.0824 </r>
       <r>     1.3324     1.2817     1.2974 </r>
       <r>     1.5001     1.0282     1.4699 </r>
       <r>     1.6679     0.0492     1.4781 </r>
       <r>     1.8357     1.2495     1.6878 </r>
       <r>     2.0034     0.9215     1.8424 </r>
       <r>     2.1712     1.5375     2.1003 </r>
       <r>     2.3389     1.3730     2.3306 </r>
       <r>     2.5067     2.5228     2.7539 </r>
       <r>     2.6745     2.3143     3.1421 </r>
       <r>     2.8422     3.9732     3.8087 </r>
       <r>     3.0100     4.7416     4.6041 </r>
       <r>     3.1778     6.0991     5.6274 </r>
       <r>     3.3455     5.8361     6.6064 </r>
       <r>     3.5133     9.4190     8.1866 </r>
       <r>     3.6811     8.6719     9.6414 </r>
       <r>     3.8488     8.8859    11.1321 </r>
       <r>     4.0166     8.3287    12.5294 </r>
       <r>     4.1843     8.6576    13.9818 </r>
       <r>     4.3521    13.8767    16.3098 </r>
       <r>     4.5199    13.0453    18.4983 </r>
       <r>     4.6876    14.3368    20.9035 </r>
       <r>     4.8554    18.0427    23.9304 </r>
       <r>     5.0232    12.3016    25.9942 </r>
       <r>     5.1909    10.4792    27.7522 </r>
       <r>     5.3587    11.7097    29.7166 </r>
       <r>     5.5264    17.0034    32.5692 </r>
       <r>     5.6942    10.6606    34.3576 </r>
       <r>     5.8620    15.0207    36.8775 </r>
       <r>     6.0297    22.9833    40.7333 </r>
       <r>     6.1975     7.7371    42.0313 </r>
       <r>     6.3653     0.6212    42.1355 </r>
       <r>     6.5330     1.7585    42.4305 </r>
       <r>     6.7008     2.5329    42.8554 </r>
       <r>     6.8685     1.2074    43.0580 </r>
       <r>     7.0363     0.0502    43.0664 </r>
       <r>     7.2041     0.9920    43.2328 </r>
       <r>     7.3718     3.6706    43.8486 </r>
       <r>     7.5396     1.1023    44.0335 </r>
       <r>     7.7074     0.3230    44.0877 </r>
       <r>     7.8751     1.1810    44.2858 </r>
       <r>     8.0429     1.2313    44.4924 </r>
       <r>     8.2106    -0.0561    44.4830 </r>
       <r>     8.3784     1.0662    44.6619 </r>
       <r>     8.5462     1.9365    44.9867 </r>
       <r>     8.7139     0.7622    45.1146 </r>
       <r>     8.8817     0.6463    45.2230 </r>
       <r>     9.0495     3.7496    45.8521 </r>
       <r>     9.2172     0.7328    45.9750 </r>
       <r>     9.3850    -0.0257    45.9707 </r>
       <r>     9.5527     0.0012    45.9709 </r>
       <r>     9.7205     0.9597    46.1319 </r>
       <r>     9.8883     0.4618    46.2094 </r>
       <r>    10.0560     1.5461    46.4687 </r>
       <r>    10.2238     0.1059    46.4865 </r>
       <r>    10.3916     2.6728    46.9349 </r>
       <r>    10.5593     0.0805    46.9484 </r>
       <r>    10.7271     0.8157    47.0853 </r>
       <r>    10.8949     0.0123    47.0873 </r>
       <r>    11.0626     0.4692    47.1660 </r>
       <r>    11.2304     1.8057    47.4690 </r>
       <r>    11.3981     0.6584    47.5794 </r>
       <r>    11.5659     0.7012    47.6971 </r>
       <r>    11.7337     1.0386    47.8713 </r>
       <r>    11.9014     0.7377    47.9951 </r>
       <r>    12.0692     1.5874    48.2614 </r>
       <r>    12.2370     0.1972    48.2945 </r>
       <r>    12.4047     0.3600    48.3549 </r>
       <r>    12.5725     1.6484    48.6314 </r>
       <r>    12.7402     1.3892    48.8645 </r>
       <r>    12.9080     1.6991    49.1495 </r>
       <r>    13.0758     1.4369    49.3906 </r>
       <r>    13.2435     2.1526    49.7517 </r>
       <r>    13.4113     0.2362    49.7913 </r>
       <r>    13.5791     0.9745    49.9548 </r>
       <r>    13.7468     0.7256    50.0765 </r>
       <r>    13.9146     0.6361    50.1833 </r>
       <r>    14.0823     1.0417    50.3580 </r>
       <r>    14.2501     0.7011    50.4756 </r>
       <r>    14.4179     0.4183    50.5458 </r>
       <r>    14.5856     0.7396    50.6699 </r>
       <r>    14.7534     0.9362    50.8270 </r>
       <r>    14.9212     1.3827    51.0589 </r>
       <r>    15.0889     2.1195    51.4145 </r>
       <r>    15.2567     2.8933    51.8999 </r>
       <r>    15.4244     0.6269    52.0051 </r>
       <r>    15.5922     0.3002    52.0554 </r>
       <r>    15.7600     0.9810    52.2200 </r>
       <r>    15.9277     2.0011    52.5557 </r>
       <r>    16.0955     1.1442    52.7477 </r>
       <r>    16.2633     0.4279    52.8194 </r>
       <r>    16.4310     0.8765    52.9665 </r>
       <r>    16.5988     0.9900    53.1326 </r>
       <r>    16.7666     1.2089    53.3354 </r>
       <r>    16.9343     2.0274    53.6755 </r>
       <r>    17.1021     1.5277    53.9318 </r>
       <r>    17.2698     2.3436    54.3250 </r>
       <r>    17.4376     3.5222    54.9159 </r>
       <r>    17.6054     1.5715    55.1795 </r>
       <r>    17.7731     0.3307    55.2350 </r>
       <r>    17.9409     0.4943    55.3179 </r>
       <r>    18.1087     0.8361    55.4582 </r>
       <r>    18.2764     3.0382    55.9679 </r>
       <r>    18.4442     1.6523    56.2451 </r>
       <r>    18.6119     0.7231    56.3664 </r>
       <r>    18.7797     1.1832    56.5649 </r>
       <r>    18.9475     2.6880    57.0158 </r>
       <r>    19.1152     0.1882    57.0474 </r>
       <r>    19.2830     1.1998    57.2487 </r>
       <r>    19.4508     1.2332    57.4556 </r>
       <r>    19.6185     2.6060    57.8927 </r>
       <r>    19.7863     1.6772    58.1741 </r>
       <r>    19.9540     0.8255    58.3126 </r>
       <r>    20.1218     1.0916    58.4957 </r>
       <r>    20.2896     2.7681    58.9601 </r>
       <r>    20.4573     1.8921    59.2775 </r>
       <r>    20.6251     0.7726    59.4071 </r>
       <r>    20.7929     0.8886    59.5562 </r>
       <r>    20.9606     2.9610    60.0529 </r>
       <r>    21.1284     2.6401    60.4959 </r>
       <r>    21.2961     2.2573    60.8745 </r>
       <r>    21.4639     2.2442    61.2510 </r>
       <r>    21.6317     1.0731    61.4311 </r>
       <r>    21.7994     1.0574    61.6085 </r>
       <r>    21.9672     2.7598    62.0714 </r>
       <r>    22.1350     3.1545    62.6006 </r>
       <r>    22.3027     0.1569    62.6270 </r>
       <r>    22.4705     0.9924    62.7934 </r>
       <r>    22.6383     1.5673    63.0564 </r>
       <r>    22.8060     0.3935    63.1224 </r>
       <r>    22.9738     1.1401    63.3137 </r>
       <r>    23.1415     1.2795    63.5283 </r>
       <r>    23.3093     3.9911    64.1979 </r>
       <r>    23.4771     0.6029    64.2990 </r>
       <r>    23.6448     1.0586    64.4766 </r>
       <r>    23.8126     1.7744    64.7743 </r>
       <r>    23.9804     1.5246    65.0300 </r>
       <r>    24.1481     0.9554    65.1903 </r>
       <r>    24.3159     1.0288    65.3629 </r>
       <r>    24.4836     2.1713    65.7272 </r>
       <r>    24.6514     0.7977    65.8610 </r>
       <r>    24.8192     0.3501    65.9197 </r>
       <r>    24.9869     3.5495    66.5152 </r>
       <r>    25.1547     1.6374    66.7899 </r>
       <r>    25.3225     0.5908    66.8890 </r>
       <r>    25.4902     0.3409    66.9462 </r>
       <r>    25.6580     1.5774    67.2108 </r>
       <r>    25.8257     0.5069    67.2959 </r>
       <r>    25.9935     1.4078    67.5320 </r>
       <r>    26.1613     2.2770    67.9140 </r>
       <r>    26.3290     0.2837    67.9616 </r>
       <r>    26.4968     3.0984    68.4814 </r>
       <r>    26.6646     2.9448    68.9754 </r>
       <r>    26.8323     0.8104    69.1114 </r>
       <r>    27.0001     1.7852    69.4109 </r>
       <r>    27.1678     1.1183    69.5985 </r>
       <r>    27.3356     2.3780    69.9974 </r>
       <r>    27.5034     0.5333    70.0869 </r>
       <r>    27.6711     2.3820    70.4865 </r>
       <r>    27.8389     1.2654    70.6988 </r>
       <r>    28.0067     1.1625    70.8938 </r>
       <r>    28.1744     0.2883    70.9422 </r>
       <r>    28.3422     1.3371    71.1665 </r>
       <r>    28.5099     4.9599    71.9986 </r>
       <r>    28.6777     3.2953    72.5514 </r>
       <r>    28.8455     0.6996    72.6688 </r>
       <r>    29.0132     2.6345    73.1108 </r>
       <r>    29.1810     0.7501    73.2366 </r>
       <r>    29.3488     1.6322    73.5104 </r>
       <r>    29.5165     2.4760    73.9258 </r>
       <r>    29.6843     2.9274    74.4169 </r>
       <r>    29.8521     5.1198    75.2758 </r>
       <r>    30.0198     2.6118    75.7140 </r>
       <r>    30.1876     2.4491    76.1249 </r>
       <r>    30.3553     3.5465    76.7198 </r>
       <r>    30.5231     1.5597    76.9815 </r>
       <r>    30.6909     0.4428    77.0558 </r>
       <r>    30.8586     1.4455    77.2983 </r>
       <r>    31.0264     1.0771    77.4790 </r>
       <r>    31.1942     1.9673    77.8090 </r>
       <r>    31.3619     2.2725    78.1903 </r>
       <r>    31.5297     0.6610    78.3011 </r>
       <r>    31.6974     2.4029    78.7043 </r>
       <r>    31.8652     1.2571    78.9151 </r>
       <r>    32.0330     3.9881    79.5842 </r>
       <r>    32.2007     2.5338    80.0093 </r>
       <r>    32.3685     0.8075    80.1447 </r>
       <r>    32.5363    -0.0480    80.1367 </r>
       <r>    32.7040     0.5614    80.2309 </r>
       <r>    32.8718     0.6814    80.3452 </r>
       <r>    33.0395     2.8251    80.8191 </r>
       <r>    33.2073     1.2164    81.0232 </r>
       <r>    33.3751     0.7172    81.1435 </r>
       <r>    33.5428     1.9548    81.4715 </r>
       <r>    33.7106     1.1586    81.6658 </r>
       <r>    33.8784     0.9306    81.8219 </r>
       <r>    34.0461     0.6840    81.9367 </r>
       <r>    34.2139     2.8701    82.4182 </r>
       <r>    34.3816     0.8317    82.5577 </r>
       <r>    34.5494     2.0796    82.9066 </r>
       <r>    34.7172     2.7716    83.3716 </r>
       <r>    34.8849     1.3456    83.5973 </r>
       <r>    35.0527     3.7273    84.2226 </r>
       <r>    35.2205     3.4678    84.8044 </r>
       <r>    35.3882     2.3731    85.2025 </r>
       <r>    35.5560     2.2002    85.5716 </r>
       <r>    35.7238     2.6787    86.0210 </r>
       <r>    35.8915     3.5202    86.6116 </r>
       <r>    36.0593     1.4943    86.8622 </r>
       <r>    36.2270     1.4063    87.0982 </r>
       <r>    36.3948     1.7432    87.3906 </r>
       <r>    36.5626     1.7637    87.6865 </r>
       <r>    36.7303     1.7373    87.9780 </r>
       <r>    36.8981     0.8973    88.1285 </r>
       <r>    37.0659     0.8360    88.2688 </r>
       <r>    37.2336     0.0153    88.2713 </r>
       <r>    37.4014     0.2891    88.3198 </r>
       <r>    37.5691     3.6042    88.9245 </r>
       <r>    37.7369     3.1623    89.4550 </r>
       <r>    37.9047     0.7015    89.5727 </r>
       <r>    38.0724     1.3824    89.8046 </r>
       <r>    38.2402     2.6883    90.2556 </r>
       <r>    38.4080     3.0187    90.7620 </r>
       <r>    38.5757     1.9073    91.0820 </r>
       <r>    38.7435     2.0494    91.4258 </r>
       <r>    38.9112     2.6266    91.8664 </r>
       <r>    39.0790     1.6386    92.1413 </r>
       <r>    39.2468     0.8054    92.2764 </r>
       <r>    39.4145     3.0343    92.7855 </r>
       <r>    39.5823     4.8755    93.6034 </r>
       <r>    39.7501     2.1692    93.9673 </r>
       <r>    39.9178     2.9280    94.4585 </r>
       <r>    40.0856     0.1960    94.4914 </r>
       <r>    40.2533     2.3024    94.8777 </r>
       <r>    40.4211     0.9261    95.0330 </r>
       <r>    40.5889     0.2931    95.0822 </r>
       <r>    40.7566     0.6655    95.1939 </r>
       <r>    40.9244     0.1805    95.2241 </r>
       <r>    41.0922     0.2263    95.2621 </r>
       <r>    41.2599     1.0340    95.4356 </r>
       <r>    41.4277    -0.0222    95.4318 </r>
       <r>    41.5955     0.8125    95.5682 </r>
       <r>    41.7632     1.0396    95.7426 </r>
       <r>    41.9310     0.0421    95.7496 </r>
       <r>    42.0987    -0.0021    95.7493 </r>
       <r>    42.2665    -0.0096    95.7477 </r>
       <r>    42.4343     0.2860    95.7956 </r>
       <r>    42.6020     0.5741    95.8920 </r>
       <r>    42.7698     0.3774    95.9553 </r>
       <r>    42.9376     0.2415    95.9958 </r>
       <r>    43.1053    -0.0096    95.9942 </r>
       <r>    43.2731    -0.0000    95.9942 </r>
       <r>    43.4408    -0.0000    95.9942 </r>
       <r>    43.6086    -0.0000    95.9942 </r>
       <r>    43.7764    -0.0001    95.9942 </r>
       <r>    43.9441     0.0027    95.9946 </r>
       <r>    44.1119     0.0332    96.0002 </r>
       <r>    44.2797    -0.0011    96.0000 </r>
       <r>    44.4474    -0.0000    96.0000 </r>
       <r>    44.6152    -0.0000    96.0000 </r>
       <r>    44.7829    -0.0000    96.0000 </r>
       <r>    44.9507     0.0000    96.0000 </r>
       <r>    45.1185     0.0000    96.0000 </r>
       <r>    45.2862     0.0000    96.0000 </r>
       <r>    45.4540     0.0000    96.0000 </r>
       <r>    45.6218     0.0000    96.0000 </r>
       <r>    45.7895     0.0000    96.0000 </r>
       <r>    45.9573     0.0000    96.0000 </r>
       <r>    46.1250     0.0000    96.0000 </r>
       <r>    46.2928     0.0000    96.0000 </r>
      </set>
     </set>
    </array>
   </total>
  </dos>
 </calculation>
 <structure name="finalpos" >
  <crystal>
   <varray name="basis" >
    <v>       3.61000000       0.00000000       0.00000000 </v>
    <v>       0.00000000       3.61000000       0.00000000 </v>
    <v>       0.00000000       0.00000000       3.61000000 </v>
   </varray>
   <i name="volume">     47.04588100 </i>
   <varray name="rec_basis" >
    <v>       0.27700831       0.00000000       0.00000000 </v>
    <v>       0.00000000       0.27700831       0.00000000 </v>
    <v>       0.00000000       0.00000000       0.27700831 </v>
   </varray>
  </crystal>
  <varray name="positions" >
   <v>       0.00000000       0.00000000       0.00000000 </v>
   <v>       0.00000000       0.50000000       0.50000000 </v>
   <v>       0.50000000       0.00000000       0.50000000 </v>
   <v>       0.50000000       0.50000000       0.00000000 </v>
  </varray>
 </structure>
</modeling>
