   4   4   0   0
  0.1072794E+02  0.3501000E-09  0.3501000E-09  0.3501000E-09  0.5000000E-15
  1.000000000000000E-004
  CAR 
 unknown system                          
     27.00359690      5.56302032  301     16.29920385      1.00000000
      5.563  0.0000E+00  0.0000E+00
      5.634  0.0000E+00  0.0000E+00
      5.706 -0.1327E-31 -0.9481E-33
      5.777 -0.1526E-26 -0.1090E-27
      5.849 -0.6265E-22 -0.4478E-23
      5.920 -0.9170E-18 -0.6554E-19
      5.992 -0.4626E-14 -0.3307E-15
      6.063 -0.8453E-11 -0.6045E-12
      6.135 -0.5414E-08 -0.3875E-09
      6.206 -0.1200E-05 -0.8612E-07
      6.278 -0.8945E-04 -0.6479E-05
      6.349 -0.2088E-02 -0.1557E-03
      6.421 -0.1132E-01 -0.9647E-03
      6.492  0.2967E-01  0.1156E-02
      6.564  0.2045E+00  0.1577E-01
      6.635  0.2020E+00  0.3021E-01
      6.707  0.2783E-01  0.3220E-01
      6.778 -0.1175E-01  0.3136E-01
      6.849 -0.1188E-01  0.3051E-01
      6.921 -0.3545E-01  0.2798E-01
      6.992  0.1674E+00  0.3994E-01
      7.064  0.6903E+00  0.8928E-01
      7.135  0.5040E+00  0.1253E+00
      7.207  0.2736E-01  0.1273E+00
      7.278 -0.3722E-01  0.1246E+00
      7.350 -0.4586E-01  0.1213E+00
      7.421  0.1074E+00  0.1290E+00
      7.493  0.7696E+00  0.1840E+00
      7.564  0.1161E+01  0.2670E+00
      7.636  0.6206E+00  0.3113E+00
      7.707 -0.1329E-01  0.3104E+00
      7.779  0.2431E-01  0.3121E+00
      7.850  0.1298E+01  0.4049E+00
      7.921  0.3011E+01  0.6201E+00
      7.993  0.2424E+01  0.7933E+00
      8.064  0.1653E+01  0.9115E+00
      8.136  0.1578E+01  0.1024E+01
      8.207  0.3208E+01  0.1254E+01
      8.279  0.4587E+01  0.1581E+01
      8.350  0.5019E+01  0.1940E+01
      8.422  0.5432E+01  0.2328E+01
      8.493  0.4452E+01  0.2646E+01
      8.565  0.4172E+01  0.2945E+01
      8.636  0.4085E+01  0.3237E+01
      8.708  0.5562E+01  0.3634E+01
      8.779  0.8974E+01  0.4275E+01
      8.851  0.8285E+01  0.4868E+01
      8.922  0.6495E+01  0.5332E+01
      8.994  0.7271E+01  0.5851E+01
      9.065  0.7667E+01  0.6399E+01
      9.136  0.6040E+01  0.6831E+01
      9.208  0.5011E+01  0.7189E+01
      9.279  0.6926E+01  0.7684E+01
      9.351  0.5905E+01  0.8106E+01
      9.422  0.5133E+01  0.8473E+01
      9.494  0.4491E+01  0.8794E+01
      9.565  0.4331E+01  0.9104E+01
      9.637  0.4381E+01  0.9417E+01
      9.708  0.4397E+01  0.9731E+01
      9.780  0.3031E+01  0.9948E+01
      9.851  0.1595E+01  0.1006E+02
      9.923  0.2612E+01  0.1025E+02
      9.994  0.3211E+01  0.1048E+02
     10.066  0.3986E+01  0.1076E+02
     10.137  0.6870E+01  0.1125E+02
     10.208  0.7711E+01  0.1180E+02
     10.280  0.6475E+01  0.1227E+02
     10.351  0.3939E+01  0.1255E+02
     10.423  0.9819E+00  0.1262E+02
     10.494  0.1640E+01  0.1274E+02
     10.566  0.4087E+01  0.1303E+02
     10.637  0.6637E+01  0.1350E+02
     10.709  0.5697E+01  0.1391E+02
     10.780  0.1995E+01  0.1405E+02
     10.852  0.2548E+01  0.1423E+02
     10.923  0.3777E+01  0.1450E+02
     10.995  0.3231E+01  0.1474E+02
     11.066  0.4032E+01  0.1502E+02
     11.138  0.6579E+01  0.1549E+02
     11.209  0.5505E+01  0.1589E+02
     11.281  0.2199E+01  0.1604E+02
     11.352  0.1942E+01  0.1618E+02
     11.423  0.4660E+01  0.1652E+02
     11.495  0.6069E+01  0.1695E+02
     11.566  0.6106E+01  0.1739E+02
     11.638  0.7360E+01  0.1791E+02
     11.709  0.6378E+01  0.1837E+02
     11.781  0.3908E+01  0.1865E+02
     11.852  0.4402E+01  0.1896E+02
     11.924  0.8277E+01  0.1955E+02
     11.995  0.8299E+01  0.2015E+02
     12.067  0.5657E+01  0.2055E+02
     12.138  0.7106E+01  0.2106E+02
     12.210  0.8299E+01  0.2165E+02
     12.281  0.5399E+01  0.2204E+02
     12.353  0.6744E+01  0.2252E+02
     12.424  0.6707E+01  0.2300E+02
     12.495  0.4094E+01  0.2329E+02
     12.567  0.4473E+01  0.2361E+02
     12.638  0.4265E+01  0.2392E+02
     12.710  0.4311E+01  0.2422E+02
     12.781  0.3790E+01  0.2450E+02
     12.853  0.2318E+01  0.2466E+02
     12.924  0.4236E+01  0.2496E+02
     12.996  0.7499E+01  0.2550E+02
     13.067  0.6252E+01  0.2595E+02
     13.139  0.4745E+01  0.2629E+02
     13.210  0.3547E+01  0.2654E+02
     13.282  0.1357E+01  0.2664E+02
     13.353  0.2305E+01  0.2680E+02
     13.425  0.3774E+01  0.2707E+02
     13.496  0.1995E+01  0.2721E+02
     13.568  0.3952E+01  0.2750E+02
     13.639  0.4854E+01  0.2784E+02
     13.710  0.3974E+01  0.2813E+02
     13.782  0.7929E+01  0.2869E+02
     13.853  0.6783E+01  0.2918E+02
     13.925  0.4686E+01  0.2951E+02
     13.996  0.6089E+01  0.2995E+02
     14.068  0.7087E+01  0.3045E+02
     14.139  0.5441E+01  0.3084E+02
     14.211  0.2379E+01  0.3101E+02
     14.282  0.1338E+01  0.3111E+02
     14.354  0.2816E+01  0.3131E+02
     14.425  0.3575E+01  0.3157E+02
     14.497  0.3667E+01  0.3183E+02
     14.568  0.2892E+01  0.3203E+02
     14.640  0.4326E+01  0.3234E+02
     14.711  0.6442E+01  0.3280E+02
     14.782  0.6966E+01  0.3330E+02
     14.854  0.5089E+01  0.3367E+02
     14.925  0.3312E+01  0.3390E+02
     14.997  0.3530E+01  0.3415E+02
     15.068  0.3139E+01  0.3438E+02
     15.140  0.1456E+01  0.3448E+02
     15.211  0.4449E-01  0.3449E+02
     15.283  0.1678E+01  0.3461E+02
     15.354  0.5494E+01  0.3500E+02
     15.426  0.6085E+01  0.3543E+02
     15.497  0.5604E+01  0.3583E+02
     15.569  0.5424E+01  0.3622E+02
     15.640  0.4121E+01  0.3652E+02
     15.712  0.3322E+01  0.3675E+02
     15.783  0.2777E+01  0.3695E+02
     15.854  0.4292E+01  0.3726E+02
     15.926  0.4401E+01  0.3757E+02
     15.997  0.2998E+01  0.3779E+02
     16.069  0.4833E+01  0.3813E+02
     16.140  0.8735E+01  0.3876E+02
     16.212  0.9685E+01  0.3945E+02
     16.283  0.6461E+01  0.3991E+02
     16.355  0.6069E+01  0.4035E+02
     16.426  0.5646E+01  0.4075E+02
     16.498  0.2296E+01  0.4091E+02
     16.569  0.1664E+01  0.4103E+02
     16.641  0.4319E+01  0.4134E+02
     16.712  0.7503E+01  0.4188E+02
     16.784  0.4353E+01  0.4219E+02
     16.855  0.2468E+00  0.4221E+02
     16.927 -0.2350E+00  0.4219E+02
     16.998  0.3786E+00  0.4222E+02
     17.069  0.7247E+00  0.4227E+02
     17.141  0.2405E+00  0.4228E+02
     17.212 -0.3170E-01  0.4228E+02
     17.284 -0.1351E-01  0.4228E+02
     17.355 -0.8961E-03  0.4228E+02
     17.427 -0.3263E-03  0.4228E+02
     17.498 -0.6882E-02  0.4228E+02
     17.570 -0.3467E-01  0.4228E+02
     17.641  0.1010E+00  0.4229E+02
     17.713  0.5991E+00  0.4233E+02
     17.784  0.4682E+00  0.4236E+02
     17.856  0.5434E+00  0.4240E+02
     17.927  0.2254E+01  0.4256E+02
     17.999  0.2448E+01  0.4274E+02
     18.070  0.1984E+01  0.4288E+02
     18.141  0.1899E+01  0.4301E+02
     18.213  0.1480E+01  0.4312E+02
     18.284  0.1230E+01  0.4321E+02
     18.356  0.2432E+00  0.4323E+02
     18.427 -0.7920E-01  0.4322E+02
     18.499 -0.8217E-01  0.4321E+02
     18.570 -0.1028E-01  0.4321E+02
     18.642  0.1170E+01  0.4330E+02
     18.713  0.2132E+01  0.4345E+02
     18.785  0.8794E+00  0.4351E+02
     18.856  0.5147E+00  0.4355E+02
     18.928  0.5797E+00  0.4359E+02
     18.999  0.9439E-01  0.4360E+02
     19.071 -0.3870E-01  0.4359E+02
     19.142 -0.5048E-01  0.4359E+02
     19.214 -0.1521E-01  0.4359E+02
     19.285  0.7888E+00  0.4365E+02
     19.356  0.1463E+01  0.4375E+02
     19.428  0.4892E+00  0.4379E+02
     19.499 -0.1190E+00  0.4378E+02
     19.571  0.5429E+00  0.4382E+02
     19.642  0.1648E+01  0.4393E+02
     19.714  0.1376E+01  0.4403E+02
     19.785  0.3918E+00  0.4406E+02
     19.857  0.2711E+00  0.4408E+02
     19.928  0.1259E+01  0.4417E+02
     20.000  0.1130E+01  0.4425E+02
     20.071  0.1094E+01  0.4433E+02
     20.143  0.1237E+01  0.4442E+02
     20.214  0.9638E+00  0.4448E+02
     20.286  0.1876E+01  0.4462E+02
     20.357  0.1432E+01  0.4472E+02
     20.428  0.7124E+00  0.4477E+02
     20.500  0.5247E+00  0.4481E+02
     20.571  0.1877E-01  0.4481E+02
     20.643 -0.7720E-01  0.4481E+02
     20.714  0.9379E+00  0.4487E+02
     20.786  0.2115E+01  0.4502E+02
     20.857  0.1053E+01  0.4510E+02
     20.929 -0.1483E-01  0.4510E+02
     21.000 -0.9171E-01  0.4509E+02
     21.072  0.4576E-01  0.4509E+02
     21.143  0.5218E+00  0.4513E+02
     21.215  0.7392E+00  0.4518E+02
     21.286  0.1068E+01  0.4526E+02
     21.358  0.1750E+01  0.4539E+02
     21.429  0.1576E+01  0.4550E+02
     21.501  0.1509E+01  0.4561E+02
     21.572  0.7578E+00  0.4566E+02
     21.643 -0.1526E-01  0.4566E+02
     21.715 -0.4794E-01  0.4566E+02
     21.786 -0.3349E-01  0.4565E+02
     21.858 -0.6463E-01  0.4565E+02
     21.929  0.4719E+00  0.4568E+02
     22.001  0.1448E+01  0.4579E+02
     22.072  0.1584E+01  0.4590E+02
     22.144  0.1452E+01  0.4600E+02
     22.215  0.4594E+00  0.4604E+02
     22.287 -0.1335E+00  0.4603E+02
     22.358  0.3396E+00  0.4605E+02
     22.430  0.1381E+01  0.4615E+02
     22.501  0.8942E+00  0.4621E+02
     22.573  0.3882E+00  0.4624E+02
     22.644  0.1334E+01  0.4634E+02
     22.715  0.9447E+00  0.4640E+02
     22.787 -0.2192E-03  0.4640E+02
     22.858  0.5899E+00  0.4645E+02
     22.930  0.1651E+01  0.4656E+02
     23.001  0.1323E+01  0.4666E+02
     23.073  0.4297E+00  0.4669E+02
     23.144 -0.4369E-01  0.4669E+02
     23.216  0.2166E+00  0.4670E+02
     23.287  0.7252E+00  0.4675E+02
     23.359  0.4108E+00  0.4678E+02
     23.430 -0.4626E-02  0.4678E+02
     23.502 -0.5088E-01  0.4678E+02
     23.573 -0.1369E+00  0.4677E+02
     23.645  0.4184E+00  0.4680E+02
     23.716  0.2491E+01  0.4698E+02
     23.788  0.2344E+01  0.4714E+02
     23.859  0.2789E+00  0.4716E+02
     23.930 -0.1866E+00  0.4715E+02
     24.002  0.5208E+00  0.4719E+02
     24.073  0.1468E+01  0.4729E+02
     24.145  0.7604E+00  0.4735E+02
     24.216 -0.5407E-01  0.4734E+02
     24.288  0.4590E-01  0.4735E+02
     24.359  0.6088E+00  0.4739E+02
     24.431  0.6067E+00  0.4743E+02
     24.502  0.8408E-01  0.4744E+02
     24.574 -0.3367E-01  0.4744E+02
     24.645 -0.6069E-02  0.4744E+02
     24.717 -0.1626E-02  0.4744E+02
     24.788 -0.2676E-01  0.4744E+02
     24.860 -0.1200E+00  0.4743E+02
     24.931  0.3807E+00  0.4745E+02
     25.002  0.2297E+01  0.4762E+02
     25.074  0.2403E+01  0.4779E+02
     25.145  0.4684E+00  0.4782E+02
     25.217 -0.1215E+00  0.4781E+02
     25.288 -0.3092E-01  0.4781E+02
     25.360 -0.1711E-02  0.4781E+02
     25.431 -0.2993E-04  0.4781E+02
     25.503 -0.1782E-06  0.4781E+02
     25.574 -0.2996E-07  0.4781E+02
     25.646 -0.6669E-05  0.4781E+02
     25.717 -0.5060E-03  0.4781E+02
     25.789 -0.1204E-01  0.4781E+02
     25.860 -0.6727E-01  0.4781E+02
     25.932  0.1670E+00  0.4782E+02
     26.003  0.1212E+01  0.4791E+02
     26.075  0.1227E+01  0.4799E+02
     26.146  0.1780E+00  0.4801E+02
     26.217 -0.6792E-01  0.4800E+02
     26.289 -0.1253E-01  0.4800E+02
     26.360 -0.5367E-03  0.4800E+02
     26.432 -0.7198E-05  0.4800E+02
     26.503 -0.3248E-07  0.4800E+02
     26.575 -0.5072E-10  0.4800E+02
     26.646 -0.2796E-13  0.4800E+02
     26.718  0.0000E+00  0.4800E+02
     26.789  0.0000E+00  0.4800E+02
     26.861  0.0000E+00  0.4800E+02
     26.932  0.0000E+00  0.4800E+02
     27.004  0.0000E+00  0.4800E+02
