    4    4    1    1
  0.1072794E+02  0.3501000E-09  0.3501000E-09  0.3501000E-09  0.5000000E-15
  1.000000000000000E-004
  CAR 
 unknown system                          
     40     20     24
 
  0.6250000E-01  0.6250000E-01  0.6250000E-01  0.1562500E-01
    1        6.563020   1.000000
    2        7.561629   1.000000
    3        7.561629   1.000000
    4        7.561629   1.000000
    5        8.003306   1.000000
    6        8.003306   1.000000
    7        8.003306   1.000000
    8       11.466865   1.000000
    9       11.635802   1.000000
   10       11.635802   1.000000
   11       14.209417   1.000000
   12       14.209417   1.000000
   13       16.069026   1.002681
   14       16.069026   1.002681
   15       16.069026   1.002681
   16       16.145036   1.025761
   17       16.145036   1.025761
   18       16.145036   1.025761
   19       16.744635  -0.000000
   20       16.744635  -0.000000
   21       16.744635  -0.000000
   22       20.232939   0.000000
   23       20.232939   0.000000
   24       20.232939   0.000000
 
  0.1875000E+00  0.6250000E-01  0.6250000E-01  0.4687500E-01
    1        7.049646   1.000000
    2        7.870329   1.000000
    3        7.896273   1.000000
    4        7.896273   1.000000
    5        8.218732   1.000000
    6        8.386398   1.000000
    7        8.386398   1.000000
    8       11.155485   1.000000
    9       11.879827   1.000000
   10       11.890448   1.000000
   11       13.852145   1.000000
   12       14.364041   1.000000
   13       14.617206   1.000000
   14       14.617206   1.000000
   15       15.465099   1.000000
   16       15.598367   1.000000
   17       15.598367   1.000000
   18       15.667767   1.000000
   19       16.411234  -0.033528
   20       16.704083  -0.000000
   21       16.704083  -0.000000
   22       18.654890  -0.000000
   23       21.973796   0.000000
   24       21.973796   0.000000
 
  0.3125000E+00  0.6250000E-01  0.6250000E-01  0.4687500E-01
    1        7.905671   1.000000
    2        8.395567   1.000000
    3        8.485185   1.000000
    4        8.485185   1.000000
    5        8.637315   1.000000
    6        9.107010   1.000000
    7        9.107010   1.000000
    8       10.576210   1.000000
    9       12.329643   1.000000
   10       12.387254   1.000000
   11       12.921747   1.000000
   12       12.921747   1.000000
   13       13.393757   1.000000
   14       14.341067   1.000000
   15       14.656406   1.000000
   16       14.783962   1.000000
   17       14.783962   1.000000
   18       14.891222   1.000000
   19       15.975135   1.000023
   20       16.643282  -0.000006
   21       16.688609  -0.000000
   22       16.688609  -0.000000
   23       24.044536   0.000000
   24       24.044536   0.000000
 
  0.4375000E+00  0.6250000E-01  0.6250000E-01  0.4687500E-01
    1        8.749065   1.000000
    2        8.878384   1.000000
    3        9.052175   1.000000
    4        9.052175   1.000000
    5        9.217487   1.000000
    6        9.888120   1.000000
    7       10.097322   1.000000
    8       10.097322   1.000000
    9       11.391349   1.000000
   10       11.391349   1.000000
   11       12.528176   1.000000
   12       13.098699   1.000000
   13       13.138280   1.000000
   14       13.725446   1.000000
   15       13.968922   1.000000
   16       14.073613   1.000000
   17       14.073613   1.000000
   18       14.922971   1.000000
   19       15.053932   1.000000
   20       15.510668   1.000000
   21       16.684435  -0.000000
   22       16.684435  -0.000000
   23       26.003597   0.000000
   24       26.003597   0.000000
 
  0.1875000E+00  0.1875000E+00  0.6250000E-01  0.4687500E-01
    1        7.482516   1.000000
    2        8.095907   1.000000
    3        8.198549   1.000000
    4        8.198549   1.000000
    5        8.595115   1.000000
    6        8.595115   1.000000
    7        8.840994   1.000000
    8       11.058043   1.000000
    9       11.970924   1.000000
   10       12.021827   1.000000
   11       13.790069   1.000000
   12       13.918634   1.000000
   13       13.918634   1.000000
   14       13.932164   1.000000
   15       14.386774   1.000000
   16       15.101813   1.000000
   17       15.367774   1.000000
   18       15.367774   1.000000
   19       16.345646   0.150066
   20       16.345646   0.150066
   21       16.418178  -0.035260
   22       20.281452   0.000000
   23       20.281452   0.000000
   24       23.261692   0.000000
 
  0.3125000E+00  0.1875000E+00  0.6250000E-01  0.9375000E-01
    1        8.242217   1.000000
    2        8.571434   1.000000
    3        8.687106   1.000000
    4        8.792833   1.000000
    5        9.026075   1.000000
    6        9.279556   1.000000
    7        9.541858   1.000000
    8       10.667414   1.000000
    9       12.156982   1.000000
   10       12.368292   1.000000
   11       12.372371   1.000000
   12       12.692725   1.000000
   13       12.970688   1.000000
   14       13.563751   1.000000
   15       14.466602   1.000000
   16       14.663121   1.000000
   17       14.758161   1.000000
   18       14.825715   1.000000
   19       15.818331   1.000000
   20       16.197589   1.026723
   21       16.214977   1.000084
   22       18.221913  -0.000000
   23       22.099894   0.000000
   24       24.985908   0.000000
 
  0.4375000E+00  0.1875000E+00  0.6250000E-01  0.9375000E-01
    1        9.008764   1.000000
    2        9.120911   1.000000
    3        9.219753   1.000000
    4        9.387884   1.000000
    5        9.606106   1.000000
    6       10.110893   1.000000
    7       10.135392   1.000000
    8       10.197018   1.000000
    9       11.160127   1.000000
   10       11.424816   1.000000
   11       11.949105   1.000000
   12       12.126369   1.000000
   13       12.995036   1.000000
   14       13.787566   1.000000
   15       13.932856   1.000000
   16       14.036791   1.000000
   17       14.067571   1.000000
   18       15.010059   1.000000
   19       15.527369   1.000000
   20       16.136374   1.021762
   21       16.136771   1.021945
   22       16.568556  -0.000467
   23       23.721959   0.000000
   24       25.023532   0.000000
 
  0.3125000E+00  0.3125000E+00  0.6250000E-01  0.4687500E-01
    1        8.807612   1.000000
    2        8.885260   1.000000
    3        9.242559   1.000000
    4        9.242559   1.000000
    5        9.692973   1.000000
    6        9.692973   1.000000
    7       10.150881   1.000000
    8       10.687185   1.000000
    9       11.670200   1.000000
   10       11.670200   1.000000
   11       12.036300   1.000000
   12       12.147534   1.000000
   13       12.511143   1.000000
   14       13.399082   1.000000
   15       13.956397   1.000000
   16       14.321628   1.000000
   17       14.321628   1.000000
   18       15.480645   1.000000
   19       15.480645   1.000000
   20       15.574394   1.000000
   21       15.705421   1.000000
   22       19.917309   0.000000
   23       19.917309   0.000000
   24       24.358814   0.000000
 
  0.4375000E+00  0.3125000E+00  0.6250000E-01  0.9375000E-01
    1        9.368434   1.000000
    2        9.447325   1.000000
    3        9.526571   1.000000
    4        9.963572   1.000000
    5       10.081022   1.000000
    6       10.316649   1.000000
    7       10.476289   1.000000
    8       10.558019   1.000000
    9       10.989192   1.000000
   10       11.201743   1.000000
   11       11.439263   1.000000
   12       11.593966   1.000000
   13       12.898642   1.000000
   14       13.567427   1.000000
   15       13.577351   1.000000
   16       13.754126   1.000000
   17       13.776563   1.000000
   18       14.620360   1.000000
   19       15.326619   1.000000
   20       15.396706   1.000000
   21       16.678786  -0.000001
   22       18.088544  -0.000000
   23       21.474930   0.000000
   24       22.892488   0.000000
 
  0.4375000E+00  0.4375000E+00  0.6250000E-01  0.4687500E-01
    1        9.653060   1.000000
    2        9.710340   1.000000
    3        9.865380   1.000000
    4        9.865380   1.000000
    5       10.647278   1.000000
    6       10.647278   1.000000
    7       10.656783   1.000000
    8       10.810986   1.000000
    9       11.111742   1.000000
   10       11.111742   1.000000
   11       11.457563   1.000000
   12       11.503476   1.000000
   13       12.767824   1.000000
   14       13.124619   1.000000
   15       13.189345   1.000000
   16       13.189345   1.000000
   17       13.824671   1.000000
   18       14.475210   1.000000
   19       14.475210   1.000000
   20       14.767524   1.000000
   21       18.055341  -0.000000
   22       19.609451   0.000000
   23       19.609451   0.000000
   24       21.148143   0.000000
 
  0.1875000E+00  0.1875000E+00  0.1875000E+00  0.1562500E-01
    1        7.795656   1.000000
    2        8.339525   1.000000
    3        8.339525   1.000000
    4        8.339525   1.000000
    5        9.074289   1.000000
    6        9.074289   1.000000
    7        9.074289   1.000000
    8       11.172010   1.000000
    9       12.011773   1.000000
   10       12.011773   1.000000
   11       13.399265   1.000000
   12       13.399265   1.000000
   13       13.399265   1.000000
   14       14.138699   1.000000
   15       14.138699   1.000000
   16       14.505385   1.000000
   17       14.505385   1.000000
   18       14.505385   1.000000
   19       16.527917  -0.002841
   20       16.527917  -0.002841
   21       16.527917  -0.002841
   22       21.271402   0.000000
   23       21.271402   0.000000
   24       21.271402   0.000000
 
  0.3125000E+00  0.1875000E+00  0.1875000E+00  0.4687500E-01
    1        8.318770   1.000000
    2        8.687164   1.000000
    3        8.762239   1.000000
    4        8.762239   1.000000
    5        9.578065   1.000000
    6        9.723980   1.000000
    7        9.723980   1.000000
    8       11.096820   1.000000
    9       12.065189   1.000000
   10       12.178512   1.000000
   11       12.347705   1.000000
   12       12.347705   1.000000
   13       12.591985   1.000000
   14       13.759184   1.000000
   15       14.021086   1.000000
   16       14.021086   1.000000
   17       14.063605   1.000000
   18       14.712061   1.000000
   19       16.310308   0.406669
   20       16.310308   0.406669
   21       16.392338  -0.016457
   22       18.858483  -0.000000
   23       22.628645   0.000000
   24       22.628645   0.000000
 
  0.4375000E+00  0.1875000E+00  0.1875000E+00  0.4687500E-01
    1        8.807190   1.000000
    2        8.925978   1.000000
    3        9.416387   1.000000
    4        9.416387   1.000000
    5        9.987706   1.000000
    6        9.987706   1.000000
    7       10.286284   1.000000
    8       10.839357   1.000000
    9       11.644088   1.000000
   10       11.644088   1.000000
   11       11.784651   1.000000
   12       11.883908   1.000000
   13       12.528479   1.000000
   14       13.068817   1.000000
   15       13.602083   1.000000
   16       13.602083   1.000000
   17       14.942253   1.000000
   18       15.368444   1.000000
   19       15.972860   1.000020
   20       16.094124   1.006761
   21       16.094124   1.006761
   22       16.653981  -0.000003
   23       23.704559   0.000000
   24       23.704559   0.000000
 
  0.3125000E+00  0.3125000E+00  0.1875000E+00  0.4687500E-01
    1        8.487576   1.000000
    2        8.928342   1.000000
    3        8.940336   1.000000
    4        8.940336   1.000000
    5       10.183141   1.000000
    6       10.183141   1.000000
    7       10.195832   1.000000
    8       11.580926   1.000000
    9       11.935030   1.000000
   10       11.935030   1.000000
   11       12.033070   1.000000
   12       12.076886   1.000000
   13       12.233591   1.000000
   14       13.337716   1.000000
   15       13.370011   1.000000
   16       13.370011   1.000000
   17       14.169289   1.000000
   18       15.297421   1.000000
   19       16.135276   1.021261
   20       16.203772   1.019714
   21       16.203772   1.019714
   22       20.082393   0.000000
   23       20.082393   0.000000
   24       22.985413   0.000000
 
  0.4375000E+00  0.3125000E+00  0.1875000E+00  0.9375000E-01
    1        8.719760   1.000000
    2        8.915262   1.000000
    3        9.241515   1.000000
    4        9.292548   1.000000
    5       10.257640   1.000000
    6       10.274682   1.000000
    7       10.911328   1.000000
    8       11.570149   1.000000
    9       11.703256   1.000000
   10       11.770000   1.000000
   11       11.938941   1.000000
   12       12.182293   1.000000
   13       12.286226   1.000000
   14       12.742491   1.000000
   15       12.977692   1.000000
   16       13.074285   1.000000
   17       14.750743   1.000000
   18       15.674446   1.000000
   19       15.859768   1.000000
   20       15.875523   1.000000
   21       16.362385   0.066222
   22       17.905039  -0.000000
   23       21.346849   0.000000
   24       22.412711   0.000000
 
  0.4375000E+00  0.4375000E+00  0.1875000E+00  0.4687500E-01
    1        8.784683   1.000000
    2        8.990456   1.000000
    3        8.990456   1.000000
    4        9.088285   1.000000
    5       10.631548   1.000000
    6       10.854748   1.000000
    7       10.854748   1.000000
    8       11.332220   1.000000
    9       12.131112   1.000000
   10       12.189263   1.000000
   11       12.189263   1.000000
   12       12.505689   1.000000
   13       12.505759   1.000000
   14       12.572048   1.000000
   15       12.631132   1.000000
   16       12.631132   1.000000
   17       14.690891   1.000000
   18       15.310983   1.000000
   19       15.310983   1.000000
   20       15.442975   1.000000
   21       17.709427  -0.000000
   22       19.312503   0.000000
   23       19.312503   0.000000
   24       20.778261   0.000000
 
  0.3125000E+00  0.3125000E+00  0.3125000E+00  0.1562500E-01
    1        8.294323   1.000000
    2        8.794916   1.000000
    3        8.794916   1.000000
    4        8.794916   1.000000
    5       10.524101   1.000000
    6       10.524101   1.000000
    7       10.524101   1.000000
    8       11.843418   1.000000
    9       11.843418   1.000000
   10       12.439781   1.000000
   11       12.439781   1.000000
   12       12.439781   1.000000
   13       12.669196   1.000000
   14       12.669196   1.000000
   15       12.669196   1.000000
   16       12.840878   1.000000
   17       15.015822   1.000000
   18       15.015822   1.000000
   19       16.390922  -0.014261
   20       16.390922  -0.014261
   21       16.390922  -0.014261
   22       20.427916   0.000000
   23       20.427916   0.000000
   24       20.427916   0.000000
 
  0.4375000E+00  0.3125000E+00  0.3125000E+00  0.4687500E-01
    1        8.320094   1.000000
    2        8.526050   1.000000
    3        8.758678   1.000000
    4        8.758678   1.000000
    5       10.613786   1.000000
    6       10.613786   1.000000
    7       11.076012   1.000000
    8       11.565410   1.000000
    9       11.868988   1.000000
   10       12.154359   1.000000
   11       12.340931   1.000000
   12       12.340931   1.000000
   13       12.787637   1.000000
   14       12.975635   1.000000
   15       12.975635   1.000000
   16       13.181168   1.000000
   17       15.766778   1.000000
   18       15.873980   1.000000
   19       16.174627   1.035392
   20       16.174627   1.035392
   21       16.265422   0.768603
   22       17.932656  -0.000000
   23       20.740169   0.000000
   24       20.740169   0.000000
 
  0.4375000E+00  0.4375000E+00  0.3125000E+00  0.4687500E-01
    1        8.207719   1.000000
    2        8.369279   1.000000
    3        8.369279   1.000000
    4        8.447300   1.000000
    5       10.952456   1.000000
    6       11.101993   1.000000
    7       11.101993   1.000000
    8       11.483211   1.000000
    9       11.679171   1.000000
   10       11.880114   1.000000
   11       11.880114   1.000000
   12       11.934088   1.000000
   13       13.730093   1.000000
   14       13.730093   1.000000
   15       13.751569   1.000000
   16       14.147154   1.000000
   17       15.525112   1.000000
   18       16.038948   1.000723
   19       16.038948   1.000723
   20       16.049131   1.001154
   21       17.022708  -0.000000
   22       18.676924  -0.000000
   23       18.676924  -0.000000
   24       19.698736   0.000000
 
  0.4375000E+00  0.4375000E+00  0.4375000E+00  0.1562500E-01
    1        7.961701   1.000000
    2        8.049338   1.000000
    3        8.049338   1.000000
    4        8.049338   1.000000
    5       11.294929   1.000000
    6       11.294929   1.000000
    7       11.294929   1.000000
    8       11.489106   1.000000
    9       11.489106   1.000000
   10       11.578113   1.000000
   11       11.578113   1.000000
   12       11.578113   1.000000
   13       14.927445   1.000000
   14       14.927445   1.000000
   15       14.927445   1.000000
   16       15.947564   1.000004
   17       16.116255   1.013324
   18       16.116255   1.013324
   19       16.307572   0.429454
   20       16.307572   0.429454
   21       16.307572   0.429454
   22       17.958147  -0.000000
   23       17.958147  -0.000000
   24       17.958147  -0.000000
