       N       E                     dE             d eps       ncg     rms          rms(c)
DAV:   1     0.152099587170E+03    0.15210E+03   -0.19428E+04   960   0.138E+03
DAV:   2    -0.151635174975E+02   -0.16726E+03   -0.16677E+03  1224   0.263E+02
DAV:   3    -0.159476784750E+02   -0.78416E+00   -0.78224E+00  1008   0.262E+01
DAV:   4    -0.159509332396E+02   -0.32548E-02   -0.32547E-02  1104   0.131E+00
DAV:   5    -0.159509632495E+02   -0.30010E-04   -0.30008E-04   960   0.116E-01    0.397E+01
DAV:   6    -0.149722684885E+02    0.97869E+00   -0.19843E+00   960   0.107E+01    0.215E+01
DAV:   7    -0.147243946630E+02    0.24787E+00   -0.43755E-01   984   0.447E+00    0.388E+00
DAV:   8    -0.147070076258E+02    0.17387E-01   -0.42398E-02   960   0.175E+00    0.270E-01
DAV:   9    -0.147070392422E+02   -0.31616E-04   -0.10070E-04   912   0.795E-02
   1 F= -.14707039E+02 E0= -.14707836E+02  d E =0.239139E-02
