 vasp.5.4.1 05Feb16 (build Feb 08 2018 09:21:51) complex                        
  
 executed on             LinuxIFC date 2019.11.20  21:31:48
 running on   24 total cores
 distrk:  each k-point on   24 cores,    1 groups
 distr:  one band on NCORES_PER_BAND=   1 cores,   24 groups


--------------------------------------------------------------------------------------------------------


 INCAR:
 POTCAR:    PAW_PBE Pd 04Jan2005                  

 ----------------------------------------------------------------------------- 
|                                                                             |
|           W    W    AA    RRRRR   N    N  II  N    N   GGGG   !!!           |
|           W    W   A  A   R    R  NN   N  II  NN   N  G    G  !!!           |
|           W    W  A    A  R    R  N N  N  II  N N  N  G       !!!           |
|           W WW W  AAAAAA  RRRRR   N  N N  II  N  N N  G  GGG   !            |
|           WW  WW  A    A  R   R   N   NN  II  N   NN  G    G                |
|           W    W  A    A  R    R  N    N  II  N    N   GGGG   !!!           |
|                                                                             |
|      For optimal performance we recommend to set                            |
|        NCORE= 4 - approx SQRT( number of cores)                             |
|      NCORE specifies how many cores store one orbital (NPAR=cpu/NCORE).     |
|      This setting can  greatly improve the performance of VASP for DFT.     |
|      The default, NPAR=number of cores might be grossly inefficient         |
|      on modern multi-core architectures or massively parallel machines.     |
|      Do your own testing !!!!                                               |
|      Unfortunately you need to use the default for GW and RPA calculations. |
|      (for HF NCORE is supported but not extensively tested yet)             |
|                                                                             |
 ----------------------------------------------------------------------------- 

 POTCAR:    PAW_PBE Pd 04Jan2005                  
   VRHFIN =Pd : s1 d9                                                           
   LEXCH  = PE                                                                  
   EATOM  =   809.7530 eV,   59.5152 Ry                                         
                                                                                
   TITEL  = PAW_PBE Pd 04Jan2005                                                
   LULTRA =        F    use ultrasoft PP ?                                      
   IUNSCR =        1    unscreen: 0-lin 1-nonlin 2-no                           
   RPACOR =    2.000    partial core radius                                     
   POMASS =  106.420; ZVAL   =   10.000    mass and valenz                      
   RCORE  =    2.600    outmost cutoff radius                                   
   RWIGS  =    2.710; RWIGS  =    1.434    wigner-seitz radius (au A)           
   ENMAX  =  250.925; ENMIN  =  188.194 eV                                      
   ICORE  =        3    local potential                                         
   LCOR   =        T    correct aug charges                                     
   LPAW   =        T    paw PP                                                  
   EAUG   =  416.230                                                            
   DEXC   =    0.000                                                            
   RMAX   =    2.653    core radius for proj-oper                               
   RAUG   =    1.300    factor for augmentation sphere                          
   RDEP   =    2.734    radius for radial grids                                 
   RDEPT  =    2.103    core radius for aug-charge                              
                                                                                
   Atomic configuration                                                         
   12 entries                                                                   
     n  l   j            E        occ.                                          
     1  0  0.50    -24164.6631   2.0000                                         
     2  0  0.50     -3530.9218   2.0000                                         
     2  1  1.50     -3165.6822   6.0000                                         
     3  0  0.50      -639.4577   2.0000                                         
     3  1  1.50      -519.4532   6.0000                                         
     3  2  2.50      -328.9757  10.0000                                         
     4  0  0.50       -88.7014   2.0000                                         
     4  1  1.50       -54.4540   6.0000                                         
     4  2  2.50        -6.6878   9.0000                                         
     5  0  0.50        -4.3543   1.0000                                         
     5  1  0.50        -1.3606   0.0000                                         
     4  3  2.50        -1.3606   0.0000                                         
   Description                                                                  
     l       E           TYP  RCUT    TYP  RCUT                                 
     2     -6.6878251     23  2.400                                             
     2     -8.0484077     23  2.400                                             
     0     -4.3542939     23  2.400                                             
     0      4.3406793     23  2.400                                             
     1     -4.0817478     23  2.600                                             
     1     15.8380318     23  2.600                                             
     3     -4.0817478     23  2.400                                             
  local pseudopotential read in
  partial core-charges read in
  partial kinetic energy density read in
  atomic valenz-charges read in
  non local Contribution for L=           2  read in
    real space projection operators read in
  non local Contribution for L=           2  read in
    real space projection operators read in
  non local Contribution for L=           0  read in
    real space projection operators read in
  non local Contribution for L=           0  read in
    real space projection operators read in
  non local Contribution for L=           1  read in
    real space projection operators read in
  non local Contribution for L=           1  read in
    real space projection operators read in
    PAW grid and wavefunctions read in
 
   number of l-projection  operators is LMAX  =           6
   number of lm-projection operators is LMMAX =          18
 
  PAW_PBE Pd 04Jan2005                  :
 energy of atom  1       EATOM= -809.7530
 kinetic energy error for atom=    0.0091 (will be added to EATOM!!)
 
 
 POSCAR: Pd                                      
  positions in cartesian coordinates
  No initial velocities read in
 exchange correlation table for  LEXCH =        8
   RHO(1)=    0.500       N(1)  =     2000
   RHO(2)=  100.500       N(2)  =     4000
 


--------------------------------------------------------------------------------------------------------


 ion  position               nearest neighbor table
   1  0.000  0.000  0.000-   2 2.48   3 2.48   4 2.48   2 2.48   3 2.48   2 2.48   4 2.48   2 2.48
                             3 2.48   4 2.48   3 2.48   4 2.48
   2  0.000  0.500  0.500-   1 2.48   3 2.48   4 2.48   1 2.48   4 2.48   1 2.48   3 2.48   1 2.48
                             3 2.48   4 2.48   4 2.48   3 2.48
   3  0.500  0.000  0.500-   1 2.48   2 2.48   4 2.48   1 2.48   4 2.48   2 2.48   4 2.48   4 2.48
                             1 2.48   2 2.48   1 2.48   2 2.48
   4  0.500  0.500  0.000-   1 2.48   2 2.48   3 2.48   2 2.48   3 2.48   1 2.48   3 2.48   3 2.48
                             1 2.48   2 2.48   2 2.48   1 2.48
 
  LATTYP: Found a simple cubic cell.
 ALAT       =     3.5010000000
  
  Lattice vectors:
  
 A1 = (   3.5010000000,   0.0000000000,   0.0000000000)
 A2 = (   0.0000000000,   3.5010000000,   0.0000000000)
 A3 = (   0.0000000000,   0.0000000000,   3.5010000000)


Analysis of symmetry for initial positions (statically):
=====================================================================
 Subroutine PRICEL returns following result:
 
  LATTYP: Found a face centered cubic cell.
 ALAT       =     3.5010000000
  
  Lattice vectors:
  
 A1 = (   1.7505000000,   1.7505000000,   0.0000000000)
 A2 = (   1.7505000000,   0.0000000000,  -1.7505000000)
 A3 = (   0.0000000000,   1.7505000000,  -1.7505000000)
 
   4 primitive cells build up your supercell.
 

 Routine SETGRP: Setting up the symmetry group for a 
 simple cubic supercell.


 Subroutine GETGRP returns: Found 48 space group operations
 (whereof 48 operations were pure point group operations)
 out of a pool of 48 trial point group operations.


The static configuration has the point symmetry O_h .


Analysis of symmetry for dynamics (positions and initial velocities):
=====================================================================
 Subroutine PRICEL returns following result:
 
  LATTYP: Found a face centered cubic cell.
 ALAT       =     3.5010000000
  
  Lattice vectors:
  
 A1 = (   1.7505000000,   1.7505000000,   0.0000000000)
 A2 = (   1.7505000000,   0.0000000000,  -1.7505000000)
 A3 = (   0.0000000000,   1.7505000000,  -1.7505000000)
 
   4 primitive cells build up your supercell.
 

 Routine SETGRP: Setting up the symmetry group for a 
 simple cubic supercell.


 Subroutine GETGRP returns: Found 48 space group operations
 (whereof 48 operations were pure point group operations)
 out of a pool of 48 trial point group operations.


The dynamic configuration has the point symmetry O_h .


 Subroutine INISYM returns: Found 48 space group operations
 (whereof 48 operations are pure point group operations),
 and found     4 'primitive' translations

 
 
 KPOINTS: KPOINTS created by Atomic Simulation Env

Automatic generation of k-mesh.
Space group operators:
 irot       det(A)        alpha          n_x          n_y          n_z        tau_x        tau_y        tau_z
    1     1.000000     0.000000     1.000000     0.000000     0.000000     0.000000     0.000000     0.000000
    2    -1.000000     0.000000     1.000000     0.000000     0.000000     0.000000     0.000000     0.000000
    3     1.000000   120.000000    -0.577350    -0.577350    -0.577350     0.000000     0.000000     0.000000
    4    -1.000000   120.000000    -0.577350    -0.577350    -0.577350     0.000000     0.000000     0.000000
    5     1.000000   120.000000     0.577350     0.577350     0.577350     0.000000     0.000000     0.000000
    6    -1.000000   120.000000     0.577350     0.577350     0.577350     0.000000     0.000000     0.000000
    7     1.000000    90.000000     0.000000     0.000000    -1.000000     0.000000     0.000000     0.000000
    8    -1.000000    90.000000     0.000000     0.000000    -1.000000     0.000000     0.000000     0.000000
    9     1.000000   180.000000     0.000000     0.707107     0.707107     0.000000     0.000000     0.000000
   10    -1.000000   180.000000     0.000000     0.707107     0.707107     0.000000     0.000000     0.000000
   11     1.000000    90.000000     0.000000     1.000000     0.000000     0.000000     0.000000     0.000000
   12    -1.000000    90.000000     0.000000     1.000000     0.000000     0.000000     0.000000     0.000000
   13     1.000000   180.000000     0.000000     0.000000     1.000000     0.000000     0.000000     0.000000
   14    -1.000000   180.000000     0.000000     0.000000     1.000000     0.000000     0.000000     0.000000
   15     1.000000   120.000000    -0.577350     0.577350     0.577350     0.000000     0.000000     0.000000
   16    -1.000000   120.000000    -0.577350     0.577350     0.577350     0.000000     0.000000     0.000000
   17     1.000000   120.000000    -0.577350     0.577350    -0.577350     0.000000     0.000000     0.000000
   18    -1.000000   120.000000    -0.577350     0.577350    -0.577350     0.000000     0.000000     0.000000
   19     1.000000    90.000000     0.000000     0.000000     1.000000     0.000000     0.000000     0.000000
   20    -1.000000    90.000000     0.000000     0.000000     1.000000     0.000000     0.000000     0.000000
   21     1.000000    90.000000    -1.000000     0.000000     0.000000     0.000000     0.000000     0.000000
   22    -1.000000    90.000000    -1.000000     0.000000     0.000000     0.000000     0.000000     0.000000
   23     1.000000   180.000000     0.707107     0.000000     0.707107     0.000000     0.000000     0.000000
   24    -1.000000   180.000000     0.707107     0.000000     0.707107     0.000000     0.000000     0.000000
   25     1.000000   120.000000     0.577350    -0.577350     0.577350     0.000000     0.000000     0.000000
   26    -1.000000   120.000000     0.577350    -0.577350     0.577350     0.000000     0.000000     0.000000
   27     1.000000   120.000000    -0.577350    -0.577350     0.577350     0.000000     0.000000     0.000000
   28    -1.000000   120.000000    -0.577350    -0.577350     0.577350     0.000000     0.000000     0.000000
   29     1.000000   180.000000     1.000000     0.000000     0.000000     0.000000     0.000000     0.000000
   30    -1.000000   180.000000     1.000000     0.000000     0.000000     0.000000     0.000000     0.000000
   31     1.000000    90.000000     0.000000    -1.000000     0.000000     0.000000     0.000000     0.000000
   32    -1.000000    90.000000     0.000000    -1.000000     0.000000     0.000000     0.000000     0.000000
   33     1.000000   180.000000     0.707107     0.707107     0.000000     0.000000     0.000000     0.000000
   34    -1.000000   180.000000     0.707107     0.707107     0.000000     0.000000     0.000000     0.000000
   35     1.000000    90.000000     1.000000     0.000000     0.000000     0.000000     0.000000     0.000000
   36    -1.000000    90.000000     1.000000     0.000000     0.000000     0.000000     0.000000     0.000000
   37     1.000000   120.000000     0.577350    -0.577350    -0.577350     0.000000     0.000000     0.000000
   38    -1.000000   120.000000     0.577350    -0.577350    -0.577350     0.000000     0.000000     0.000000
   39     1.000000   180.000000     0.000000     1.000000     0.000000     0.000000     0.000000     0.000000
   40    -1.000000   180.000000     0.000000     1.000000     0.000000     0.000000     0.000000     0.000000
   41     1.000000   120.000000     0.577350     0.577350    -0.577350     0.000000     0.000000     0.000000
   42    -1.000000   120.000000     0.577350     0.577350    -0.577350     0.000000     0.000000     0.000000
   43     1.000000   180.000000     0.000000    -0.707107     0.707107     0.000000     0.000000     0.000000
   44    -1.000000   180.000000     0.000000    -0.707107     0.707107     0.000000     0.000000     0.000000
   45     1.000000   180.000000     0.707107    -0.707107     0.000000     0.000000     0.000000     0.000000
   46    -1.000000   180.000000     0.707107    -0.707107     0.000000     0.000000     0.000000     0.000000
   47     1.000000   180.000000     0.707107     0.000000    -0.707107     0.000000     0.000000     0.000000
   48    -1.000000   180.000000     0.707107     0.000000    -0.707107     0.000000     0.000000     0.000000
 
 Subroutine IBZKPT returns following result:
 ===========================================
 
 Found     20 irreducible k-points:
 
 Following reciprocal coordinates:
            Coordinates               Weight
  0.062500  0.062500  0.062500      8.000000
  0.187500  0.062500  0.062500     24.000000
  0.312500  0.062500  0.062500     24.000000
  0.437500  0.062500  0.062500     24.000000
  0.187500  0.187500  0.062500     24.000000
  0.312500  0.187500  0.062500     48.000000
  0.437500  0.187500  0.062500     48.000000
  0.312500  0.312500  0.062500     24.000000
  0.437500  0.312500  0.062500     48.000000
  0.437500  0.437500  0.062500     24.000000
  0.187500  0.187500  0.187500      8.000000
  0.312500  0.187500  0.187500     24.000000
  0.437500  0.187500  0.187500     24.000000
  0.312500  0.312500  0.187500     24.000000
  0.437500  0.312500  0.187500     48.000000
  0.437500  0.437500  0.187500     24.000000
  0.312500  0.312500  0.312500      8.000000
  0.437500  0.312500  0.312500     24.000000
  0.437500  0.437500  0.312500     24.000000
  0.437500  0.437500  0.437500      8.000000
 
 Following cartesian coordinates:
            Coordinates               Weight
  0.017852  0.017852  0.017852      8.000000
  0.053556  0.017852  0.017852     24.000000
  0.089260  0.017852  0.017852     24.000000
  0.124964  0.017852  0.017852     24.000000
  0.053556  0.053556  0.017852     24.000000
  0.089260  0.053556  0.017852     48.000000
  0.124964  0.053556  0.017852     48.000000
  0.089260  0.089260  0.017852     24.000000
  0.124964  0.089260  0.017852     48.000000
  0.124964  0.124964  0.017852     24.000000
  0.053556  0.053556  0.053556      8.000000
  0.089260  0.053556  0.053556     24.000000
  0.124964  0.053556  0.053556     24.000000
  0.089260  0.089260  0.053556     24.000000
  0.124964  0.089260  0.053556     48.000000
  0.124964  0.124964  0.053556     24.000000
  0.089260  0.089260  0.089260      8.000000
  0.124964  0.089260  0.089260     24.000000
  0.124964  0.124964  0.089260     24.000000
  0.124964  0.124964  0.124964      8.000000
 


--------------------------------------------------------------------------------------------------------




 Dimension of arrays:
   k-points           NKPTS =     20   k-points in BZ     NKDIM =     20   number of bands    NBANDS=     24
   number of dos      NEDOS =    301   number of ions     NIONS =      4
   non local maximal  LDIM  =      6   non local SUM 2l+1 LMDIM =     18
   total plane-waves  NPLWV =   5832
   max r-space proj   IRMAX =      1   max aug-charges    IRDMAX=   6791
   dimension x,y,z NGX =    18 NGY =   18 NGZ =   18
   dimension x,y,z NGXF=    36 NGYF=   36 NGZF=   36
   support grid    NGXF=    36 NGYF=   36 NGZF=   36
   ions per type =               4
 NGX,Y,Z   is equivalent  to a cutoff of   8.55,  8.55,  8.55 a.u.
 NGXF,Y,Z  is equivalent  to a cutoff of  17.09, 17.09, 17.09 a.u.


 I would recommend the setting:
   dimension x,y,z NGX =    17 NGY =   17 NGZ =   17
 SYSTEM =  unknown system                          
 POSCAR =  Pd                                      

 Startparameter for this run:
   NWRITE =      2    write-flag & timer
   PREC   = normal    normal or accurate (medium, high low for compatibility)
   ISTART =      0    job   : 0-new  1-cont  2-samecut
   ICHARG =      2    charge: 1-file 2-atom 10-const
   ISPIN  =      1    spin polarized calculation?
   LNONCOLLINEAR =      F non collinear calculations
   LSORBIT =      F    spin-orbit coupling
   INIWAV =      1    electr: 0-lowe 1-rand  2-diag
   LASPH  =      F    aspherical Exc in radial PAW
   METAGGA=      F    non-selfconsistent MetaGGA calc.

 Electronic Relaxation 1
   ENCUT  =  400.0 eV  29.40 Ry    5.42 a.u.   5.71  5.71  5.71*2*pi/ulx,y,z
   ENINI  =  400.0     initial cutoff
   ENAUG  =  416.2 eV  augmentation charge cutoff
   NELM   =     60;   NELMIN=  2; NELMDL= -5     # of ELM steps 
   EDIFF  = 0.1E-03   stopping-criterion for ELM
   LREAL  =      F    real-space projection
   NLSPLINE    = F    spline interpolate recip. space projectors
   LCOMPAT=      F    compatible to vasp.4.4
   GGA_COMPAT  = T    GGA compatible to vasp.4.4-vasp.4.6
   LMAXPAW     = -100 max onsite density
   LMAXMIX     =    2 max onsite mixed and CHGCAR
   VOSKOWN=      0    Vosko Wilk Nusair interpolation
   ROPT   =    0.00000
 Ionic relaxation
   EDIFFG = 0.1E-02   stopping-criterion for IOM
   NSW    =      0    number of steps for IOM
   NBLOCK =      1;   KBLOCK =      1    inner block; outer block 
   IBRION =     -1    ionic relax: 0-MD 1-quasi-New 2-CG
   NFREE  =      0    steps in history (QN), initial steepest desc. (CG)
   ISIF   =      2    stress and relaxation
   IWAVPR =     10    prediction:  0-non 1-charg 2-wave 3-comb
   ISYM   =      2    0-nonsym 1-usesym 2-fastsym
   LCORR  =      T    Harris-Foulkes like correction to forces

   POTIM  = 0.5000    time-step for ionic-motion
   TEIN   =    0.0    initial temperature
   TEBEG  =    0.0;   TEEND  =   0.0 temperature during run
   SMASS  =  -3.00    Nose mass-parameter (am)
   estimated Nose-frequenzy (Omega)   =  0.10E-29 period in steps =****** mass=  -0.280E-27a.u.
   SCALEE = 1.0000    scale energy and forces
   NPACO  =    256;   APACO  = 16.0  distance and # of slots for P.C.
   PSTRESS=    0.0 pullay stress

  Mass of Ions in am
   POMASS = 106.42
  Ionic Valenz
   ZVAL   =  10.00
  Atomic Wigner-Seitz radii
   RWIGS  =  -1.00
  virtual crystal weights 
   VCA    =   1.00
   NELECT =      40.0000    total number of electrons
   NUPDOWN=      -1.0000    fix difference up-down

 DOS related values:
   EMIN   =  10.00;   EMAX   =-10.00  energy-range for DOS
   EFERMI =   0.00
   ISMEAR =     1;   SIGMA  =   0.10  broadening in eV -4-tet -1-fermi 0-gaus

 Electronic relaxation 2 (details)
   IALGO  =     38    algorithm
   LDIAG  =      T    sub-space diagonalisation (order eigenvalues)
   LSUBROT=      F    optimize rotation matrix (better conditioning)
   TURBO    =      0    0=normal 1=particle mesh
   IRESTART =      0    0=no restart 2=restart with 2 vectors
   NREBOOT  =      0    no. of reboots
   NMIN     =      0    reboot dimension
   EREF     =   0.00    reference energy to select bands
   IMIX   =      4    mixing-type and parameters
     AMIX     =   0.40;   BMIX     =  1.00
     AMIX_MAG =   1.60;   BMIX_MAG =  1.00
     AMIN     =   0.10
     WC   =   100.;   INIMIX=   1;  MIXPRE=   1;  MAXMIX= -45

 Intra band minimization:
   WEIMIN = 0.0000     energy-eigenvalue tresh-hold
   EBREAK =  0.10E-05  absolut break condition
   DEPER  =   0.30     relativ break condition  

   TIME   =   0.40     timestep for ELM

  volume/ion in A,a.u.               =      10.73        72.40
  Fermi-wavevector in a.u.,A,eV,Ry     =   1.599200  3.022049 34.796082  2.557440
  Thomas-Fermi vector in A             =   2.696530
 
 Write flags
   LWAVE  =      F    write WAVECAR
   LCHARG =      F    write CHGCAR
   LVTOT  =      F    write LOCPOT, total local potential
   LVHAR  =      F    write LOCPOT, Hartree potential only
   LELF   =      F    write electronic localiz. function (ELF)
   LORBIT =      0    0 simple, 1 ext, 2 COOP (PROOUT)


 Dipole corrections
   LMONO  =      F    monopole corrections only (constant potential shift)
   LDIPOL =      F    correct potential (dipole corrections)
   IDIPOL =      0    1-x, 2-y, 3-z, 4-all directions 
   EPSILON=  1.0000000 bulk dielectric constant

 Exchange correlation treatment:
   GGA     =    --    GGA type
   LEXCH   =     8    internal setting for exchange type
   VOSKOWN=      0    Vosko Wilk Nusair interpolation
   LHFCALC =     F    Hartree Fock is set to
   LHFONE  =     F    Hartree Fock one center treatment
   AEXX    =    0.0000 exact exchange contribution

 Linear response parameters
   LEPSILON=     F    determine dielectric tensor
   LRPA    =     F    only Hartree local field effects (RPA)
   LNABLA  =     F    use nabla operator in PAW spheres
   LVEL    =     F    velocity operator in full k-point grid
   LINTERFAST=   F  fast interpolation
   KINTER  =     0    interpolate to denser k-point grid
   CSHIFT  =0.1000    complex shift for real part using Kramers Kronig
   OMEGAMAX=  -1.0    maximum frequency
   DEG_THRESHOLD= 0.2000000E-02 threshold for treating states as degnerate
   RTIME   =    0.100 relaxation time in fs

 Orbital magnetization related:
   ORBITALMAG=     F  switch on orbital magnetization
   LCHIMAG   =     F  perturbation theory with respect to B field
   DQ        =  0.001000  dq finite difference perturbation B field



--------------------------------------------------------------------------------------------------------


 Static calculation
 charge density and potential will be updated during run
 non-spin polarized calculation
 Variant of blocked Davidson
 Davidson routine will perform the subspace rotation
 perform sub-space diagonalisation
    after iterative eigenvector-optimisation
 modified Broyden-mixing scheme, WC =      100.0
 initial mixing is a Kerker type mixing with AMIX =  0.4000 and BMIX =      1.0000
 Hartree-type preconditioning will be used
 using additional bands            4
 reciprocal scheme for non local part
 use partial core corrections
 calculate Harris-corrections to forces 
   (improved forces if not selfconsistent)
 use gradient corrections 
 use of overlap-Matrix (Vanderbilt PP)
 Methfessel and Paxton  Order N= 1 SIGMA  =   0.10


--------------------------------------------------------------------------------------------------------


  energy-cutoff  :      400.00
  volume of cell :       42.91
      direct lattice vectors                 reciprocal lattice vectors
     3.501000000  0.000000000  0.000000000     0.285632676  0.000000000  0.000000000
     0.000000000  3.501000000  0.000000000     0.000000000  0.285632676  0.000000000
     0.000000000  0.000000000  3.501000000     0.000000000  0.000000000  0.285632676

  length of vectors
     3.501000000  3.501000000  3.501000000     0.285632676  0.285632676  0.285632676


 
 k-points in units of 2pi/SCALE and weight: KPOINTS created by Atomic Simulation Env
   0.01785204  0.01785204  0.01785204       0.016
   0.05355613  0.01785204  0.01785204       0.047
   0.08926021  0.01785204  0.01785204       0.047
   0.12496430  0.01785204  0.01785204       0.047
   0.05355613  0.05355613  0.01785204       0.047
   0.08926021  0.05355613  0.01785204       0.094
   0.12496430  0.05355613  0.01785204       0.094
   0.08926021  0.08926021  0.01785204       0.047
   0.12496430  0.08926021  0.01785204       0.094
   0.12496430  0.12496430  0.01785204       0.047
   0.05355613  0.05355613  0.05355613       0.016
   0.08926021  0.05355613  0.05355613       0.047
   0.12496430  0.05355613  0.05355613       0.047
   0.08926021  0.08926021  0.05355613       0.047
   0.12496430  0.08926021  0.05355613       0.094
   0.12496430  0.12496430  0.05355613       0.047
   0.08926021  0.08926021  0.08926021       0.016
   0.12496430  0.08926021  0.08926021       0.047
   0.12496430  0.12496430  0.08926021       0.047
   0.12496430  0.12496430  0.12496430       0.016
 
 k-points in reciprocal lattice and weights: KPOINTS created by Atomic Simulation Env
   0.06250000  0.06250000  0.06250000       0.016
   0.18750000  0.06250000  0.06250000       0.047
   0.31250000  0.06250000  0.06250000       0.047
   0.43750000  0.06250000  0.06250000       0.047
   0.18750000  0.18750000  0.06250000       0.047
   0.31250000  0.18750000  0.06250000       0.094
   0.43750000  0.18750000  0.06250000       0.094
   0.31250000  0.31250000  0.06250000       0.047
   0.43750000  0.31250000  0.06250000       0.094
   0.43750000  0.43750000  0.06250000       0.047
   0.18750000  0.18750000  0.18750000       0.016
   0.31250000  0.18750000  0.18750000       0.047
   0.43750000  0.18750000  0.18750000       0.047
   0.31250000  0.31250000  0.18750000       0.047
   0.43750000  0.31250000  0.18750000       0.094
   0.43750000  0.43750000  0.18750000       0.047
   0.31250000  0.31250000  0.31250000       0.016
   0.43750000  0.31250000  0.31250000       0.047
   0.43750000  0.43750000  0.31250000       0.047
   0.43750000  0.43750000  0.43750000       0.016
 
 position of ions in fractional coordinates (direct lattice) 
   0.00000000  0.00000000  0.00000000
   0.00000000  0.50000000  0.50000000
   0.50000000  0.00000000  0.50000000
   0.50000000  0.50000000  0.00000000
 
 position of ions in cartesian coordinates  (Angst):
   0.00000000  0.00000000  0.00000000
   0.00000000  1.75050000  1.75050000
   1.75050000  0.00000000  1.75050000
   1.75050000  1.75050000  0.00000000
 


--------------------------------------------------------------------------------------------------------


 k-point  1 :   0.0625 0.0625 0.0625  plane waves:     763
 k-point  2 :   0.1875 0.0625 0.0625  plane waves:     775
 k-point  3 :   0.3125 0.0625 0.0625  plane waves:     786
 k-point  4 :   0.4375 0.0625 0.0625  plane waves:     792
 k-point  5 :   0.1875 0.1875 0.0625  plane waves:     786
 k-point  6 :   0.3125 0.1875 0.0625  plane waves:     780
 k-point  7 :   0.4375 0.1875 0.0625  plane waves:     781
 k-point  8 :   0.3125 0.3125 0.0625  plane waves:     778
 k-point  9 :   0.4375 0.3125 0.0625  plane waves:     783
 k-point 10 :   0.4375 0.4375 0.0625  plane waves:     781
 k-point 11 :   0.1875 0.1875 0.1875  plane waves:     781
 k-point 12 :   0.3125 0.1875 0.1875  plane waves:     777
 k-point 13 :   0.4375 0.1875 0.1875  plane waves:     782
 k-point 14 :   0.3125 0.3125 0.1875  plane waves:     775
 k-point 15 :   0.4375 0.3125 0.1875  plane waves:     780
 k-point 16 :   0.4375 0.4375 0.1875  plane waves:     777
 k-point 17 :   0.3125 0.3125 0.3125  plane waves:     774
 k-point 18 :   0.4375 0.3125 0.3125  plane waves:     776
 k-point 19 :   0.4375 0.4375 0.3125  plane waves:     768
 k-point 20 :   0.4375 0.4375 0.4375  plane waves:     771

 maximum and minimum number of plane-waves per node :       792      763

 maximum number of plane-waves:       792
 maximum index in each direction: 
   IXMAX=    5   IYMAX=    5   IZMAX=    5
   IXMIN=   -6   IYMIN=   -6   IZMIN=   -6

 WARNING: aliasing errors must be expected set NGX to  24 to avoid them
 WARNING: aliasing errors must be expected set NGY to  24 to avoid them
 WARNING: aliasing errors must be expected set NGZ to  24 to avoid them
 aliasing errors are usually negligible using standard VASP settings
 and one can safely disregard these warnings

 serial   3D FFT for wavefunctions
 parallel 3D FFT for charge:
    minimum data exchange during FFTs selected (reduces bandwidth)


 total amount of memory used by VASP on root node    33149. kBytes
========================================================================

   base      :      30000. kBytes
   nonl-proj :       2331. kBytes
   fftplans  :        113. kBytes
   grid      :        367. kBytes
   one-center:         62. kBytes
   wavefun   :        276. kBytes
 
     INWAV:  cpu time    0.0000: real time    0.0063
 Broyden mixing: mesh for mixing (old mesh)
   NGX = 11   NGY = 11   NGZ = 11
  (NGX  = 36   NGY  = 36   NGZ  = 36)
  gives a total of   1331 points

 initial charge density was supplied:
 charge density of overlapping atoms calculated
 number of electron      40.0000000 magnetization 
 keeping initial charge density in first step


--------------------------------------------------------------------------------------------------------


 Maximum index for augmentation-charges          421 (set IRDMAX)


--------------------------------------------------------------------------------------------------------


 First call to EWALD:  gamma=   0.506
 Maximum number of real-space cells 3x 3x 3
 Maximum number of reciprocal cells 3x 3x 3

 FEWALD executed in parallel
    FEWALD:  cpu time    0.0027: real time    0.0028


----------------------------------------- Iteration    1(   1)  ---------------------------------------


    POTLOK:  cpu time    0.0136: real time    0.0146
    SETDIJ:  cpu time    0.0016: real time    0.0284
     EDDAV:  cpu time    0.1551: real time    0.1663
       DOS:  cpu time    0.0009: real time    0.0012
    --------------------------------------------
      LOOP:  cpu time    0.1735: real time    0.2146

 eigenvalue-minimisations  :   960
 total energy-change (2. order) : 0.1520996E+03  (-0.1942796E+04)
 number of electron      40.0000000 magnetization 
 augmentation part       40.0000000 magnetization 

 Free energy of the ion-electron system (eV)
  ---------------------------------------------------
  alpha Z        PSCENC =       243.01114376
  Ewald energy   TEWEN  =     -3771.55319949
  -Hartree energ DENC   =      -359.51874106
  -exchange      EXHF   =         0.00000000
  -V(xc)+E(xc)   XCENC  =      -111.37428949
  PAW double counting   =      3226.95325816    -2978.06409795
  entropy T*S    EENTRO =        -0.00344022
  eigenvalues    EBANDS =       663.67338314
  atomic energy  EATOM  =      3238.97557032
  Solvation  Ediel_sol  =         0.00000000
  ---------------------------------------------------
  free energy    TOTEN  =       152.09958717 eV

  energy without entropy =      152.10302739  energy(sigma->0) =      152.10073391


--------------------------------------------------------------------------------------------------------




----------------------------------------- Iteration    1(   2)  ---------------------------------------


     EDDAV:  cpu time    0.1530: real time    0.1530
       DOS:  cpu time    0.0004: real time    0.0004
    --------------------------------------------
      LOOP:  cpu time    0.1546: real time    0.1558

 eigenvalue-minimisations  :  1224
 total energy-change (2. order) :-0.1672631E+03  (-0.1667695E+03)
 number of electron      40.0000000 magnetization 
 augmentation part       40.0000000 magnetization 

 Free energy of the ion-electron system (eV)
  ---------------------------------------------------
  alpha Z        PSCENC =       243.01114376
  Ewald energy   TEWEN  =     -3771.55319949
  -Hartree energ DENC   =      -359.51874106
  -exchange      EXHF   =         0.00000000
  -V(xc)+E(xc)   XCENC  =      -111.37428949
  PAW double counting   =      3226.95325816    -2978.06409795
  entropy T*S    EENTRO =         0.00079532
  eigenvalues    EBANDS =       496.40604293
  atomic energy  EATOM  =      3238.97557032
  Solvation  Ediel_sol  =         0.00000000
  ---------------------------------------------------
  free energy    TOTEN  =       -15.16351750 eV

  energy without entropy =      -15.16431282  energy(sigma->0) =      -15.16378260


--------------------------------------------------------------------------------------------------------




----------------------------------------- Iteration    1(   3)  ---------------------------------------


     EDDAV:  cpu time    0.1348: real time    0.1355
       DOS:  cpu time    0.0010: real time    0.0010
    --------------------------------------------
      LOOP:  cpu time    0.1368: real time    0.1389

 eigenvalue-minimisations  :  1008
 total energy-change (2. order) :-0.7841610E+00  (-0.7822436E+00)
 number of electron      40.0000000 magnetization 
 augmentation part       40.0000000 magnetization 

 Free energy of the ion-electron system (eV)
  ---------------------------------------------------
  alpha Z        PSCENC =       243.01114376
  Ewald energy   TEWEN  =     -3771.55319949
  -Hartree energ DENC   =      -359.51874106
  -exchange      EXHF   =         0.00000000
  -V(xc)+E(xc)   XCENC  =      -111.37428949
  PAW double counting   =      3226.95325816    -2978.06409795
  entropy T*S    EENTRO =         0.00116725
  eigenvalues    EBANDS =       495.62151002
  atomic energy  EATOM  =      3238.97557032
  Solvation  Ediel_sol  =         0.00000000
  ---------------------------------------------------
  free energy    TOTEN  =       -15.94767847 eV

  energy without entropy =      -15.94884572  energy(sigma->0) =      -15.94806756


--------------------------------------------------------------------------------------------------------




----------------------------------------- Iteration    1(   4)  ---------------------------------------


     EDDAV:  cpu time    0.1553: real time    0.1553
       DOS:  cpu time    0.0005: real time    0.0005
    --------------------------------------------
      LOOP:  cpu time    0.1567: real time    0.1582

 eigenvalue-minimisations  :  1104
 total energy-change (2. order) :-0.3254765E-02  (-0.3254673E-02)
 number of electron      40.0000000 magnetization 
 augmentation part       40.0000000 magnetization 

 Free energy of the ion-electron system (eV)
  ---------------------------------------------------
  alpha Z        PSCENC =       243.01114376
  Ewald energy   TEWEN  =     -3771.55319949
  -Hartree energ DENC   =      -359.51874106
  -exchange      EXHF   =         0.00000000
  -V(xc)+E(xc)   XCENC  =      -111.37428949
  PAW double counting   =      3226.95325816    -2978.06409795
  entropy T*S    EENTRO =         0.00117082
  eigenvalues    EBANDS =       495.61825169
  atomic energy  EATOM  =      3238.97557032
  Solvation  Ediel_sol  =         0.00000000
  ---------------------------------------------------
  free energy    TOTEN  =       -15.95093324 eV

  energy without entropy =      -15.95210406  energy(sigma->0) =      -15.95132351


--------------------------------------------------------------------------------------------------------




----------------------------------------- Iteration    1(   5)  ---------------------------------------


     EDDAV:  cpu time    0.1096: real time    0.1096
       DOS:  cpu time    0.0004: real time    0.0004
    CHARGE:  cpu time    0.0065: real time    0.0070
    MIXING:  cpu time    0.0012: real time    0.0012
    --------------------------------------------
      LOOP:  cpu time    0.1187: real time    0.1208

 eigenvalue-minimisations  :   960
 total energy-change (2. order) :-0.3000984E-04  (-0.3000824E-04)
 number of electron      40.0000032 magnetization 
 augmentation part       16.0188180 magnetization 

 Broyden mixing:
  rms(total) = 0.39714E+01    rms(broyden)= 0.39713E+01
  rms(prec ) = 0.42730E+01
  weight for this iteration     100.00

 Free energy of the ion-electron system (eV)
  ---------------------------------------------------
  alpha Z        PSCENC =       243.01114376
  Ewald energy   TEWEN  =     -3771.55319949
  -Hartree energ DENC   =      -359.51874106
  -exchange      EXHF   =         0.00000000
  -V(xc)+E(xc)   XCENC  =      -111.37428949
  PAW double counting   =      3226.95325816    -2978.06409795
  entropy T*S    EENTRO =         0.00117061
  eigenvalues    EBANDS =       495.61822189
  atomic energy  EATOM  =      3238.97557032
  Solvation  Ediel_sol  =         0.00000000
  ---------------------------------------------------
  free energy    TOTEN  =       -15.95096325 eV

  energy without entropy =      -15.95213386  energy(sigma->0) =      -15.95135345


--------------------------------------------------------------------------------------------------------




----------------------------------------- Iteration    1(   6)  ---------------------------------------


    POTLOK:  cpu time    0.0032: real time    0.0032
    SETDIJ:  cpu time    0.0022: real time    0.0022
     EDDAV:  cpu time    0.1078: real time    0.1079
       DOS:  cpu time    0.0005: real time    0.0005
    CHARGE:  cpu time    0.0047: real time    0.0047
    MIXING:  cpu time    0.0005: real time    0.0005
    --------------------------------------------
      LOOP:  cpu time    0.1199: real time    0.1215

 eigenvalue-minimisations  :   960
 total energy-change (2. order) : 0.9786948E+00  (-0.1984295E+00)
 number of electron      40.0000034 magnetization 
 augmentation part       16.4512116 magnetization 

 Broyden mixing:
  rms(total) = 0.21510E+01    rms(broyden)= 0.21510E+01
  rms(prec ) = 0.22107E+01
  weight for this iteration     100.00

 eigenvalues of (default mixing * dielectric matrix)
  average eigenvalue GAMMA=   2.1524
  2.1524

 Free energy of the ion-electron system (eV)
  ---------------------------------------------------
  alpha Z        PSCENC =       243.01114376
  Ewald energy   TEWEN  =     -3771.55319949
  -Hartree energ DENC   =      -333.56910283
  -exchange      EXHF   =         0.00000000
  -V(xc)+E(xc)   XCENC  =      -111.98691291
  PAW double counting   =      3956.38188732    -3718.18787845
  entropy T*S    EENTRO =         0.00116896
  eigenvalues    EBANDS =       481.95505485
  atomic energy  EATOM  =      3238.97557032
  Solvation  Ediel_sol  =         0.00000000
  ---------------------------------------------------
  free energy    TOTEN  =       -14.97226849 eV

  energy without entropy =      -14.97343745  energy(sigma->0) =      -14.97265814


--------------------------------------------------------------------------------------------------------




----------------------------------------- Iteration    1(   7)  ---------------------------------------


    POTLOK:  cpu time    0.0020: real time    0.0020
    SETDIJ:  cpu time    0.0021: real time    0.0021
     EDDAV:  cpu time    0.1113: real time    0.1113
       DOS:  cpu time    0.0004: real time    0.0004
    CHARGE:  cpu time    0.0047: real time    0.0047
    MIXING:  cpu time    0.0003: real time    0.0003
    --------------------------------------------
      LOOP:  cpu time    0.1220: real time    0.1237

 eigenvalue-minimisations  :   984
 total energy-change (2. order) : 0.2478738E+00  (-0.4375524E-01)
 number of electron      40.0000034 magnetization 
 augmentation part       16.6458323 magnetization 

 Broyden mixing:
  rms(total) = 0.38795E+00    rms(broyden)= 0.38794E+00
  rms(prec ) = 0.39692E+00
  weight for this iteration     100.00

 eigenvalues of (default mixing * dielectric matrix)
  average eigenvalue GAMMA=   1.9195
  1.2788  2.5603

 Free energy of the ion-electron system (eV)
  ---------------------------------------------------
  alpha Z        PSCENC =       243.01114376
  Ewald energy   TEWEN  =     -3771.55319949
  -Hartree energ DENC   =      -317.59685268
  -exchange      EXHF   =         0.00000000
  -V(xc)+E(xc)   XCENC  =      -112.33001392
  PAW double counting   =      4895.56107862    -4668.10434247
  entropy T*S    EENTRO =         0.00269812
  eigenvalues    EBANDS =       477.30952309
  atomic energy  EATOM  =      3238.97557032
  Solvation  Ediel_sol  =         0.00000000
  ---------------------------------------------------
  free energy    TOTEN  =       -14.72439466 eV

  energy without entropy =      -14.72709278  energy(sigma->0) =      -14.72529404


--------------------------------------------------------------------------------------------------------




----------------------------------------- Iteration    1(   8)  ---------------------------------------


    POTLOK:  cpu time    0.0021: real time    0.0021
    SETDIJ:  cpu time    0.0020: real time    0.0020
     EDDAV:  cpu time    0.1083: real time    0.1083
       DOS:  cpu time    0.0006: real time    0.0006
    CHARGE:  cpu time    0.0047: real time    0.0047
    MIXING:  cpu time    0.0002: real time    0.0002
    --------------------------------------------
      LOOP:  cpu time    0.1191: real time    0.1206

 eigenvalue-minimisations  :   960
 total energy-change (2. order) : 0.1738704E-01  (-0.4239768E-02)
 number of electron      40.0000034 magnetization 
 augmentation part       16.5969469 magnetization 

 Broyden mixing:
  rms(total) = 0.26962E-01    rms(broyden)= 0.26961E-01
  rms(prec ) = 0.29014E-01
  weight for this iteration     100.00

 eigenvalues of (default mixing * dielectric matrix)
  average eigenvalue GAMMA=   1.6140
  2.4912  1.0500  1.3008

 Free energy of the ion-electron system (eV)
  ---------------------------------------------------
  alpha Z        PSCENC =       243.01114376
  Ewald energy   TEWEN  =     -3771.55319949
  -Hartree energ DENC   =      -318.09628583
  -exchange      EXHF   =         0.00000000
  -V(xc)+E(xc)   XCENC  =      -112.31329637
  PAW double counting   =      5131.47334417    -4906.31129432
  entropy T*S    EENTRO =         0.00240099
  eigenvalues    EBANDS =       480.10460915
  atomic energy  EATOM  =      3238.97557032
  Solvation  Ediel_sol  =         0.00000000
  ---------------------------------------------------
  free energy    TOTEN  =       -14.70700763 eV

  energy without entropy =      -14.70940861  energy(sigma->0) =      -14.70780795


--------------------------------------------------------------------------------------------------------




----------------------------------------- Iteration    1(   9)  ---------------------------------------


    POTLOK:  cpu time    0.0020: real time    0.0020
    SETDIJ:  cpu time    0.0021: real time    0.0021
     EDDAV:  cpu time    0.1043: real time    0.1043
       DOS:  cpu time    0.0004: real time    0.0004
    --------------------------------------------
      LOOP:  cpu time    0.1098: real time    0.1115

 eigenvalue-minimisations  :   912
 total energy-change (2. order) :-0.3161640E-04  (-0.1007039E-04)
 number of electron      40.0000034 magnetization 
 augmentation part       16.5969469 magnetization 

 Free energy of the ion-electron system (eV)
  ---------------------------------------------------
  alpha Z        PSCENC =       243.01114376
  Ewald energy   TEWEN  =     -3771.55319949
  -Hartree energ DENC   =      -318.36766406
  -exchange      EXHF   =         0.00000000
  -V(xc)+E(xc)   XCENC  =      -112.30692367
  PAW double counting   =      5116.47818138    -4891.03092285
  entropy T*S    EENTRO =         0.00239139
  eigenvalues    EBANDS =       480.08438399
  atomic energy  EATOM  =      3238.97557032
  Solvation  Ediel_sol  =         0.00000000
  ---------------------------------------------------
  free energy    TOTEN  =       -14.70703924 eV

  energy without entropy =      -14.70943064  energy(sigma->0) =      -14.70783637


--------------------------------------------------------------------------------------------------------




 average (electrostatic) potential at core
  the test charge radii are     1.1199
  (the norm of the test charge is              1.0000)
       1 -65.0870       2 -65.0870       3 -65.0870       4 -65.0870
 
 
 
 E-fermi :  16.2992     XC(G=0): -15.2694     alpha+bet :-22.9537


 k-point     1 :       0.0625    0.0625    0.0625
  band No.  band energies     occupation 
      1       6.5630      2.00000
      2       7.5616      2.00000
      3       7.5616      2.00000
      4       7.5616      2.00000
      5       8.0033      2.00000
      6       8.0033      2.00000
      7       8.0033      2.00000
      8      11.4669      2.00000
      9      11.6358      2.00000
     10      11.6358      2.00000
     11      14.2094      2.00000
     12      14.2094      2.00000
     13      16.0690      2.00536
     14      16.0690      2.00536
     15      16.0690      2.00536
     16      16.1450      2.05152
     17      16.1450      2.05152
     18      16.1450      2.05152
     19      16.7446     -0.00000
     20      16.7446     -0.00000
     21      16.7446     -0.00000
     22      20.2329      0.00000
     23      20.2329      0.00000
     24      20.2329      0.00000

 k-point     2 :       0.1875    0.0625    0.0625
  band No.  band energies     occupation 
      1       7.0496      2.00000
      2       7.8703      2.00000
      3       7.8963      2.00000
      4       7.8963      2.00000
      5       8.2187      2.00000
      6       8.3864      2.00000
      7       8.3864      2.00000
      8      11.1555      2.00000
      9      11.8798      2.00000
     10      11.8904      2.00000
     11      13.8521      2.00000
     12      14.3640      2.00000
     13      14.6172      2.00000
     14      14.6172      2.00000
     15      15.4651      2.00000
     16      15.5984      2.00000
     17      15.5984      2.00000
     18      15.6678      2.00000
     19      16.4112     -0.06706
     20      16.7041     -0.00000
     21      16.7041     -0.00000
     22      18.6549     -0.00000
     23      21.9738      0.00000
     24      21.9738      0.00000

 k-point     3 :       0.3125    0.0625    0.0625
  band No.  band energies     occupation 
      1       7.9057      2.00000
      2       8.3956      2.00000
      3       8.4852      2.00000
      4       8.4852      2.00000
      5       8.6373      2.00000
      6       9.1070      2.00000
      7       9.1070      2.00000
      8      10.5762      2.00000
      9      12.3296      2.00000
     10      12.3873      2.00000
     11      12.9217      2.00000
     12      12.9217      2.00000
     13      13.3938      2.00000
     14      14.3411      2.00000
     15      14.6564      2.00000
     16      14.7840      2.00000
     17      14.7840      2.00000
     18      14.8912      2.00000
     19      15.9751      2.00005
     20      16.6433     -0.00001
     21      16.6886     -0.00000
     22      16.6886     -0.00000
     23      24.0445      0.00000
     24      24.0445      0.00000

 k-point     4 :       0.4375    0.0625    0.0625
  band No.  band energies     occupation 
      1       8.7491      2.00000
      2       8.8784      2.00000
      3       9.0522      2.00000
      4       9.0522      2.00000
      5       9.2175      2.00000
      6       9.8881      2.00000
      7      10.0973      2.00000
      8      10.0973      2.00000
      9      11.3913      2.00000
     10      11.3913      2.00000
     11      12.5282      2.00000
     12      13.0987      2.00000
     13      13.1383      2.00000
     14      13.7254      2.00000
     15      13.9689      2.00000
     16      14.0736      2.00000
     17      14.0736      2.00000
     18      14.9230      2.00000
     19      15.0539      2.00000
     20      15.5107      2.00000
     21      16.6844     -0.00000
     22      16.6844     -0.00000
     23      26.0036      0.00000
     24      26.0036      0.00000

 k-point     5 :       0.1875    0.1875    0.0625
  band No.  band energies     occupation 
      1       7.4825      2.00000
      2       8.0959      2.00000
      3       8.1985      2.00000
      4       8.1985      2.00000
      5       8.5951      2.00000
      6       8.5951      2.00000
      7       8.8410      2.00000
      8      11.0580      2.00000
      9      11.9709      2.00000
     10      12.0218      2.00000
     11      13.7901      2.00000
     12      13.9186      2.00000
     13      13.9186      2.00000
     14      13.9322      2.00000
     15      14.3868      2.00000
     16      15.1018      2.00000
     17      15.3678      2.00000
     18      15.3678      2.00000
     19      16.3456      0.30013
     20      16.3456      0.30013
     21      16.4182     -0.07052
     22      20.2815      0.00000
     23      20.2815      0.00000
     24      23.2617      0.00000

 k-point     6 :       0.3125    0.1875    0.0625
  band No.  band energies     occupation 
      1       8.2422      2.00000
      2       8.5714      2.00000
      3       8.6871      2.00000
      4       8.7928      2.00000
      5       9.0261      2.00000
      6       9.2796      2.00000
      7       9.5419      2.00000
      8      10.6674      2.00000
      9      12.1570      2.00000
     10      12.3683      2.00000
     11      12.3724      2.00000
     12      12.6927      2.00000
     13      12.9707      2.00000
     14      13.5638      2.00000
     15      14.4666      2.00000
     16      14.6631      2.00000
     17      14.7582      2.00000
     18      14.8257      2.00000
     19      15.8183      2.00000
     20      16.1976      2.05345
     21      16.2150      2.00017
     22      18.2219     -0.00000
     23      22.0999      0.00000
     24      24.9859      0.00000

 k-point     7 :       0.4375    0.1875    0.0625
  band No.  band energies     occupation 
      1       9.0088      2.00000
      2       9.1209      2.00000
      3       9.2198      2.00000
      4       9.3879      2.00000
      5       9.6061      2.00000
      6      10.1109      2.00000
      7      10.1354      2.00000
      8      10.1970      2.00000
      9      11.1601      2.00000
     10      11.4248      2.00000
     11      11.9491      2.00000
     12      12.1264      2.00000
     13      12.9950      2.00000
     14      13.7876      2.00000
     15      13.9329      2.00000
     16      14.0368      2.00000
     17      14.0676      2.00000
     18      15.0101      2.00000
     19      15.5274      2.00000
     20      16.1364      2.04352
     21      16.1368      2.04389
     22      16.5686     -0.00093
     23      23.7220      0.00000
     24      25.0235      0.00000

 k-point     8 :       0.3125    0.3125    0.0625
  band No.  band energies     occupation 
      1       8.8076      2.00000
      2       8.8853      2.00000
      3       9.2426      2.00000
      4       9.2426      2.00000
      5       9.6930      2.00000
      6       9.6930      2.00000
      7      10.1509      2.00000
      8      10.6872      2.00000
      9      11.6702      2.00000
     10      11.6702      2.00000
     11      12.0363      2.00000
     12      12.1475      2.00000
     13      12.5111      2.00000
     14      13.3991      2.00000
     15      13.9564      2.00000
     16      14.3216      2.00000
     17      14.3216      2.00000
     18      15.4806      2.00000
     19      15.4806      2.00000
     20      15.5744      2.00000
     21      15.7054      2.00000
     22      19.9173      0.00000
     23      19.9173      0.00000
     24      24.3588      0.00000

 k-point     9 :       0.4375    0.3125    0.0625
  band No.  band energies     occupation 
      1       9.3684      2.00000
      2       9.4473      2.00000
      3       9.5266      2.00000
      4       9.9636      2.00000
      5      10.0810      2.00000
      6      10.3166      2.00000
      7      10.4763      2.00000
      8      10.5580      2.00000
      9      10.9892      2.00000
     10      11.2017      2.00000
     11      11.4393      2.00000
     12      11.5940      2.00000
     13      12.8986      2.00000
     14      13.5674      2.00000
     15      13.5774      2.00000
     16      13.7541      2.00000
     17      13.7766      2.00000
     18      14.6204      2.00000
     19      15.3266      2.00000
     20      15.3967      2.00000
     21      16.6788     -0.00000
     22      18.0885     -0.00000
     23      21.4749      0.00000
     24      22.8925      0.00000

 k-point    10 :       0.4375    0.4375    0.0625
  band No.  band energies     occupation 
      1       9.6531      2.00000
      2       9.7103      2.00000
      3       9.8654      2.00000
      4       9.8654      2.00000
      5      10.6473      2.00000
      6      10.6473      2.00000
      7      10.6568      2.00000
      8      10.8110      2.00000
      9      11.1117      2.00000
     10      11.1117      2.00000
     11      11.4576      2.00000
     12      11.5035      2.00000
     13      12.7678      2.00000
     14      13.1246      2.00000
     15      13.1893      2.00000
     16      13.1893      2.00000
     17      13.8247      2.00000
     18      14.4752      2.00000
     19      14.4752      2.00000
     20      14.7675      2.00000
     21      18.0553     -0.00000
     22      19.6095      0.00000
     23      19.6095      0.00000
     24      21.1481      0.00000

 k-point    11 :       0.1875    0.1875    0.1875
  band No.  band energies     occupation 
      1       7.7957      2.00000
      2       8.3395      2.00000
      3       8.3395      2.00000
      4       8.3395      2.00000
      5       9.0743      2.00000
      6       9.0743      2.00000
      7       9.0743      2.00000
      8      11.1720      2.00000
      9      12.0118      2.00000
     10      12.0118      2.00000
     11      13.3993      2.00000
     12      13.3993      2.00000
     13      13.3993      2.00000
     14      14.1387      2.00000
     15      14.1387      2.00000
     16      14.5054      2.00000
     17      14.5054      2.00000
     18      14.5054      2.00000
     19      16.5279     -0.00568
     20      16.5279     -0.00568
     21      16.5279     -0.00568
     22      21.2714      0.00000
     23      21.2714      0.00000
     24      21.2714      0.00000

 k-point    12 :       0.3125    0.1875    0.1875
  band No.  band energies     occupation 
      1       8.3188      2.00000
      2       8.6872      2.00000
      3       8.7622      2.00000
      4       8.7622      2.00000
      5       9.5781      2.00000
      6       9.7240      2.00000
      7       9.7240      2.00000
      8      11.0968      2.00000
      9      12.0652      2.00000
     10      12.1785      2.00000
     11      12.3477      2.00000
     12      12.3477      2.00000
     13      12.5920      2.00000
     14      13.7592      2.00000
     15      14.0211      2.00000
     16      14.0211      2.00000
     17      14.0636      2.00000
     18      14.7121      2.00000
     19      16.3103      0.81334
     20      16.3103      0.81334
     21      16.3923     -0.03291
     22      18.8585     -0.00000
     23      22.6286      0.00000
     24      22.6286      0.00000

 k-point    13 :       0.4375    0.1875    0.1875
  band No.  band energies     occupation 
      1       8.8072      2.00000
      2       8.9260      2.00000
      3       9.4164      2.00000
      4       9.4164      2.00000
      5       9.9877      2.00000
      6       9.9877      2.00000
      7      10.2863      2.00000
      8      10.8394      2.00000
      9      11.6441      2.00000
     10      11.6441      2.00000
     11      11.7847      2.00000
     12      11.8839      2.00000
     13      12.5285      2.00000
     14      13.0688      2.00000
     15      13.6021      2.00000
     16      13.6021      2.00000
     17      14.9423      2.00000
     18      15.3684      2.00000
     19      15.9729      2.00004
     20      16.0941      2.01352
     21      16.0941      2.01352
     22      16.6540     -0.00001
     23      23.7046      0.00000
     24      23.7046      0.00000

 k-point    14 :       0.3125    0.3125    0.1875
  band No.  band energies     occupation 
      1       8.4876      2.00000
      2       8.9283      2.00000
      3       8.9403      2.00000
      4       8.9403      2.00000
      5      10.1831      2.00000
      6      10.1831      2.00000
      7      10.1958      2.00000
      8      11.5809      2.00000
      9      11.9350      2.00000
     10      11.9350      2.00000
     11      12.0331      2.00000
     12      12.0769      2.00000
     13      12.2336      2.00000
     14      13.3377      2.00000
     15      13.3700      2.00000
     16      13.3700      2.00000
     17      14.1693      2.00000
     18      15.2974      2.00000
     19      16.1353      2.04252
     20      16.2038      2.03943
     21      16.2038      2.03943
     22      20.0824      0.00000
     23      20.0824      0.00000
     24      22.9854      0.00000

 k-point    15 :       0.4375    0.3125    0.1875
  band No.  band energies     occupation 
      1       8.7198      2.00000
      2       8.9153      2.00000
      3       9.2415      2.00000
      4       9.2925      2.00000
      5      10.2576      2.00000
      6      10.2747      2.00000
      7      10.9113      2.00000
      8      11.5701      2.00000
      9      11.7033      2.00000
     10      11.7700      2.00000
     11      11.9389      2.00000
     12      12.1823      2.00000
     13      12.2862      2.00000
     14      12.7425      2.00000
     15      12.9777      2.00000
     16      13.0743      2.00000
     17      14.7507      2.00000
     18      15.6744      2.00000
     19      15.8598      2.00000
     20      15.8755      2.00000
     21      16.3624      0.13244
     22      17.9050     -0.00000
     23      21.3468      0.00000
     24      22.4127      0.00000

 k-point    16 :       0.4375    0.4375    0.1875
  band No.  band energies     occupation 
      1       8.7847      2.00000
      2       8.9905      2.00000
      3       8.9905      2.00000
      4       9.0883      2.00000
      5      10.6315      2.00000
      6      10.8547      2.00000
      7      10.8547      2.00000
      8      11.3322      2.00000
      9      12.1311      2.00000
     10      12.1893      2.00000
     11      12.1893      2.00000
     12      12.5057      2.00000
     13      12.5058      2.00000
     14      12.5720      2.00000
     15      12.6311      2.00000
     16      12.6311      2.00000
     17      14.6909      2.00000
     18      15.3110      2.00000
     19      15.3110      2.00000
     20      15.4430      2.00000
     21      17.7094     -0.00000
     22      19.3125      0.00000
     23      19.3125      0.00000
     24      20.7783      0.00000

 k-point    17 :       0.3125    0.3125    0.3125
  band No.  band energies     occupation 
      1       8.2943      2.00000
      2       8.7949      2.00000
      3       8.7949      2.00000
      4       8.7949      2.00000
      5      10.5241      2.00000
      6      10.5241      2.00000
      7      10.5241      2.00000
      8      11.8434      2.00000
      9      11.8434      2.00000
     10      12.4398      2.00000
     11      12.4398      2.00000
     12      12.4398      2.00000
     13      12.6692      2.00000
     14      12.6692      2.00000
     15      12.6692      2.00000
     16      12.8409      2.00000
     17      15.0158      2.00000
     18      15.0158      2.00000
     19      16.3909     -0.02852
     20      16.3909     -0.02852
     21      16.3909     -0.02852
     22      20.4279      0.00000
     23      20.4279      0.00000
     24      20.4279      0.00000

 k-point    18 :       0.4375    0.3125    0.3125
  band No.  band energies     occupation 
      1       8.3201      2.00000
      2       8.5260      2.00000
      3       8.7587      2.00000
      4       8.7587      2.00000
      5      10.6138      2.00000
      6      10.6138      2.00000
      7      11.0760      2.00000
      8      11.5654      2.00000
      9      11.8690      2.00000
     10      12.1544      2.00000
     11      12.3409      2.00000
     12      12.3409      2.00000
     13      12.7876      2.00000
     14      12.9756      2.00000
     15      12.9756      2.00000
     16      13.1812      2.00000
     17      15.7668      2.00000
     18      15.8740      2.00000
     19      16.1746      2.07078
     20      16.1746      2.07078
     21      16.2654      1.53721
     22      17.9327     -0.00000
     23      20.7402      0.00000
     24      20.7402      0.00000

 k-point    19 :       0.4375    0.4375    0.3125
  band No.  band energies     occupation 
      1       8.2077      2.00000
      2       8.3693      2.00000
      3       8.3693      2.00000
      4       8.4473      2.00000
      5      10.9525      2.00000
      6      11.1020      2.00000
      7      11.1020      2.00000
      8      11.4832      2.00000
      9      11.6792      2.00000
     10      11.8801      2.00000
     11      11.8801      2.00000
     12      11.9341      2.00000
     13      13.7301      2.00000
     14      13.7301      2.00000
     15      13.7516      2.00000
     16      14.1472      2.00000
     17      15.5251      2.00000
     18      16.0389      2.00145
     19      16.0389      2.00145
     20      16.0491      2.00231
     21      17.0227     -0.00000
     22      18.6769     -0.00000
     23      18.6769     -0.00000
     24      19.6987      0.00000

 k-point    20 :       0.4375    0.4375    0.4375
  band No.  band energies     occupation 
      1       7.9617      2.00000
      2       8.0493      2.00000
      3       8.0493      2.00000
      4       8.0493      2.00000
      5      11.2949      2.00000
      6      11.2949      2.00000
      7      11.2949      2.00000
      8      11.4891      2.00000
      9      11.4891      2.00000
     10      11.5781      2.00000
     11      11.5781      2.00000
     12      11.5781      2.00000
     13      14.9274      2.00000
     14      14.9274      2.00000
     15      14.9274      2.00000
     16      15.9476      2.00001
     17      16.1163      2.02665
     18      16.1163      2.02665
     19      16.3076      0.85891
     20      16.3076      0.85891
     21      16.3076      0.85891
     22      17.9581     -0.00000
     23      17.9581     -0.00000
     24      17.9581     -0.00000


--------------------------------------------------------------------------------------------------------


 soft charge-density along one line, spin component           1
         0         1         2         3         4         5         6         7         8         9
 total charge-density along one line
 
 pseudopotential strength for first ion, spin component:           1
  0.553  -0.000  -0.000   0.000   0.000   0.186  -0.000  -0.000
 -0.000   0.553   0.000   0.000  -0.000  -0.000   0.186   0.000
 -0.000   0.000   0.588  -0.000   0.000  -0.000   0.000   0.219
  0.000   0.000  -0.000   0.553  -0.000   0.000   0.000  -0.000
  0.000  -0.000   0.000  -0.000   0.588   0.000  -0.000   0.000
  0.186  -0.000  -0.000   0.000   0.000  -0.143  -0.000  -0.000
 -0.000   0.186   0.000   0.000  -0.000  -0.000  -0.143   0.000
 -0.000   0.000   0.219  -0.000   0.000  -0.000   0.000  -0.111
  0.000   0.000  -0.000   0.186  -0.000   0.000   0.000  -0.000
  0.000  -0.000   0.000  -0.000   0.219   0.000  -0.000   0.000
 -0.000  -0.000   0.000   0.000   0.000  -0.000  -0.000   0.000
 -0.000  -0.000   0.000   0.000   0.000  -0.000  -0.000   0.000
  0.000  -0.000   0.000  -0.000   0.000   0.000  -0.000   0.000
 -0.000  -0.000  -0.000   0.000  -0.000  -0.000  -0.000  -0.000
 -0.000  -0.000  -0.000  -0.000   0.000  -0.000  -0.000  -0.000
  0.000  -0.000   0.000  -0.000   0.000   0.000  -0.000   0.000
 -0.000  -0.000  -0.000   0.000  -0.000  -0.000  -0.000  -0.000
 -0.000  -0.000  -0.000  -0.000   0.000  -0.000  -0.000  -0.000
 total augmentation occupancy for first ion, spin component:           1
  5.944   0.000   0.000   0.000   0.000  -5.324  -0.000  -0.000  -0.000  -0.000  -0.000   0.000  -0.000  -0.000   0.000  -0.000
 -0.000   5.944   0.000   0.000  -0.000   0.000  -5.324   0.000   0.000  -0.000   0.000  -0.000   0.000  -0.000  -0.000   0.000
 -0.000   0.000   6.307   0.000   0.000  -0.000  -0.000  -5.156   0.000  -0.000  -0.000   0.000   0.000   0.000   0.000  -0.000
  0.000   0.000   0.000   5.944  -0.000   0.000   0.000   0.000  -5.324   0.000  -0.000  -0.000  -0.000  -0.000  -0.000  -0.000
  0.000   0.000   0.000  -0.000   6.307   0.000  -0.000   0.000   0.000  -5.156   0.000   0.000  -0.000   0.000   0.000   0.000
 -5.324   0.000  -0.000   0.000   0.000   6.495  -0.000   0.000  -0.000   0.000  -0.000  -0.000   0.000   0.000   0.000  -0.000
 -0.000  -5.324  -0.000   0.000  -0.000   0.000   6.495   0.000  -0.000  -0.000   0.000  -0.000   0.000  -0.000  -0.000  -0.000
 -0.000   0.000  -5.156   0.000  -0.000  -0.000  -0.000   5.885   0.000  -0.000   0.000  -0.000   0.000   0.000   0.000  -0.000
  0.000  -0.000  -0.000  -5.324   0.000  -0.000  -0.000   0.000   6.495  -0.000   0.000   0.000   0.000  -0.000  -0.000   0.000
  0.000   0.000   0.000   0.000  -5.156   0.000   0.000   0.000  -0.000   5.885  -0.000  -0.000   0.000   0.000   0.000   0.000
 -0.000   0.000  -0.000  -0.000   0.000   0.000   0.000   0.000   0.000   0.000   3.223  -0.573   0.000   0.000   0.000   0.000
 -0.000   0.000   0.000   0.000   0.000  -0.000  -0.000  -0.000   0.000   0.000  -0.573   0.109   0.000   0.000   0.000   0.000
  0.000  -0.000   0.000   0.000   0.000   0.000  -0.000   0.000  -0.000   0.000   0.000   0.000   0.469  -0.000   0.000  -0.021
 -0.000   0.000   0.000   0.000   0.000   0.000  -0.000   0.000  -0.000   0.000   0.000   0.000   0.000   0.469  -0.000  -0.000
  0.000   0.000  -0.000   0.000  -0.000   0.000  -0.000  -0.000  -0.000  -0.000   0.000  -0.000   0.000  -0.000   0.469  -0.000
  0.000   0.000   0.000  -0.000  -0.000   0.000  -0.000   0.000   0.000  -0.000   0.000   0.000  -0.021  -0.000  -0.000   0.001
  0.000  -0.000   0.000  -0.000  -0.000  -0.000  -0.000   0.000   0.000   0.000   0.000   0.000  -0.000  -0.021   0.000   0.000
 -0.000  -0.000   0.000  -0.000   0.000  -0.000   0.000   0.000   0.000   0.000   0.000   0.000  -0.000   0.000  -0.021  -0.000


------------------------ aborting loop because EDIFF is reached ----------------------------------------


    CHARGE:  cpu time    0.0068: real time    0.0068
    FORLOC:  cpu time    0.0001: real time    0.0001
    FORNL :  cpu time    0.0199: real time    0.0199
    STRESS:  cpu time    0.0848: real time    0.0848
    FORCOR:  cpu time    0.0021: real time    0.0021
    FORHAR:  cpu time    0.0006: real time    0.0006
    MIXING:  cpu time    0.0003: real time    0.0003
    OFIELD:  cpu time    0.0001: real time    0.0001

  FORCE on cell =-STRESS in cart. coord.  units (eV):
  Direction    XX          YY          ZZ          XY          YZ          ZX
  --------------------------------------------------------------------------------------
  Alpha Z   243.01114   243.01114   243.01114
  Ewald   -1257.18495 -1257.18495 -1257.18495     0.00000     0.00000     0.00000
  Hartree   106.16495   106.16495   106.16495    -0.00000    -0.00000    -0.00000
  E(xc)    -217.81370  -217.81370  -217.81370    -0.00000     0.00000    -0.00000
  Local     272.11992   272.11992   272.11992     0.00000     0.00000     0.00000
  n-local    47.57878    30.91410    41.87435    13.35287     8.85035     8.59847
  augment   293.17118   293.17118   293.17118    -0.00000     0.00000     0.00000
  Kinetic   570.17919   559.94861   555.14026     3.75909    -1.96983     0.69057
  Fock        0.00000     0.00000     0.00000     0.00000     0.00000     0.00000
  -------------------------------------------------------------------------------------
  Total      41.34696    41.34696    41.34696     0.00000    -0.00000    -0.00000
  in kB    1543.75310  1543.75310  1543.75310     0.00000    -0.00000    -0.00000
  external pressure =     1543.75 kB  Pullay stress =        0.00 kB


 VOLUME and BASIS-vectors are now :
 -----------------------------------------------------------------------------
  energy-cutoff  :      400.00
  volume of cell :       42.91
      direct lattice vectors                 reciprocal lattice vectors
     3.501000000  0.000000000  0.000000000     0.285632676  0.000000000  0.000000000
     0.000000000  3.501000000  0.000000000     0.000000000  0.285632676  0.000000000
     0.000000000  0.000000000  3.501000000     0.000000000  0.000000000  0.285632676

  length of vectors
     3.501000000  3.501000000  3.501000000     0.285632676  0.285632676  0.285632676


 FORCES acting on ions
    electron-ion (+dipol)            ewald-force                    non-local-force                 convergence-correction
 -----------------------------------------------------------------------------------------------
   0.348E-14 0.626E-15 -.713E-13   -.429E-14 -.103E-13 -.703E-14   0.165E-23 0.217E-23 -.290E-23   -.129E-14 0.169E-13 -.315E-13
   0.219E-14 0.290E-12 0.223E-12   -.396E-14 0.139E-13 0.431E-14   0.000E+00 -.558E-23 -.414E-23   0.352E-14 0.115E-13 0.244E-13
   0.291E-12 0.523E-14 -.202E-12   0.311E-14 -.140E-13 0.435E-14   -.620E-24 -.269E-23 -.827E-24   0.190E-13 0.207E-13 0.394E-13
   0.292E-12 0.295E-12 0.296E-12   0.343E-14 0.102E-13 -.415E-14   -.827E-24 0.248E-23 0.414E-24   0.126E-13 0.614E-14 -.439E-13
 -----------------------------------------------------------------------------------------------
   0.589E-12 0.591E-12 0.245E-12   -.172E-14 -.312E-15 -.253E-14   0.207E-24 -.362E-23 -.744E-23   0.339E-13 0.552E-13 -.116E-13
 
 
 POSITION                                       TOTAL-FORCE (eV/Angst)
 -----------------------------------------------------------------------------------
      0.00000      0.00000      0.00000         0.000000     -0.000000     -0.000000
      0.00000      1.75050      1.75050         0.000000      0.000000      0.000000
      1.75050      0.00000      1.75050        -0.000000     -0.000000      0.000000
      1.75050      1.75050      0.00000        -0.000000      0.000000      0.000000
 -----------------------------------------------------------------------------------
    total drift:                                0.000000      0.000000      0.000000


--------------------------------------------------------------------------------------------------------



  FREE ENERGIE OF THE ION-ELECTRON SYSTEM (eV)
  ---------------------------------------------------
  free  energy   TOTEN  =       -14.70703924 eV

  energy  without entropy=      -14.70943064  energy(sigma->0) =      -14.70783637
 


--------------------------------------------------------------------------------------------------------


    POTLOK:  cpu time    0.0047: real time    0.0050


--------------------------------------------------------------------------------------------------------


     LOOP+:  cpu time    1.3418: real time    1.4007
    4ORBIT:  cpu time    0.0000: real time    0.0000

 total amount of memory used by VASP on root node    33149. kBytes
========================================================================

   base      :      30000. kBytes
   nonl-proj :       2331. kBytes
   fftplans  :        113. kBytes
   grid      :        367. kBytes
   one-center:         62. kBytes
   wavefun   :        276. kBytes
 
  
  
 General timing and accounting informations for this job:
 ========================================================
  
                  Total CPU time used (sec):        1.848
                            User time (sec):        1.723
                          System time (sec):        0.125
                         Elapsed time (sec):        2.041
  
                   Maximum memory used (kb):       48028.
                   Average memory used (kb):           0.
  
                          Minor page faults:        10576
                          Major page faults:          108
                 Voluntary context switches:         1883
