<?xml version="1.0" encoding="ISO-8859-1"?>
<modeling>
 <generator>
  <i name="program" type="string">vasp </i>
  <i name="version" type="string">5.4.1  </i>
  <i name="subversion" type="string">05Feb16 (build Feb 08 2018 09:21:51) complex                          parallel </i>
  <i name="platform" type="string">LinuxIFC </i>
  <i name="date" type="string">2019 11 20 </i>
  <i name="time" type="string">21:31:48 </i>
 </generator>
 <incar>
  <i type="string" name="PREC">normal</i>
  <i name="ENCUT">    400.00000000</i>
  <i type="int" name="ISMEAR">     1</i>
  <i name="SIGMA">      0.10000000</i>
  <i type="logical" name="LWAVE"> F  </i>
  <i type="logical" name="LCHARG"> F  </i>
  <v type="int" name="KPOINT_BSE">    -1     0     0     0</v>
 </incar>
 <kpoints>
  <generation param="Monkhorst-Pack">
   <v type="int" name="divisions">       8        8        8 </v>
   <v name="usershift">      0.00000000       0.00000000       0.00000000 </v>
   <v name="genvec1">      0.12500000       0.00000000       0.00000000 </v>
   <v name="genvec2">      0.00000000       0.12500000       0.00000000 </v>
   <v name="genvec3">      0.00000000       0.00000000       0.12500000 </v>
   <v name="shift">      0.50000000       0.50000000       0.50000000 </v>
  </generation>
  <varray name="kpointlist" >
   <v>       0.06250000       0.06250000       0.06250000 </v>
   <v>       0.18750000       0.06250000       0.06250000 </v>
   <v>       0.31250000       0.06250000       0.06250000 </v>
   <v>       0.43750000       0.06250000       0.06250000 </v>
   <v>       0.18750000       0.18750000       0.06250000 </v>
   <v>       0.31250000       0.18750000       0.06250000 </v>
   <v>       0.43750000       0.18750000       0.06250000 </v>
   <v>       0.31250000       0.31250000       0.06250000 </v>
   <v>       0.43750000       0.31250000       0.06250000 </v>
   <v>       0.43750000       0.43750000       0.06250000 </v>
   <v>       0.18750000       0.18750000       0.18750000 </v>
   <v>       0.31250000       0.18750000       0.18750000 </v>
   <v>       0.43750000       0.18750000       0.18750000 </v>
   <v>       0.31250000       0.31250000       0.18750000 </v>
   <v>       0.43750000       0.31250000       0.18750000 </v>
   <v>       0.43750000       0.43750000       0.18750000 </v>
   <v>       0.31250000       0.31250000       0.31250000 </v>
   <v>       0.43750000       0.31250000       0.31250000 </v>
   <v>       0.43750000       0.43750000       0.31250000 </v>
   <v>       0.43750000       0.43750000       0.43750000 </v>
  </varray>
  <varray name="weights" >
   <v>       0.01562500 </v>
   <v>       0.04687500 </v>
   <v>       0.04687500 </v>
   <v>       0.04687500 </v>
   <v>       0.04687500 </v>
   <v>       0.09375000 </v>
   <v>       0.09375000 </v>
   <v>       0.04687500 </v>
   <v>       0.09375000 </v>
   <v>       0.04687500 </v>
   <v>       0.01562500 </v>
   <v>       0.04687500 </v>
   <v>       0.04687500 </v>
   <v>       0.04687500 </v>
   <v>       0.09375000 </v>
   <v>       0.04687500 </v>
   <v>       0.01562500 </v>
   <v>       0.04687500 </v>
   <v>       0.04687500 </v>
   <v>       0.01562500 </v>
  </varray>
 </kpoints>
 <parameters>
  <separator name="general" >
   <i type="string" name="SYSTEM">unknown system</i>
   <i type="logical" name="LCOMPAT"> F  </i>
  </separator>
  <separator name="electronic" >
   <i type="string" name="PREC">normal</i>
   <i name="ENMAX">    400.00000000</i>
   <i name="ENAUG">    416.23000000</i>
   <i name="EDIFF">      0.00010000</i>
   <i type="int" name="IALGO">    38</i>
   <i type="int" name="IWAVPR">    10</i>
   <i type="int" name="NBANDS">    24</i>
   <i name="NELECT">     40.00000000</i>
   <i type="int" name="TURBO">     0</i>
   <i type="int" name="IRESTART">     0</i>
   <i type="int" name="NREBOOT">     0</i>
   <i type="int" name="NMIN">     0</i>
   <i name="EREF">      0.00000000</i>
   <separator name="electronic smearing" >
    <i type="int" name="ISMEAR">     1</i>
    <i name="SIGMA">      0.10000000</i>
    <i name="KSPACING">      0.50000000</i>
    <i type="logical" name="KGAMMA"> T  </i>
   </separator>
   <separator name="electronic projectors" >
    <i type="logical" name="LREAL"> F  </i>
    <v name="ROPT">      0.00000000</v>
    <i type="int" name="LMAXPAW">  -100</i>
    <i type="int" name="LMAXMIX">     2</i>
    <i type="logical" name="NLSPLINE"> F  </i>
   </separator>
   <separator name="electronic startup" >
    <i type="int" name="ISTART">     0</i>
    <i type="int" name="ICHARG">     2</i>
    <i type="int" name="INIWAV">     1</i>
   </separator>
   <separator name="electronic spin" >
    <i type="int" name="ISPIN">     1</i>
    <i type="logical" name="LNONCOLLINEAR"> F  </i>
    <v name="MAGMOM">      1.00000000      1.00000000      1.00000000      1.00000000</v>
    <i name="NUPDOWN">     -1.00000000</i>
    <i type="logical" name="LSORBIT"> F  </i>
    <v name="SAXIS">      0.00000000      0.00000000      1.00000000</v>
    <i type="logical" name="LSPIRAL"> F  </i>
    <v name="QSPIRAL">      0.00000000      0.00000000      0.00000000</v>
    <i type="logical" name="LZEROZ"> F  </i>
   </separator>
   <separator name="electronic exchange-correlation" >
    <i type="logical" name="LASPH"> F  </i>
    <i type="logical" name="LMETAGGA"> F  </i>
   </separator>
   <separator name="electronic convergence" >
    <i type="int" name="NELM">    60</i>
    <i type="int" name="NELMDL">    -5</i>
    <i type="int" name="NELMIN">     2</i>
    <i name="ENINI">    400.00000000</i>
    <separator name="electronic convergence detail" >
     <i type="logical" name="LDIAG"> T  </i>
     <i type="logical" name="LSUBROT"> F  </i>
     <i name="WEIMIN">      0.00000000</i>
     <i name="EBREAK">      0.00000104</i>
     <i name="DEPER">      0.30000000</i>
     <i type="int" name="NRMM">     4</i>
     <i name="TIME">      0.40000000</i>
    </separator>
   </separator>
   <separator name="electronic mixer" >
    <i name="AMIX">      0.40000000</i>
    <i name="BMIX">      1.00000000</i>
    <i name="AMIN">      0.10000000</i>
    <i name="AMIX_MAG">      1.60000000</i>
    <i name="BMIX_MAG">      1.00000000</i>
    <separator name="electronic mixer details" >
     <i type="int" name="IMIX">     4</i>
     <i type="logical" name="MIXFIRST"> F  </i>
     <i type="int" name="MAXMIX">   -45</i>
     <i name="WC">    100.00000000</i>
     <i type="int" name="INIMIX">     1</i>
     <i type="int" name="MIXPRE">     1</i>
     <i type="int" name="MREMOVE">     5</i>
    </separator>
   </separator>
   <separator name="electronic dipolcorrection" >
    <i type="logical" name="LDIPOL"> F  </i>
    <i type="logical" name="LMONO"> F  </i>
    <i type="int" name="IDIPOL">     0</i>
    <i name="EPSILON">      1.00000000</i>
    <v name="DIPOL">   -100.00000000   -100.00000000   -100.00000000</v>
    <i name="EFIELD">      0.00000000</i>
   </separator>
  </separator>
  <separator name="grids" >
   <i type="int" name="NGX">    18</i>
   <i type="int" name="NGY">    18</i>
   <i type="int" name="NGZ">    18</i>
   <i type="int" name="NGXF">    36</i>
   <i type="int" name="NGYF">    36</i>
   <i type="int" name="NGZF">    36</i>
   <i type="logical" name="ADDGRID"> F  </i>
  </separator>
  <separator name="ionic" >
   <i type="int" name="NSW">     0</i>
   <i type="int" name="IBRION">    -1</i>
   <i type="int" name="ISIF">     2</i>
   <i name="PSTRESS">      0.00000000</i>
   <i name="EDIFFG">      0.00100000</i>
   <i type="int" name="NFREE">     0</i>
   <i name="POTIM">      0.50000000</i>
   <i name="SMASS">     -3.00000000</i>
   <i name="SCALEE">      1.00000000</i>
  </separator>
  <separator name="ionic md" >
   <i name="TEBEG">      0.00010000</i>
   <i name="TEEND">      0.00010000</i>
   <i type="int" name="NBLOCK">     1</i>
   <i type="int" name="KBLOCK">     1</i>
   <i type="int" name="NPACO">   256</i>
   <i name="APACO">     16.00000000</i>
  </separator>
  <separator name="symmetry" >
   <i type="int" name="ISYM">     2</i>
   <i name="SYMPREC">      0.00001000</i>
  </separator>
  <separator name="dos" >
   <i type="logical" name="LORBIT"> F  </i>
   <v name="RWIGS">     -1.00000000</v>
   <i type="int" name="NEDOS">   301</i>
   <i name="EMIN">     10.00000000</i>
   <i name="EMAX">    -10.00000000</i>
   <i name="EFERMI">      0.00000000</i>
  </separator>
  <separator name="writing" >
   <i type="int" name="NWRITE">     2</i>
   <i type="logical" name="LWAVE"> F  </i>
   <i type="logical" name="LCHARG"> F  </i>
   <i type="logical" name="LPARD"> F  </i>
   <i type="logical" name="LVTOT"> F  </i>
   <i type="logical" name="LVHAR"> F  </i>
   <i type="logical" name="LELF"> F  </i>
   <i type="logical" name="LOPTICS"> F  </i>
   <v name="STM">      0.00000000      0.00000000      0.00000000      0.00000000      0.00000000      0.00000000      0.00000000</v>
  </separator>
  <separator name="performance" >
   <i type="int" name="NPAR">    24</i>
   <i type="int" name="NSIM">     4</i>
   <i type="int" name="NBLK">    -1</i>
   <i type="logical" name="LPLANE"> T  </i>
   <i type="logical" name="LSCALAPACK"> F  </i>
   <i type="logical" name="LSCAAWARE"> F  </i>
   <i type="logical" name="LSCALU"> F  </i>
   <i type="logical" name="LASYNC"> F  </i>
   <i type="logical" name="LORBITALREAL"> F  </i>
  </separator>
  <separator name="miscellaneous" >
   <i type="int" name="IDIOT">     3</i>
   <i type="logical" name="LMUSIC"> F  </i>
   <v name="POMASS">    106.42000000</v>
   <v name="DARWINR">      0.00000000</v>
   <v name="DARWINV">      1.00000000</v>
   <i type="logical" name="LCORR"> T  </i>
  </separator>
  <i type="logical" name="GGA_COMPAT"> T  </i>
  <i type="logical" name="LBERRY"> F  </i>
  <i type="int" name="ICORELEVEL">     0</i>
  <i type="logical" name="LDAU"> F  </i>
  <i type="int" name="I_CONSTRAINED_M">     0</i>
  <separator name="electronic exchange-correlation" >
   <i type="string" name="GGA">--</i>
   <i type="int" name="VOSKOWN">     0</i>
   <i type="logical" name="LHFCALC"> F  </i>
   <i type="string" name="PRECFOCK"></i>
   <i type="logical" name="LSYMGRAD"> F  </i>
   <i type="logical" name="LHFONE"> F  </i>
   <i type="logical" name="LRHFCALC"> F  </i>
   <i type="logical" name="LTHOMAS"> F  </i>
   <i type="logical" name="LMODELHF"> F  </i>
   <i name="ENCUT4O">     -1.00000000</i>
   <i type="int" name="EXXOEP">     0</i>
   <i type="int" name="FOURORBIT">     0</i>
   <i name="AEXX">      0.00000000</i>
   <i name="HFALPHA">      0.00000000</i>
   <i name="MCALPHA">      0.00000000</i>
   <i name="ALDAX">      1.00000000</i>
   <i name="AGGAX">      1.00000000</i>
   <i name="ALDAC">      1.00000000</i>
   <i name="AGGAC">      1.00000000</i>
   <i type="int" name="NKREDX">     1</i>
   <i type="int" name="NKREDY">     1</i>
   <i type="int" name="NKREDZ">     1</i>
   <i type="logical" name="SHIFTRED"> F  </i>
   <i type="logical" name="ODDONLY"> F  </i>
   <i type="logical" name="EVENONLY"> F  </i>
   <i type="int" name="LMAXFOCK">     0</i>
   <i type="int" name="NMAXFOCKAE">     0</i>
   <i type="logical" name="LFOCKAEDFT"> F  </i>
   <i name="HFSCREEN">      0.00000000</i>
   <i name="HFSCREENC">      0.00000000</i>
   <i type="int" name="NBANDSGWLOW">     0</i>
  </separator>
  <separator name="vdW DFT" >
   <i type="logical" name="LUSE_VDW"> F  </i>
   <i name="Zab_VDW">     -0.84910000</i>
   <i name="PARAM1">      0.12340000</i>
   <i name="PARAM2">      1.00000000</i>
   <i name="PARAM3">      0.00000000</i>
  </separator>
  <separator name="model GW" >
   <i type="int" name="MODEL_GW">     0</i>
   <i name="MODEL_EPS0">      6.43676408</i>
   <i name="MODEL_ALPHA">      1.00000000</i>
  </separator>
  <separator name="linear response parameters" >
   <i type="logical" name="LEPSILON"> F  </i>
   <i type="logical" name="LRPA"> F  </i>
   <i type="logical" name="LNABLA"> F  </i>
   <i type="logical" name="LVEL"> F  </i>
   <i type="int" name="KINTER">     0</i>
   <i name="CSHIFT">      0.10000000</i>
   <i name="OMEGAMAX">     -1.00000000</i>
   <i name="DEG_THRESHOLD">      0.00200000</i>
  </separator>
  <separator name="orbital magnetization" >
   <i type="logical" name="NUCIND"> F  </i>
   <v name="MAGPOS">      0.00000000      0.00000000      0.00000000</v>
   <i type="logical" name="LNICSALL"> T  </i>
   <i type="logical" name="ORBITALMAG"> F  </i>
   <i type="logical" name="LMAGBLOCH"> F  </i>
   <i type="logical" name="LCHIMAG"> F  </i>
   <i type="logical" name="LGAUGE"> T  </i>
   <i type="int" name="MAGATOM">     0</i>
   <v name="MAGDIPOL">      0.00000000      0.00000000      0.00000000</v>
   <v name="AVECCONST">      0.00000000      0.00000000      0.00000000</v>
  </separator>
  <separator name="response functions" >
   <i type="logical" name="LADDER"> F  </i>
   <i type="logical" name="LFXC"> F  </i>
   <i type="logical" name="LHARTREE"> T  </i>
   <i type="int" name="IBSE">     0</i>
   <v type="int" name="KPOINT">    -1     0     0     0</v>
   <i type="logical" name="LTCTE"> F  </i>
   <i type="logical" name="LTETE"> F  </i>
   <i type="logical" name="LTRIPLET"> F  </i>
   <i type="logical" name="LFXCEPS"> F  </i>
   <i type="logical" name="LFXHEG"> F  </i>
   <i type="int" name="NATURALO">     0</i>
   <i type="logical" name="L2ORDER"> F  </i>
   <i type="logical" name="LUSEW"> F  </i>
   <i name="ENCUTGW">     -2.00000000</i>
   <i name="ENCUTGWSOFT">     -2.00000000</i>
   <i name="ENCUTLF">     -1.00000000</i>
   <i type="int" name="LMAXMP2">    -1</i>
   <i name="SCISSOR">      0.00000000</i>
   <i type="int" name="NOMEGA">     0</i>
   <i type="int" name="NOMEGAR">     0</i>
   <i type="int" name="NBANDSGW">    -1</i>
   <i type="int" name="NBANDSO">    -1</i>
   <i type="int" name="NBANDSV">    -1</i>
   <i type="int" name="NELM">     1</i>
   <i type="int" name="NELMHF">     1</i>
   <i type="int" name="DIM">     3</i>
   <i type="int" name="ANTIRES">     0</i>
   <i name="OMEGAMAX">    -30.00000000</i>
   <i name="OMEGAMIN">    -30.00000000</i>
   <i name="OMEGATL">   -200.00000000</i>
   <i type="int" name="OMEGAGRID">     0</i>
   <i name="CSHIFT">     -0.10000000</i>
   <i type="logical" name="SELFENERGY"> F  </i>
   <i type="logical" name="LSPECTRAL"> F  </i>
   <i type="logical" name="LSPECTRALGW"> F  </i>
   <i type="logical" name="LSINGLES"> F  </i>
   <i type="logical" name="LFERMIGW"> F  </i>
   <i type="logical" name="ODDONLYGW"> F  </i>
   <i type="logical" name="EVENONLYGW"> F  </i>
   <i type="int" name="NKREDLFX">     1</i>
   <i type="int" name="NKREDLFY">     1</i>
   <i type="int" name="NKREDLFZ">     1</i>
   <i type="int" name="MAXMEM">  1800</i>
   <i type="int" name="TELESCOPE">     0</i>
   <i type="int" name="TAUPAR">     1</i>
   <i type="int" name="OMEGAPAR">    -1</i>
   <i name="LAMBDA">      1.00000000</i>
  </separator>
  <separator name="External order field" >
   <i name="OFIELD_KAPPA">      0.00000000</i>
   <v name="OFIELD_K">      0.00000000      0.00000000      0.00000000</v>
   <i name="OFIELD_Q6_NEAR">      0.00000000</i>
   <i name="OFIELD_Q6_FAR">      0.00000000</i>
   <i name="OFIELD_A">      0.00000000</i>
  </separator>
 </parameters>
 <atominfo>
  <atoms>       4 </atoms>
  <types>       1 </types>
  <array name="atoms" >
   <dimension dim="1">ion</dimension>
   <field type="string">element</field>
   <field type="int">atomtype</field>
   <set>
    <rc><c>Pd</c><c>   1</c></rc>
    <rc><c>Pd</c><c>   1</c></rc>
    <rc><c>Pd</c><c>   1</c></rc>
    <rc><c>Pd</c><c>   1</c></rc>
   </set>
  </array>
  <array name="atomtypes" >
   <dimension dim="1">type</dimension>
   <field type="int">atomspertype</field>
   <field type="string">element</field>
   <field>mass</field>
   <field>valence</field>
   <field type="string">pseudopotential</field>
   <set>
    <rc><c>   4</c><c>Pd</c><c>    106.42000000</c><c>     10.00000000</c><c>  PAW_PBE Pd 04Jan2005                  </c></rc>
   </set>
  </array>
 </atominfo>
 <structure name="initialpos" >
  <crystal>
   <varray name="basis" >
    <v>       3.50100000       0.00000000       0.00000000 </v>
    <v>       0.00000000       3.50100000       0.00000000 </v>
    <v>       0.00000000       0.00000000       3.50100000 </v>
   </varray>
   <i name="volume">     42.91176050 </i>
   <varray name="rec_basis" >
    <v>       0.28563268       0.00000000       0.00000000 </v>
    <v>       0.00000000       0.28563268       0.00000000 </v>
    <v>       0.00000000       0.00000000       0.28563268 </v>
   </varray>
  </crystal>
  <varray name="positions" >
   <v>       0.00000000       0.00000000       0.00000000 </v>
   <v>       0.00000000       0.50000000       0.50000000 </v>
   <v>       0.50000000       0.00000000       0.50000000 </v>
   <v>       0.50000000       0.50000000       0.00000000 </v>
  </varray>
 </structure>
 <calculation>
  <scstep>
   <time name="dav">    0.16    0.17</time>
   <time name="total">    0.17    0.21</time>
   <energy>
    <i name="alphaZ">    243.01114376 </i>
    <i name="ewald">  -3771.55319949 </i>
    <i name="hartreedc">   -359.51874106 </i>
    <i name="XCdc">   -111.37428949 </i>
    <i name="pawpsdc">   3226.95325816 </i>
    <i name="pawaedc">  -2978.06409795 </i>
    <i name="eentropy">     -0.00344022 </i>
    <i name="bandstr">    663.67338314 </i>
    <i name="atom">   3238.97557032 </i>
    <i name="e_fr_energy">    152.09958717 </i>
    <i name="e_wo_entrp">    152.10302739 </i>
    <i name="e_0_energy">    152.10073391 </i>
   </energy>
  </scstep>
  <scstep>
   <time name="dav">    0.15    0.15</time>
   <time name="total">    0.15    0.16</time>
   <energy>
    <i name="e_fr_energy">    -15.16351750 </i>
    <i name="e_wo_entrp">    -15.16431282 </i>
    <i name="e_0_energy">    -15.16378260 </i>
   </energy>
  </scstep>
  <scstep>
   <time name="dav">    0.13    0.14</time>
   <time name="total">    0.14    0.14</time>
   <energy>
    <i name="e_fr_energy">    -15.94767847 </i>
    <i name="e_wo_entrp">    -15.94884572 </i>
    <i name="e_0_energy">    -15.94806756 </i>
   </energy>
  </scstep>
  <scstep>
   <time name="dav">    0.16    0.16</time>
   <time name="total">    0.16    0.16</time>
   <energy>
    <i name="e_fr_energy">    -15.95093324 </i>
    <i name="e_wo_entrp">    -15.95210406 </i>
    <i name="e_0_energy">    -15.95132351 </i>
   </energy>
  </scstep>
  <scstep>
   <time name="dav">    0.11    0.11</time>
   <time name="total">    0.12    0.12</time>
   <energy>
    <i name="e_fr_energy">    -15.95096325 </i>
    <i name="e_wo_entrp">    -15.95213386 </i>
    <i name="e_0_energy">    -15.95135345 </i>
   </energy>
  </scstep>
  <scstep>
   <time name="dav">    0.11    0.11</time>
   <time name="total">    0.12    0.12</time>
   <energy>
    <i name="e_fr_energy">    -14.97226849 </i>
    <i name="e_wo_entrp">    -14.97343745 </i>
    <i name="e_0_energy">    -14.97265814 </i>
   </energy>
  </scstep>
  <scstep>
   <time name="dav">    0.11    0.11</time>
   <time name="total">    0.12    0.12</time>
   <energy>
    <i name="e_fr_energy">    -14.72439466 </i>
    <i name="e_wo_entrp">    -14.72709278 </i>
    <i name="e_0_energy">    -14.72529404 </i>
   </energy>
  </scstep>
  <scstep>
   <time name="dav">    0.11    0.11</time>
   <time name="total">    0.12    0.12</time>
   <energy>
    <i name="e_fr_energy">    -14.70700763 </i>
    <i name="e_wo_entrp">    -14.70940861 </i>
    <i name="e_0_energy">    -14.70780795 </i>
   </energy>
  </scstep>
  <scstep>
   <time name="dav">    0.10    0.10</time>
   <time name="total">    0.11    0.11</time>
   <energy>
    <i name="alphaZ">    243.01114376 </i>
    <i name="ewald">  -3771.55319949 </i>
    <i name="hartreedc">   -318.36766406 </i>
    <i name="XCdc">   -112.30692367 </i>
    <i name="pawpsdc">   5116.47818138 </i>
    <i name="pawaedc">  -4891.03092285 </i>
    <i name="eentropy">      0.00239139 </i>
    <i name="bandstr">    480.08438399 </i>
    <i name="atom">   3238.97557032 </i>
    <i name="e_fr_energy">    -14.70703924 </i>
    <i name="e_wo_entrp">    -14.70943064 </i>
    <i name="e_0_energy">    -14.70783637 </i>
   </energy>
  </scstep>
  <structure>
   <crystal>
    <varray name="basis" >
     <v>       3.50100000       0.00000000       0.00000000 </v>
     <v>       0.00000000       3.50100000       0.00000000 </v>
     <v>       0.00000000       0.00000000       3.50100000 </v>
    </varray>
    <i name="volume">     42.91176050 </i>
    <varray name="rec_basis" >
     <v>       0.28563268       0.00000000       0.00000000 </v>
     <v>       0.00000000       0.28563268       0.00000000 </v>
     <v>       0.00000000       0.00000000       0.28563268 </v>
    </varray>
   </crystal>
   <varray name="positions" >
    <v>       0.00000000       0.00000000       0.00000000 </v>
    <v>       0.00000000       0.50000000       0.50000000 </v>
    <v>       0.50000000       0.00000000       0.50000000 </v>
    <v>       0.50000000       0.50000000       0.00000000 </v>
   </varray>
  </structure>
  <varray name="forces" >
   <v>       0.00000000      -0.00000000      -0.00000000 </v>
   <v>       0.00000000       0.00000000       0.00000000 </v>
   <v>      -0.00000000      -0.00000000       0.00000000 </v>
   <v>      -0.00000000       0.00000000       0.00000000 </v>
  </varray>
  <varray name="stress" >
   <v>    1543.75310052      -0.00000000      -0.00000000 </v>
   <v>       0.00000000    1543.75310052      -0.00000000 </v>
   <v>       0.00000000      -0.00000000    1543.75310052 </v>
  </varray>
  <energy>
   <i name="e_fr_energy">    -14.70703924 </i>
   <i name="e_wo_entrp">    -14.70783637 </i>
   <i name="e_0_energy">      0.00239139 </i>
  </energy>
  <time name="totalsc">    1.34    1.40</time>
  <eigenvalues>
   <array>
    <dimension dim="1">band</dimension>
    <dimension dim="2">kpoint</dimension>
    <dimension dim="3">spin</dimension>
    <field>eigene</field>
    <field>occ</field>
    <set>
     <set comment="spin 1">
      <set comment="kpoint 1">
       <r>    6.5630    1.0000 </r>
       <r>    7.5616    1.0000 </r>
       <r>    7.5616    1.0000 </r>
       <r>    7.5616    1.0000 </r>
       <r>    8.0033    1.0000 </r>
       <r>    8.0033    1.0000 </r>
       <r>    8.0033    1.0000 </r>
       <r>   11.4669    1.0000 </r>
       <r>   11.6358    1.0000 </r>
       <r>   11.6358    1.0000 </r>
       <r>   14.2094    1.0000 </r>
       <r>   14.2094    1.0000 </r>
       <r>   16.0690    1.0027 </r>
       <r>   16.0690    1.0027 </r>
       <r>   16.0690    1.0027 </r>
       <r>   16.1450    1.0258 </r>
       <r>   16.1450    1.0258 </r>
       <r>   16.1450    1.0258 </r>
       <r>   16.7446   -0.0000 </r>
       <r>   16.7446   -0.0000 </r>
       <r>   16.7446   -0.0000 </r>
       <r>   20.2329    0.0000 </r>
       <r>   20.2329    0.0000 </r>
       <r>   20.2329    0.0000 </r>
      </set>
      <set comment="kpoint 2">
       <r>    7.0496    1.0000 </r>
       <r>    7.8703    1.0000 </r>
       <r>    7.8963    1.0000 </r>
       <r>    7.8963    1.0000 </r>
       <r>    8.2187    1.0000 </r>
       <r>    8.3864    1.0000 </r>
       <r>    8.3864    1.0000 </r>
       <r>   11.1555    1.0000 </r>
       <r>   11.8798    1.0000 </r>
       <r>   11.8904    1.0000 </r>
       <r>   13.8521    1.0000 </r>
       <r>   14.3640    1.0000 </r>
       <r>   14.6172    1.0000 </r>
       <r>   14.6172    1.0000 </r>
       <r>   15.4651    1.0000 </r>
       <r>   15.5984    1.0000 </r>
       <r>   15.5984    1.0000 </r>
       <r>   15.6678    1.0000 </r>
       <r>   16.4112   -0.0335 </r>
       <r>   16.7041   -0.0000 </r>
       <r>   16.7041   -0.0000 </r>
       <r>   18.6549   -0.0000 </r>
       <r>   21.9738    0.0000 </r>
       <r>   21.9738    0.0000 </r>
      </set>
      <set comment="kpoint 3">
       <r>    7.9057    1.0000 </r>
       <r>    8.3956    1.0000 </r>
       <r>    8.4852    1.0000 </r>
       <r>    8.4852    1.0000 </r>
       <r>    8.6373    1.0000 </r>
       <r>    9.1070    1.0000 </r>
       <r>    9.1070    1.0000 </r>
       <r>   10.5762    1.0000 </r>
       <r>   12.3296    1.0000 </r>
       <r>   12.3873    1.0000 </r>
       <r>   12.9217    1.0000 </r>
       <r>   12.9217    1.0000 </r>
       <r>   13.3938    1.0000 </r>
       <r>   14.3411    1.0000 </r>
       <r>   14.6564    1.0000 </r>
       <r>   14.7840    1.0000 </r>
       <r>   14.7840    1.0000 </r>
       <r>   14.8912    1.0000 </r>
       <r>   15.9751    1.0000 </r>
       <r>   16.6433   -0.0000 </r>
       <r>   16.6886   -0.0000 </r>
       <r>   16.6886   -0.0000 </r>
       <r>   24.0445    0.0000 </r>
       <r>   24.0445    0.0000 </r>
      </set>
      <set comment="kpoint 4">
       <r>    8.7491    1.0000 </r>
       <r>    8.8784    1.0000 </r>
       <r>    9.0522    1.0000 </r>
       <r>    9.0522    1.0000 </r>
       <r>    9.2175    1.0000 </r>
       <r>    9.8881    1.0000 </r>
       <r>   10.0973    1.0000 </r>
       <r>   10.0973    1.0000 </r>
       <r>   11.3913    1.0000 </r>
       <r>   11.3913    1.0000 </r>
       <r>   12.5282    1.0000 </r>
       <r>   13.0987    1.0000 </r>
       <r>   13.1383    1.0000 </r>
       <r>   13.7254    1.0000 </r>
       <r>   13.9689    1.0000 </r>
       <r>   14.0736    1.0000 </r>
       <r>   14.0736    1.0000 </r>
       <r>   14.9230    1.0000 </r>
       <r>   15.0539    1.0000 </r>
       <r>   15.5107    1.0000 </r>
       <r>   16.6844   -0.0000 </r>
       <r>   16.6844   -0.0000 </r>
       <r>   26.0036    0.0000 </r>
       <r>   26.0036    0.0000 </r>
      </set>
      <set comment="kpoint 5">
       <r>    7.4825    1.0000 </r>
       <r>    8.0959    1.0000 </r>
       <r>    8.1985    1.0000 </r>
       <r>    8.1985    1.0000 </r>
       <r>    8.5951    1.0000 </r>
       <r>    8.5951    1.0000 </r>
       <r>    8.8410    1.0000 </r>
       <r>   11.0580    1.0000 </r>
       <r>   11.9709    1.0000 </r>
       <r>   12.0218    1.0000 </r>
       <r>   13.7901    1.0000 </r>
       <r>   13.9186    1.0000 </r>
       <r>   13.9186    1.0000 </r>
       <r>   13.9322    1.0000 </r>
       <r>   14.3868    1.0000 </r>
       <r>   15.1018    1.0000 </r>
       <r>   15.3678    1.0000 </r>
       <r>   15.3678    1.0000 </r>
       <r>   16.3456    0.1501 </r>
       <r>   16.3456    0.1501 </r>
       <r>   16.4182   -0.0353 </r>
       <r>   20.2815    0.0000 </r>
       <r>   20.2815    0.0000 </r>
       <r>   23.2617    0.0000 </r>
      </set>
      <set comment="kpoint 6">
       <r>    8.2422    1.0000 </r>
       <r>    8.5714    1.0000 </r>
       <r>    8.6871    1.0000 </r>
       <r>    8.7928    1.0000 </r>
       <r>    9.0261    1.0000 </r>
       <r>    9.2796    1.0000 </r>
       <r>    9.5419    1.0000 </r>
       <r>   10.6674    1.0000 </r>
       <r>   12.1570    1.0000 </r>
       <r>   12.3683    1.0000 </r>
       <r>   12.3724    1.0000 </r>
       <r>   12.6927    1.0000 </r>
       <r>   12.9707    1.0000 </r>
       <r>   13.5638    1.0000 </r>
       <r>   14.4666    1.0000 </r>
       <r>   14.6631    1.0000 </r>
       <r>   14.7582    1.0000 </r>
       <r>   14.8257    1.0000 </r>
       <r>   15.8183    1.0000 </r>
       <r>   16.1976    1.0267 </r>
       <r>   16.2150    1.0001 </r>
       <r>   18.2219   -0.0000 </r>
       <r>   22.0999    0.0000 </r>
       <r>   24.9859    0.0000 </r>
      </set>
      <set comment="kpoint 7">
       <r>    9.0088    1.0000 </r>
       <r>    9.1209    1.0000 </r>
       <r>    9.2198    1.0000 </r>
       <r>    9.3879    1.0000 </r>
       <r>    9.6061    1.0000 </r>
       <r>   10.1109    1.0000 </r>
       <r>   10.1354    1.0000 </r>
       <r>   10.1970    1.0000 </r>
       <r>   11.1601    1.0000 </r>
       <r>   11.4248    1.0000 </r>
       <r>   11.9491    1.0000 </r>
       <r>   12.1264    1.0000 </r>
       <r>   12.9950    1.0000 </r>
       <r>   13.7876    1.0000 </r>
       <r>   13.9329    1.0000 </r>
       <r>   14.0368    1.0000 </r>
       <r>   14.0676    1.0000 </r>
       <r>   15.0101    1.0000 </r>
       <r>   15.5274    1.0000 </r>
       <r>   16.1364    1.0218 </r>
       <r>   16.1368    1.0219 </r>
       <r>   16.5686   -0.0005 </r>
       <r>   23.7220    0.0000 </r>
       <r>   25.0235    0.0000 </r>
      </set>
      <set comment="kpoint 8">
       <r>    8.8076    1.0000 </r>
       <r>    8.8853    1.0000 </r>
       <r>    9.2426    1.0000 </r>
       <r>    9.2426    1.0000 </r>
       <r>    9.6930    1.0000 </r>
       <r>    9.6930    1.0000 </r>
       <r>   10.1509    1.0000 </r>
       <r>   10.6872    1.0000 </r>
       <r>   11.6702    1.0000 </r>
       <r>   11.6702    1.0000 </r>
       <r>   12.0363    1.0000 </r>
       <r>   12.1475    1.0000 </r>
       <r>   12.5111    1.0000 </r>
       <r>   13.3991    1.0000 </r>
       <r>   13.9564    1.0000 </r>
       <r>   14.3216    1.0000 </r>
       <r>   14.3216    1.0000 </r>
       <r>   15.4806    1.0000 </r>
       <r>   15.4806    1.0000 </r>
       <r>   15.5744    1.0000 </r>
       <r>   15.7054    1.0000 </r>
       <r>   19.9173    0.0000 </r>
       <r>   19.9173    0.0000 </r>
       <r>   24.3588    0.0000 </r>
      </set>
      <set comment="kpoint 9">
       <r>    9.3684    1.0000 </r>
       <r>    9.4473    1.0000 </r>
       <r>    9.5266    1.0000 </r>
       <r>    9.9636    1.0000 </r>
       <r>   10.0810    1.0000 </r>
       <r>   10.3166    1.0000 </r>
       <r>   10.4763    1.0000 </r>
       <r>   10.5580    1.0000 </r>
       <r>   10.9892    1.0000 </r>
       <r>   11.2017    1.0000 </r>
       <r>   11.4393    1.0000 </r>
       <r>   11.5940    1.0000 </r>
       <r>   12.8986    1.0000 </r>
       <r>   13.5674    1.0000 </r>
       <r>   13.5774    1.0000 </r>
       <r>   13.7541    1.0000 </r>
       <r>   13.7766    1.0000 </r>
       <r>   14.6204    1.0000 </r>
       <r>   15.3266    1.0000 </r>
       <r>   15.3967    1.0000 </r>
       <r>   16.6788   -0.0000 </r>
       <r>   18.0885   -0.0000 </r>
       <r>   21.4749    0.0000 </r>
       <r>   22.8925    0.0000 </r>
      </set>
      <set comment="kpoint 10">
       <r>    9.6531    1.0000 </r>
       <r>    9.7103    1.0000 </r>
       <r>    9.8654    1.0000 </r>
       <r>    9.8654    1.0000 </r>
       <r>   10.6473    1.0000 </r>
       <r>   10.6473    1.0000 </r>
       <r>   10.6568    1.0000 </r>
       <r>   10.8110    1.0000 </r>
       <r>   11.1117    1.0000 </r>
       <r>   11.1117    1.0000 </r>
       <r>   11.4576    1.0000 </r>
       <r>   11.5035    1.0000 </r>
       <r>   12.7678    1.0000 </r>
       <r>   13.1246    1.0000 </r>
       <r>   13.1893    1.0000 </r>
       <r>   13.1893    1.0000 </r>
       <r>   13.8247    1.0000 </r>
       <r>   14.4752    1.0000 </r>
       <r>   14.4752    1.0000 </r>
       <r>   14.7675    1.0000 </r>
       <r>   18.0553   -0.0000 </r>
       <r>   19.6095    0.0000 </r>
       <r>   19.6095    0.0000 </r>
       <r>   21.1481    0.0000 </r>
      </set>
      <set comment="kpoint 11">
       <r>    7.7957    1.0000 </r>
       <r>    8.3395    1.0000 </r>
       <r>    8.3395    1.0000 </r>
       <r>    8.3395    1.0000 </r>
       <r>    9.0743    1.0000 </r>
       <r>    9.0743    1.0000 </r>
       <r>    9.0743    1.0000 </r>
       <r>   11.1720    1.0000 </r>
       <r>   12.0118    1.0000 </r>
       <r>   12.0118    1.0000 </r>
       <r>   13.3993    1.0000 </r>
       <r>   13.3993    1.0000 </r>
       <r>   13.3993    1.0000 </r>
       <r>   14.1387    1.0000 </r>
       <r>   14.1387    1.0000 </r>
       <r>   14.5054    1.0000 </r>
       <r>   14.5054    1.0000 </r>
       <r>   14.5054    1.0000 </r>
       <r>   16.5279   -0.0028 </r>
       <r>   16.5279   -0.0028 </r>
       <r>   16.5279   -0.0028 </r>
       <r>   21.2714    0.0000 </r>
       <r>   21.2714    0.0000 </r>
       <r>   21.2714    0.0000 </r>
      </set>
      <set comment="kpoint 12">
       <r>    8.3188    1.0000 </r>
       <r>    8.6872    1.0000 </r>
       <r>    8.7622    1.0000 </r>
       <r>    8.7622    1.0000 </r>
       <r>    9.5781    1.0000 </r>
       <r>    9.7240    1.0000 </r>
       <r>    9.7240    1.0000 </r>
       <r>   11.0968    1.0000 </r>
       <r>   12.0652    1.0000 </r>
       <r>   12.1785    1.0000 </r>
       <r>   12.3477    1.0000 </r>
       <r>   12.3477    1.0000 </r>
       <r>   12.5920    1.0000 </r>
       <r>   13.7592    1.0000 </r>
       <r>   14.0211    1.0000 </r>
       <r>   14.0211    1.0000 </r>
       <r>   14.0636    1.0000 </r>
       <r>   14.7121    1.0000 </r>
       <r>   16.3103    0.4067 </r>
       <r>   16.3103    0.4067 </r>
       <r>   16.3923   -0.0165 </r>
       <r>   18.8585   -0.0000 </r>
       <r>   22.6286    0.0000 </r>
       <r>   22.6286    0.0000 </r>
      </set>
      <set comment="kpoint 13">
       <r>    8.8072    1.0000 </r>
       <r>    8.9260    1.0000 </r>
       <r>    9.4164    1.0000 </r>
       <r>    9.4164    1.0000 </r>
       <r>    9.9877    1.0000 </r>
       <r>    9.9877    1.0000 </r>
       <r>   10.2863    1.0000 </r>
       <r>   10.8394    1.0000 </r>
       <r>   11.6441    1.0000 </r>
       <r>   11.6441    1.0000 </r>
       <r>   11.7847    1.0000 </r>
       <r>   11.8839    1.0000 </r>
       <r>   12.5285    1.0000 </r>
       <r>   13.0688    1.0000 </r>
       <r>   13.6021    1.0000 </r>
       <r>   13.6021    1.0000 </r>
       <r>   14.9423    1.0000 </r>
       <r>   15.3684    1.0000 </r>
       <r>   15.9729    1.0000 </r>
       <r>   16.0941    1.0068 </r>
       <r>   16.0941    1.0068 </r>
       <r>   16.6540   -0.0000 </r>
       <r>   23.7046    0.0000 </r>
       <r>   23.7046    0.0000 </r>
      </set>
      <set comment="kpoint 14">
       <r>    8.4876    1.0000 </r>
       <r>    8.9283    1.0000 </r>
       <r>    8.9403    1.0000 </r>
       <r>    8.9403    1.0000 </r>
       <r>   10.1831    1.0000 </r>
       <r>   10.1831    1.0000 </r>
       <r>   10.1958    1.0000 </r>
       <r>   11.5809    1.0000 </r>
       <r>   11.9350    1.0000 </r>
       <r>   11.9350    1.0000 </r>
       <r>   12.0331    1.0000 </r>
       <r>   12.0769    1.0000 </r>
       <r>   12.2336    1.0000 </r>
       <r>   13.3377    1.0000 </r>
       <r>   13.3700    1.0000 </r>
       <r>   13.3700    1.0000 </r>
       <r>   14.1693    1.0000 </r>
       <r>   15.2974    1.0000 </r>
       <r>   16.1353    1.0213 </r>
       <r>   16.2038    1.0197 </r>
       <r>   16.2038    1.0197 </r>
       <r>   20.0824    0.0000 </r>
       <r>   20.0824    0.0000 </r>
       <r>   22.9854    0.0000 </r>
      </set>
      <set comment="kpoint 15">
       <r>    8.7198    1.0000 </r>
       <r>    8.9153    1.0000 </r>
       <r>    9.2415    1.0000 </r>
       <r>    9.2925    1.0000 </r>
       <r>   10.2576    1.0000 </r>
       <r>   10.2747    1.0000 </r>
       <r>   10.9113    1.0000 </r>
       <r>   11.5701    1.0000 </r>
       <r>   11.7033    1.0000 </r>
       <r>   11.7700    1.0000 </r>
       <r>   11.9389    1.0000 </r>
       <r>   12.1823    1.0000 </r>
       <r>   12.2862    1.0000 </r>
       <r>   12.7425    1.0000 </r>
       <r>   12.9777    1.0000 </r>
       <r>   13.0743    1.0000 </r>
       <r>   14.7507    1.0000 </r>
       <r>   15.6744    1.0000 </r>
       <r>   15.8598    1.0000 </r>
       <r>   15.8755    1.0000 </r>
       <r>   16.3624    0.0662 </r>
       <r>   17.9050   -0.0000 </r>
       <r>   21.3468    0.0000 </r>
       <r>   22.4127    0.0000 </r>
      </set>
      <set comment="kpoint 16">
       <r>    8.7847    1.0000 </r>
       <r>    8.9905    1.0000 </r>
       <r>    8.9905    1.0000 </r>
       <r>    9.0883    1.0000 </r>
       <r>   10.6315    1.0000 </r>
       <r>   10.8547    1.0000 </r>
       <r>   10.8547    1.0000 </r>
       <r>   11.3322    1.0000 </r>
       <r>   12.1311    1.0000 </r>
       <r>   12.1893    1.0000 </r>
       <r>   12.1893    1.0000 </r>
       <r>   12.5057    1.0000 </r>
       <r>   12.5058    1.0000 </r>
       <r>   12.5720    1.0000 </r>
       <r>   12.6311    1.0000 </r>
       <r>   12.6311    1.0000 </r>
       <r>   14.6909    1.0000 </r>
       <r>   15.3110    1.0000 </r>
       <r>   15.3110    1.0000 </r>
       <r>   15.4430    1.0000 </r>
       <r>   17.7094   -0.0000 </r>
       <r>   19.3125    0.0000 </r>
       <r>   19.3125    0.0000 </r>
       <r>   20.7783    0.0000 </r>
      </set>
      <set comment="kpoint 17">
       <r>    8.2943    1.0000 </r>
       <r>    8.7949    1.0000 </r>
       <r>    8.7949    1.0000 </r>
       <r>    8.7949    1.0000 </r>
       <r>   10.5241    1.0000 </r>
       <r>   10.5241    1.0000 </r>
       <r>   10.5241    1.0000 </r>
       <r>   11.8434    1.0000 </r>
       <r>   11.8434    1.0000 </r>
       <r>   12.4398    1.0000 </r>
       <r>   12.4398    1.0000 </r>
       <r>   12.4398    1.0000 </r>
       <r>   12.6692    1.0000 </r>
       <r>   12.6692    1.0000 </r>
       <r>   12.6692    1.0000 </r>
       <r>   12.8409    1.0000 </r>
       <r>   15.0158    1.0000 </r>
       <r>   15.0158    1.0000 </r>
       <r>   16.3909   -0.0143 </r>
       <r>   16.3909   -0.0143 </r>
       <r>   16.3909   -0.0143 </r>
       <r>   20.4279    0.0000 </r>
       <r>   20.4279    0.0000 </r>
       <r>   20.4279    0.0000 </r>
      </set>
      <set comment="kpoint 18">
       <r>    8.3201    1.0000 </r>
       <r>    8.5260    1.0000 </r>
       <r>    8.7587    1.0000 </r>
       <r>    8.7587    1.0000 </r>
       <r>   10.6138    1.0000 </r>
       <r>   10.6138    1.0000 </r>
       <r>   11.0760    1.0000 </r>
       <r>   11.5654    1.0000 </r>
       <r>   11.8690    1.0000 </r>
       <r>   12.1544    1.0000 </r>
       <r>   12.3409    1.0000 </r>
       <r>   12.3409    1.0000 </r>
       <r>   12.7876    1.0000 </r>
       <r>   12.9756    1.0000 </r>
       <r>   12.9756    1.0000 </r>
       <r>   13.1812    1.0000 </r>
       <r>   15.7668    1.0000 </r>
       <r>   15.8740    1.0000 </r>
       <r>   16.1746    1.0354 </r>
       <r>   16.1746    1.0354 </r>
       <r>   16.2654    0.7686 </r>
       <r>   17.9327   -0.0000 </r>
       <r>   20.7402    0.0000 </r>
       <r>   20.7402    0.0000 </r>
      </set>
      <set comment="kpoint 19">
       <r>    8.2077    1.0000 </r>
       <r>    8.3693    1.0000 </r>
       <r>    8.3693    1.0000 </r>
       <r>    8.4473    1.0000 </r>
       <r>   10.9525    1.0000 </r>
       <r>   11.1020    1.0000 </r>
       <r>   11.1020    1.0000 </r>
       <r>   11.4832    1.0000 </r>
       <r>   11.6792    1.0000 </r>
       <r>   11.8801    1.0000 </r>
       <r>   11.8801    1.0000 </r>
       <r>   11.9341    1.0000 </r>
       <r>   13.7301    1.0000 </r>
       <r>   13.7301    1.0000 </r>
       <r>   13.7516    1.0000 </r>
       <r>   14.1472    1.0000 </r>
       <r>   15.5251    1.0000 </r>
       <r>   16.0389    1.0007 </r>
       <r>   16.0389    1.0007 </r>
       <r>   16.0491    1.0012 </r>
       <r>   17.0227   -0.0000 </r>
       <r>   18.6769   -0.0000 </r>
       <r>   18.6769   -0.0000 </r>
       <r>   19.6987    0.0000 </r>
      </set>
      <set comment="kpoint 20">
       <r>    7.9617    1.0000 </r>
       <r>    8.0493    1.0000 </r>
       <r>    8.0493    1.0000 </r>
       <r>    8.0493    1.0000 </r>
       <r>   11.2949    1.0000 </r>
       <r>   11.2949    1.0000 </r>
       <r>   11.2949    1.0000 </r>
       <r>   11.4891    1.0000 </r>
       <r>   11.4891    1.0000 </r>
       <r>   11.5781    1.0000 </r>
       <r>   11.5781    1.0000 </r>
       <r>   11.5781    1.0000 </r>
       <r>   14.9274    1.0000 </r>
       <r>   14.9274    1.0000 </r>
       <r>   14.9274    1.0000 </r>
       <r>   15.9476    1.0000 </r>
       <r>   16.1163    1.0133 </r>
       <r>   16.1163    1.0133 </r>
       <r>   16.3076    0.4295 </r>
       <r>   16.3076    0.4295 </r>
       <r>   16.3076    0.4295 </r>
       <r>   17.9581   -0.0000 </r>
       <r>   17.9581   -0.0000 </r>
       <r>   17.9581   -0.0000 </r>
      </set>
     </set>
    </set>
   </array>
  </eigenvalues>
  <separator name="orbital magnetization" >
   <v name="MAGDIPOLOUT">      0.00000000      0.00000000      0.00000000</v>
  </separator>
  <dos>
   <i name="efermi">     16.29920385 </i>
   <total>
    <array>
     <dimension dim="1">gridpoints</dimension>
     <dimension dim="2">spin</dimension>
     <field>energy</field>
     <field>total</field>
     <field>integrated</field>
     <set>
      <set comment="spin 1">
       <r>     5.5630     0.0000     0.0000 </r>
       <r>     5.6345     0.0000     0.0000 </r>
       <r>     5.7060    -0.0000    -0.0000 </r>
       <r>     5.7774    -0.0000    -0.0000 </r>
       <r>     5.8489    -0.0000    -0.0000 </r>
       <r>     5.9204    -0.0000    -0.0000 </r>
       <r>     5.9918    -0.0000    -0.0000 </r>
       <r>     6.0633    -0.0000    -0.0000 </r>
       <r>     6.1348    -0.0000    -0.0000 </r>
       <r>     6.2062    -0.0000    -0.0000 </r>
       <r>     6.2777    -0.0001    -0.0000 </r>
       <r>     6.3492    -0.0021    -0.0002 </r>
       <r>     6.4206    -0.0113    -0.0010 </r>
       <r>     6.4921     0.0297     0.0012 </r>
       <r>     6.5636     0.2045     0.0158 </r>
       <r>     6.6350     0.2020     0.0302 </r>
       <r>     6.7065     0.0278     0.0322 </r>
       <r>     6.7780    -0.0117     0.0314 </r>
       <r>     6.8495    -0.0119     0.0305 </r>
       <r>     6.9209    -0.0355     0.0280 </r>
       <r>     6.9924     0.1674     0.0399 </r>
       <r>     7.0639     0.6903     0.0893 </r>
       <r>     7.1353     0.5040     0.1253 </r>
       <r>     7.2068     0.0274     0.1273 </r>
       <r>     7.2783    -0.0372     0.1246 </r>
       <r>     7.3497    -0.0459     0.1213 </r>
       <r>     7.4212     0.1074     0.1290 </r>
       <r>     7.4927     0.7696     0.1840 </r>
       <r>     7.5641     1.1611     0.2670 </r>
       <r>     7.6356     0.6206     0.3113 </r>
       <r>     7.7071    -0.0133     0.3104 </r>
       <r>     7.7785     0.0243     0.3121 </r>
       <r>     7.8500     1.2984     0.4049 </r>
       <r>     7.9215     3.0109     0.6201 </r>
       <r>     7.9930     2.4243     0.7933 </r>
       <r>     8.0644     1.6530     0.9115 </r>
       <r>     8.1359     1.5779     1.0243 </r>
       <r>     8.2074     3.2083     1.2536 </r>
       <r>     8.2788     4.5874     1.5814 </r>
       <r>     8.3503     5.0189     1.9401 </r>
       <r>     8.4218     5.4319     2.3283 </r>
       <r>     8.4932     4.4519     2.6465 </r>
       <r>     8.5647     4.1719     2.9446 </r>
       <r>     8.6362     4.0850     3.2366 </r>
       <r>     8.7076     5.5616     3.6341 </r>
       <r>     8.7791     8.9742     4.2754 </r>
       <r>     8.8506     8.2854     4.8676 </r>
       <r>     8.9220     6.4950     5.3318 </r>
       <r>     8.9935     7.2705     5.8514 </r>
       <r>     9.0650     7.6672     6.3993 </r>
       <r>     9.1364     6.0402     6.8310 </r>
       <r>     9.2079     5.0112     7.1892 </r>
       <r>     9.2794     6.9256     7.6841 </r>
       <r>     9.3509     5.9052     8.1062 </r>
       <r>     9.4223     5.1331     8.4730 </r>
       <r>     9.4938     4.4909     8.7940 </r>
       <r>     9.5653     4.3309     9.1035 </r>
       <r>     9.6367     4.3812     9.4166 </r>
       <r>     9.7082     4.3974     9.7309 </r>
       <r>     9.7797     3.0308     9.9475 </r>
       <r>     9.8511     1.5946    10.0615 </r>
       <r>     9.9226     2.6118    10.2481 </r>
       <r>     9.9941     3.2113    10.4776 </r>
       <r>    10.0655     3.9856    10.7625 </r>
       <r>    10.1370     6.8704    11.2535 </r>
       <r>    10.2085     7.7113    11.8046 </r>
       <r>    10.2799     6.4754    12.2674 </r>
       <r>    10.3514     3.9391    12.5489 </r>
       <r>    10.4229     0.9819    12.6191 </r>
       <r>    10.4944     1.6405    12.7364 </r>
       <r>    10.5658     4.0872    13.0285 </r>
       <r>    10.6373     6.6370    13.5028 </r>
       <r>    10.7088     5.6968    13.9099 </r>
       <r>    10.7802     1.9945    14.0525 </r>
       <r>    10.8517     2.5478    14.2346 </r>
       <r>    10.9232     3.7773    14.5045 </r>
       <r>    10.9946     3.2312    14.7354 </r>
       <r>    11.0661     4.0320    15.0236 </r>
       <r>    11.1376     6.5789    15.4938 </r>
       <r>    11.2090     5.5054    15.8873 </r>
       <r>    11.2805     2.1987    16.0444 </r>
       <r>    11.3520     1.9424    16.1832 </r>
       <r>    11.4234     4.6599    16.5163 </r>
       <r>    11.4949     6.0691    16.9500 </r>
       <r>    11.5664     6.1060    17.3864 </r>
       <r>    11.6379     7.3599    17.9124 </r>
       <r>    11.7093     6.3776    18.3682 </r>
       <r>    11.7808     3.9076    18.6475 </r>
       <r>    11.8523     4.4022    18.9621 </r>
       <r>    11.9237     8.2772    19.5537 </r>
       <r>    11.9952     8.2995    20.1468 </r>
       <r>    12.0667     5.6570    20.5511 </r>
       <r>    12.1381     7.1058    21.0589 </r>
       <r>    12.2096     8.2995    21.6521 </r>
       <r>    12.2811     5.3987    22.0379 </r>
       <r>    12.3525     6.7444    22.5199 </r>
       <r>    12.4240     6.7074    22.9993 </r>
       <r>    12.4955     4.0944    23.2919 </r>
       <r>    12.5669     4.4726    23.6116 </r>
       <r>    12.6384     4.2652    23.9164 </r>
       <r>    12.7099     4.3105    24.2245 </r>
       <r>    12.7813     3.7898    24.4953 </r>
       <r>    12.8528     2.3182    24.6610 </r>
       <r>    12.9243     4.2357    24.9637 </r>
       <r>    12.9958     7.4991    25.4997 </r>
       <r>    13.0672     6.2521    25.9465 </r>
       <r>    13.1387     4.7451    26.2856 </r>
       <r>    13.2102     3.5474    26.5392 </r>
       <r>    13.2816     1.3572    26.6362 </r>
       <r>    13.3531     2.3049    26.8009 </r>
       <r>    13.4246     3.7735    27.0706 </r>
       <r>    13.4960     1.9949    27.2132 </r>
       <r>    13.5675     3.9524    27.4956 </r>
       <r>    13.6390     4.8539    27.8425 </r>
       <r>    13.7104     3.9740    28.1265 </r>
       <r>    13.7819     7.9285    28.6932 </r>
       <r>    13.8534     6.7825    29.1779 </r>
       <r>    13.9248     4.6858    29.5128 </r>
       <r>    13.9963     6.0894    29.9480 </r>
       <r>    14.0678     7.0871    30.4545 </r>
       <r>    14.1393     5.4409    30.8434 </r>
       <r>    14.2107     2.3786    31.0134 </r>
       <r>    14.2822     1.3380    31.1090 </r>
       <r>    14.3537     2.8159    31.3102 </r>
       <r>    14.4251     3.5747    31.5657 </r>
       <r>    14.4966     3.6675    31.8278 </r>
       <r>    14.5681     2.8916    32.0345 </r>
       <r>    14.6395     4.3265    32.3437 </r>
       <r>    14.7110     6.4421    32.8041 </r>
       <r>    14.7825     6.9657    33.3019 </r>
       <r>    14.8539     5.0892    33.6656 </r>
       <r>    14.9254     3.3119    33.9023 </r>
       <r>    14.9969     3.5298    34.1546 </r>
       <r>    15.0683     3.1390    34.3789 </r>
       <r>    15.1398     1.4563    34.4830 </r>
       <r>    15.2113     0.0445    34.4862 </r>
       <r>    15.2827     1.6781    34.6061 </r>
       <r>    15.3542     5.4938    34.9988 </r>
       <r>    15.4257     6.0846    35.4336 </r>
       <r>    15.4972     5.6043    35.8342 </r>
       <r>    15.5686     5.4242    36.2218 </r>
       <r>    15.6401     4.1205    36.5163 </r>
       <r>    15.7116     3.3219    36.7537 </r>
       <r>    15.7830     2.7769    36.9522 </r>
       <r>    15.8545     4.2923    37.2590 </r>
       <r>    15.9260     4.4006    37.5735 </r>
       <r>    15.9974     2.9978    37.7877 </r>
       <r>    16.0689     4.8329    38.1331 </r>
       <r>    16.1404     8.7346    38.7574 </r>
       <r>    16.2118     9.6847    39.4495 </r>
       <r>    16.2833     6.4611    39.9113 </r>
       <r>    16.3548     6.0692    40.3450 </r>
       <r>    16.4262     5.6465    40.7486 </r>
       <r>    16.4977     2.2958    40.9127 </r>
       <r>    16.5692     1.6645    41.0316 </r>
       <r>    16.6407     4.3192    41.3403 </r>
       <r>    16.7121     7.5033    41.8766 </r>
       <r>    16.7836     4.3530    42.1877 </r>
       <r>    16.8551     0.2468    42.2053 </r>
       <r>    16.9265    -0.2350    42.1885 </r>
       <r>    16.9980     0.3786    42.2156 </r>
       <r>    17.0695     0.7247    42.2674 </r>
       <r>    17.1409     0.2405    42.2845 </r>
       <r>    17.2124    -0.0317    42.2823 </r>
       <r>    17.2839    -0.0135    42.2813 </r>
       <r>    17.3553    -0.0009    42.2813 </r>
       <r>    17.4268    -0.0003    42.2812 </r>
       <r>    17.4983    -0.0069    42.2807 </r>
       <r>    17.5697    -0.0347    42.2783 </r>
       <r>    17.6412     0.1010    42.2855 </r>
       <r>    17.7127     0.5991    42.3283 </r>
       <r>    17.7841     0.4682    42.3618 </r>
       <r>    17.8556     0.5434    42.4006 </r>
       <r>    17.9271     2.2539    42.5617 </r>
       <r>    17.9986     2.4476    42.7366 </r>
       <r>    18.0700     1.9837    42.8784 </r>
       <r>    18.1415     1.8989    43.0141 </r>
       <r>    18.2130     1.4804    43.1199 </r>
       <r>    18.2844     1.2299    43.2078 </r>
       <r>    18.3559     0.2432    43.2252 </r>
       <r>    18.4274    -0.0792    43.2195 </r>
       <r>    18.4988    -0.0822    43.2136 </r>
       <r>    18.5703    -0.0103    43.2129 </r>
       <r>    18.6418     1.1699    43.2965 </r>
       <r>    18.7132     2.1322    43.4489 </r>
       <r>    18.7847     0.8794    43.5117 </r>
       <r>    18.8562     0.5147    43.5485 </r>
       <r>    18.9276     0.5797    43.5900 </r>
       <r>    18.9991     0.0944    43.5967 </r>
       <r>    19.0706    -0.0387    43.5939 </r>
       <r>    19.1421    -0.0505    43.5903 </r>
       <r>    19.2135    -0.0152    43.5892 </r>
       <r>    19.2850     0.7888    43.6456 </r>
       <r>    19.3565     1.4626    43.7501 </r>
       <r>    19.4279     0.4892    43.7851 </r>
       <r>    19.4994    -0.1190    43.7766 </r>
       <r>    19.5709     0.5429    43.8154 </r>
       <r>    19.6423     1.6482    43.9332 </r>
       <r>    19.7138     1.3762    44.0315 </r>
       <r>    19.7853     0.3918    44.0595 </r>
       <r>    19.8567     0.2711    44.0789 </r>
       <r>    19.9282     1.2585    44.1689 </r>
       <r>    19.9997     1.1296    44.2496 </r>
       <r>    20.0711     1.0935    44.3277 </r>
       <r>    20.1426     1.2366    44.4161 </r>
       <r>    20.2141     0.9638    44.4850 </r>
       <r>    20.2855     1.8762    44.6191 </r>
       <r>    20.3570     1.4323    44.7215 </r>
       <r>    20.4285     0.7124    44.7724 </r>
       <r>    20.5000     0.5247    44.8099 </r>
       <r>    20.5714     0.0188    44.8112 </r>
       <r>    20.6429    -0.0772    44.8057 </r>
       <r>    20.7144     0.9379    44.8727 </r>
       <r>    20.7858     2.1148    45.0239 </r>
       <r>    20.8573     1.0531    45.0991 </r>
       <r>    20.9288    -0.0148    45.0981 </r>
       <r>    21.0002    -0.0917    45.0915 </r>
       <r>    21.0717     0.0458    45.0948 </r>
       <r>    21.1432     0.5218    45.1321 </r>
       <r>    21.2146     0.7392    45.1849 </r>
       <r>    21.2861     1.0678    45.2612 </r>
       <r>    21.3576     1.7500    45.3863 </r>
       <r>    21.4290     1.5762    45.4989 </r>
       <r>    21.5005     1.5092    45.6068 </r>
       <r>    21.5720     0.7578    45.6610 </r>
       <r>    21.6435    -0.0153    45.6599 </r>
       <r>    21.7149    -0.0479    45.6564 </r>
       <r>    21.7864    -0.0335    45.6540 </r>
       <r>    21.8579    -0.0646    45.6494 </r>
       <r>    21.9293     0.4719    45.6832 </r>
       <r>    22.0008     1.4479    45.7866 </r>
       <r>    22.0723     1.5843    45.8999 </r>
       <r>    22.1437     1.4515    46.0036 </r>
       <r>    22.2152     0.4594    46.0364 </r>
       <r>    22.2867    -0.1335    46.0269 </r>
       <r>    22.3581     0.3396    46.0512 </r>
       <r>    22.4296     1.3809    46.1498 </r>
       <r>    22.5011     0.8942    46.2138 </r>
       <r>    22.5725     0.3882    46.2415 </r>
       <r>    22.6440     1.3336    46.3368 </r>
       <r>    22.7155     0.9447    46.4043 </r>
       <r>    22.7870    -0.0002    46.4043 </r>
       <r>    22.8584     0.5899    46.4465 </r>
       <r>    22.9299     1.6512    46.5645 </r>
       <r>    23.0014     1.3230    46.6590 </r>
       <r>    23.0728     0.4297    46.6897 </r>
       <r>    23.1443    -0.0437    46.6866 </r>
       <r>    23.2158     0.2166    46.7021 </r>
       <r>    23.2872     0.7252    46.7539 </r>
       <r>    23.3587     0.4108    46.7833 </r>
       <r>    23.4302    -0.0046    46.7830 </r>
       <r>    23.5016    -0.0509    46.7793 </r>
       <r>    23.5731    -0.1369    46.7695 </r>
       <r>    23.6446     0.4184    46.7994 </r>
       <r>    23.7160     2.4910    46.9775 </r>
       <r>    23.7875     2.3435    47.1450 </r>
       <r>    23.8590     0.2789    47.1649 </r>
       <r>    23.9304    -0.1866    47.1516 </r>
       <r>    24.0019     0.5208    47.1888 </r>
       <r>    24.0734     1.4683    47.2937 </r>
       <r>    24.1449     0.7604    47.3481 </r>
       <r>    24.2163    -0.0541    47.3442 </r>
       <r>    24.2878     0.0459    47.3475 </r>
       <r>    24.3593     0.6088    47.3910 </r>
       <r>    24.4307     0.6067    47.4343 </r>
       <r>    24.5022     0.0841    47.4404 </r>
       <r>    24.5737    -0.0337    47.4380 </r>
       <r>    24.6451    -0.0061    47.4375 </r>
       <r>    24.7166    -0.0016    47.4374 </r>
       <r>    24.7881    -0.0268    47.4355 </r>
       <r>    24.8595    -0.1200    47.4269 </r>
       <r>    24.9310     0.3807    47.4541 </r>
       <r>    25.0025     2.2971    47.6183 </r>
       <r>    25.0739     2.4031    47.7900 </r>
       <r>    25.1454     0.4684    47.8235 </r>
       <r>    25.2169    -0.1215    47.8148 </r>
       <r>    25.2884    -0.0309    47.8126 </r>
       <r>    25.3598    -0.0017    47.8125 </r>
       <r>    25.4313    -0.0000    47.8125 </r>
       <r>    25.5028    -0.0000    47.8125 </r>
       <r>    25.5742    -0.0000    47.8125 </r>
       <r>    25.6457    -0.0000    47.8125 </r>
       <r>    25.7172    -0.0005    47.8125 </r>
       <r>    25.7886    -0.0120    47.8116 </r>
       <r>    25.8601    -0.0673    47.8068 </r>
       <r>    25.9316     0.1670    47.8187 </r>
       <r>    26.0030     1.2121    47.9054 </r>
       <r>    26.0745     1.2271    47.9931 </r>
       <r>    26.1460     0.1780    48.0058 </r>
       <r>    26.2174    -0.0679    48.0009 </r>
       <r>    26.2889    -0.0125    48.0000 </r>
       <r>    26.3604    -0.0005    48.0000 </r>
       <r>    26.4318    -0.0000    48.0000 </r>
       <r>    26.5033    -0.0000    48.0000 </r>
       <r>    26.5748    -0.0000    48.0000 </r>
       <r>    26.6463    -0.0000    48.0000 </r>
       <r>    26.7177     0.0000    48.0000 </r>
       <r>    26.7892     0.0000    48.0000 </r>
       <r>    26.8607     0.0000    48.0000 </r>
       <r>    26.9321     0.0000    48.0000 </r>
       <r>    27.0036     0.0000    48.0000 </r>
      </set>
     </set>
    </array>
   </total>
  </dos>
 </calculation>
 <structure name="finalpos" >
  <crystal>
   <varray name="basis" >
    <v>       3.50100000       0.00000000       0.00000000 </v>
    <v>       0.00000000       3.50100000       0.00000000 </v>
    <v>       0.00000000       0.00000000       3.50100000 </v>
   </varray>
   <i name="volume">     42.91176050 </i>
   <varray name="rec_basis" >
    <v>       0.28563268       0.00000000       0.00000000 </v>
    <v>       0.00000000       0.28563268       0.00000000 </v>
    <v>       0.00000000       0.00000000       0.28563268 </v>
   </varray>
  </crystal>
  <varray name="positions" >
   <v>       0.00000000       0.00000000       0.00000000 </v>
   <v>       0.00000000       0.50000000       0.50000000 </v>
   <v>       0.50000000       0.00000000       0.50000000 </v>
   <v>       0.50000000       0.50000000       0.00000000 </v>
  </varray>
 </structure>
</modeling>
