----- GAMESS execution script 'rungms' -----
This job is running on host crcfe02.crc.nd.edu
under operating system Linux at Sun Sep 29 10:45:07 EDT 2019
Available scratch disk space (Kbyte units) at beginning of the job is
Filesystem      1K-blocks  Used  Available Use% Mounted on
AFS            2147483647     0 2147483647   0% /afs
GAMESS temporary binary files will be written to /afs/crc.nd.edu/user/c/cdrisko
GAMESS supplementary output files will be written to /afs/crc.nd.edu/user/c/cdrisko/scr
Copying input file SO2.inp to your run's scratch directory...

 Distributed Data Interface kickoff program.
 Initiating 1 compute processes on 1 nodes to run the following command:
 /afs/crc.nd.edu/x86_64_linux/g/gamess/nov-2017/gamess/gamess.00.x SO2 

          ******************************************************
          *         GAMESS VERSION = 11 NOV 2017 (R3)         *
          *             FROM IOWA STATE UNIVERSITY             *
          * M.W.SCHMIDT, K.K.BALDRIDGE, J.A.BOATZ, S.T.ELBERT, *
          *   M.S.GORDON, J.H.JENSEN, S.KOSEKI, N.MATSUNAGA,   *
          *          K.A.NGUYEN, S.J.SU, T.L.WINDUS,           *
          *       TOGETHER WITH M.DUPUIS, J.A.MONTGOMERY       *
          *         J.COMPUT.CHEM.  14, 1347-1363(1993)        *
          **************** 64 BIT INTEL VERSION ****************

  SINCE 1993, STUDENTS AND POSTDOCS WORKING AT IOWA STATE UNIVERSITY
  AND ALSO IN THEIR VARIOUS JOBS AFTER LEAVING ISU HAVE MADE IMPORTANT
  CONTRIBUTIONS TO THE CODE:
     IVANA ADAMOVIC, CHRISTINE AIKENS, YURI ALEXEEV, POOJA ARORA,
     ANDREY ASADCHEV, ROB BELL, PRADIPTA BANDYOPADHYAY, JONATHAN BENTZ,
     BRETT BODE, KURT BRORSEN, CALEB CARLIN, GALINA CHABAN, WEI CHEN,
     CHEOL HO CHOI, PAUL DAY, ALBERT DEFUSCO, NUWAN DESILVA, TIM DUDLEY,
     DMITRI FEDOROV, ALEX FINDLATER, GRAHAM FLETCHER, MARK FREITAG,
     KURT GLAESEMANN, ANASTASIA GUININA,
     DAN KEMP, GRANT MERRILL, NORIYUKI MINEZAWA, JONATHAN MULLIN,
     TAKESHI NAGATA, SEAN NEDD, HEATHER NETZLOFF, BOSILJKA NJEGIC, RYAN OLSON,
     MIKE PAK, BUU PHAM,
     SPENCER PRUITT, LUKE ROSKOP, JIM SHOEMAKER, LYUDMILA SLIPCHENKO,
     TONY SMITH, SAROM SOK LEANG, JIE SONG, TETSUYA TAKETSUGU, SIMON WEBB,
     PENG XU, SOOHAENG YOO, FEDERICO ZAHARIEV

  ADDITIONAL CODE HAS BEEN PROVIDED BY COLLABORATORS IN OTHER GROUPS:
     IOWA STATE UNIVERSITY:
          JOE IVANIC, AARON WEST, LAIMUTIS BYTAUTAS, KLAUS RUEDENBERG
     UNIVERSITY OF TOKYO: KIMIHIKO HIRAO, TAKAHITO NAKAJIMA,
          TAKAO TSUNEDA, MUNEAKI KAMIYA, SUSUMU YANAGISAWA,
          KIYOSHI YAGI, MAHITO CHIBA, SEIKEN TOKURA, NAOAKI KAWAKAMI
     UNIVERSITY OF AARHUS: FRANK JENSEN
     UNIVERSITY OF IOWA: VISVALDAS KAIRYS, HUI LI
     NATIONAL INST. OF STANDARDS AND TECHNOLOGY: WALT STEVENS, DAVID GARMER
     UNIVERSITY OF PISA: BENEDETTA MENNUCCI, JACOPO TOMASI
     UNIVERSITY OF MEMPHIS: HENRY KURTZ, PRAKASHAN KORAMBATH
     UNIVERSITY OF ALBERTA: TOBY ZENG, MARIUSZ KLOBUKOWSKI
     UNIVERSITY OF NEW ENGLAND: MARK SPACKMAN
     MIE UNIVERSITY: HIROAKI UMEDA
     NAT. INST. OF ADVANCED INDUSTRIAL SCIENCE AND TECHNOLOGY: KAZUO KITAURA
     MICHIGAN STATE UNIVERSITY:
          KAROL KOWALSKI, MARTA WLOCH, JEFFREY GOUR, JESSE LUTZ,
          WEI LI, PIOTR PIECUCH
     UNIVERSITY OF SILESIA: MONIKA MUSIAL, STANISLAW KUCHARSKI
     FACULTES UNIVERSITAIRES NOTRE-DAME DE LA PAIX:
          OLIVIER QUINET, BENOIT CHAMPAGNE
     UNIVERSITY OF CALIFORNIA - SANTA BARBARA: BERNARD KIRTMAN
     INSTITUTE FOR MOLECULAR SCIENCE:
          KAZUYA ISHIMURA, MICHIO KATOUDA, AND SHIGERU NAGASE
     UNIVERSITY OF NOTRE DAME: ANNA POMOGAEVA, DAN CHIPMAN
     KYUSHU UNIVERSITY:
          HARUYUKI NAKANO,
          FENG LONG GU, JACEK KORCHOWIEC, MARCIN MAKOWSKI, AND YURIKO AOKI,
          HIROTOSHI MORI AND EISAKU MIYOSHI
     PENNSYLVANIA STATE UNIVERSITY:
          TZVETELIN IORDANOV, CHET SWALINA, JONATHAN SKONE,
          SHARON HAMMES-SCHIFFER
     WASEDA UNIVERSITY:
          MASATO KOBAYASHI, TOMOKO AKAMA, TSUGUKI TOUMA,
          TAKESHI YOSHIKAWA, YASUHIRO IKABATA, JUNJI SEINO,
          YUYA NAKAJIMA, HIROMI NAKAI
     NANJING UNIVERSITY: SHUHUA LI
     UNIVERSITY OF NEBRASKA:
          PEIFENG SU, DEJUN SI, NANDUN THELLAMUREGE, YALI WANG, HUI LI
     UNIVERSITY OF ZURICH: ROBERTO PEVERATI, KIM BALDRIDGE
     N. COPERNICUS UNIVERSITY AND JACKSON STATE UNIVERSITY:
          MARIA BARYSZ
     UNIVERSITY OF COPENHAGEN: Jimmy Kromann, CASPER STEINMANN
     TOKYO INSTITUTE OF TECHNOLOGY: HIROYA NAKATA
     NAGOYA UNIVERSITY: YOSHIO NISHIMOTO, STEPHAN IRLE
     MOSCOW STATE UNIVERSITY: VLADIMIR MIRONOV

 EXECUTION OF GAMESS BEGUN Sun Sep 29 10:45:08 2019

            ECHO OF THE FIRST FEW INPUT CARDS -
 INPUT CARD> $BASIS GBASIS=PCSEG-1 $END                                                     
 INPUT CARD> $CONTRL COORD=ZMT ISPHER=1 RUNTYP=ENERGY DFTTYP=PBE MULT=1 $END                
 INPUT CARD>                                                                                
 INPUT CARD> $DATA                                                                          
 INPUT CARD>Title SO2 single-point calculation template with Z-Matrix                       
 INPUT CARD>C1                                                                              
 INPUT CARD>S                                                                               
 INPUT CARD>O 1 1.35                                                                        
 INPUT CARD>O 1 1.35 2 150                                                                  
 INPUT CARD> $END                                                                           
    1000000 WORDS OF MEMORY AVAILABLE

     BASIS OPTIONS
     -------------
     GBASIS=PCSEG-1      IGAUSS=       0      POLAR=NONE    
     NDFUNC=       0     NFFUNC=       0     DIFFSP=       F
     NPFUNC=       0      DIFFS=       F     BASNAM=        


     RUN TITLE
     ---------
 Title SO2 single-point calculation template with Z-Matrix                       

 THE POINT GROUP OF THE MOLECULE IS C1      
 THE ORDER OF THE PRINCIPAL AXIS IS     0

 YOUR FULLY SUBSTITUTED Z-MATRIX IS
 S   
 O      1   1.3500000
 O      1   1.3500000  2  150.0000

 THE MOMENTS OF INERTIA ARE (AMU-ANGSTROM**2)
 IXX=     1.952   IYY=    54.396   IZZ=    56.348

 ATOM      ATOMIC                      COORDINATES (BOHR)
           CHARGE         X                   Y                   Z
 S          16.0     0.0000000000       -0.3302321430        0.0000000000
 O           8.0     2.4642024338        0.3300489091        0.0000000000
 O           8.0    -2.4642024338        0.3300489091        0.0000000000

          INTERNUCLEAR DISTANCES (ANGS.)
          ------------------------------

                1 S          2 O          3 O     

   1 S       0.0000000    1.3500000 *  1.3500000 *
   2 O       1.3500000 *  0.0000000    2.6079997 *
   3 O       1.3500000 *  2.6079997 *  0.0000000  

  * ... LESS THAN  3.000


     ATOMIC BASIS SET
     ----------------
 THE CONTRACTED PRIMITIVE FUNCTIONS HAVE BEEN UNNORMALIZED
 THE CONTRACTED BASIS FUNCTIONS ARE NOW NORMALIZED TO UNITY

  SHELL TYPE  PRIMITIVE        EXPONENT          CONTRACTION COEFFICIENT(S)

 S         

      1   S       1         49299.4000000    0.000677492991
      1   S       2          7395.8400000    0.005232317766
      1   S       3          1683.3000000    0.026769459077
      1   S       4           476.1440000    0.102869580705
      1   S       5           154.3290000    0.286438127414
      1   S       6            55.0288000    0.454278639081
      1   S       7            20.5029000    0.271743121997

      2   S       8            45.9596000   -0.088421914560
      2   S       9             4.9274000    0.564350486135
      2   S      10             1.9179900    0.505415953466

      3   S      11             0.3684980    1.000000000000

      4   S      12             0.1291650    1.000000000000

      5   P      13           451.6620000    0.003707705453
      5   P      14           106.0980000    0.029219352245
      5   P      15            33.6996000    0.124444551509
      5   P      16            12.3054000    0.321808587656
      5   P      17             4.7141200    0.462822172957
      5   P      18             1.7810500    0.266513371364

      6   P      19             0.8722350    0.349265132972
      6   P      20             0.3102780    0.717115018770

      7   P      21             0.1001940    1.000000000000

      8   D      22             0.5500000    1.000000000000

 O         

      9   S      23          2288.6400000    0.005451138222
      9   S      24           344.4160000    0.040718922842
      9   S      25            78.2538000    0.181369420873
      9   S      26            21.7195000    0.465536820246
      9   S      27             6.5590700    0.451211321214

     10   S      28            10.4656000   -0.150211201174
     10   S      29             0.9643510    1.052867983385

     11   S      30             0.2851270    1.000000000000

     12   P      31            17.0590000    0.068749256972
     12   P      32             3.6899900    0.351671941499
     12   P      33             0.9929960    0.724532099722

     13   P      34             0.2449240    1.000000000000

     14   D      35             1.0000000    1.000000000000

 O         

     15   S      36          2288.6400000    0.005451138222
     15   S      37           344.4160000    0.040718922842
     15   S      38            78.2538000    0.181369420873
     15   S      39            21.7195000    0.465536820246
     15   S      40             6.5590700    0.451211321214

     16   S      41            10.4656000   -0.150211201174
     16   S      42             0.9643510    1.052867983385

     17   S      43             0.2851270    1.000000000000

     18   P      44            17.0590000    0.068749256972
     18   P      45             3.6899900    0.351671941499
     18   P      46             0.9929960    0.724532099722

     19   P      47             0.2449240    1.000000000000

     20   D      48             1.0000000    1.000000000000

 TOTAL NUMBER OF BASIS SET SHELLS             =   20
 NUMBER OF CARTESIAN GAUSSIAN BASIS FUNCTIONS =   49
 NOTE: THIS RUN WILL RESTRICT THE MO VARIATION SPACE TO SPHERICAL HARMONICS.
 THE NUMBER OF ORBITALS KEPT IN THE VARIATIONAL SPACE WILL BE PRINTED LATER.
 NUMBER OF ELECTRONS                          =   32
 CHARGE OF MOLECULE                           =    0
 SPIN MULTIPLICITY                            =    1
 NUMBER OF OCCUPIED ORBITALS (ALPHA)          =   16
 NUMBER OF OCCUPIED ORBITALS (BETA )          =   16
 TOTAL NUMBER OF ATOMS                        =    3
 THE NUCLEAR REPULSION ENERGY IS      113.3336318880

     LEBEDEV GRID-BASED DFT OPTIONS
     ------------------------------
     DFTTYP=PBE     
     NRAD  =      96     NLEB  =     302
     NRAD0 =      24     NLEB0 =     110
     SWOFF =    5.00E-03 (PURE SCF -> DFT)
     SWITCH=    3.00E-04 (COARSE -> TIGHT GRID)
     THRESH=    0.00E+00 GTHRE=    1.00E+00

 GRIMME'S EMPIRICAL DISPERSION CORRECTION= F

     $CONTRL OPTIONS
     ---------------
 SCFTYP=RHF          RUNTYP=ENERGY       EXETYP=RUN     
 MPLEVL=       0     CITYP =NONE         CCTYP =NONE         VBTYP =NONE    
 DFTTYP=PBE          TDDFT =NONE    
 MULT  =       1     ICHARG=       0     NZVAR =       0     COORD =ZMT     
 PP    =NONE         RELWFN=NONE         LOCAL =NONE         NUMGRD=       F
 ISPHER=       1     NOSYM =       0     MAXIT =      30     UNITS =ANGS    
 PLTORB=       F     MOLPLT=       F     AIMPAC=       F     FRIEND=        
 NPRINT=       7     IREST =       0     GEOM  =INPUT   
 NORMF =       0     NORMP =       0     ITOL  =      20     ICUT  =       9
 INTTYP=BEST         GRDTYP=BEST         QMTTOL= 1.0E-06

     $SYSTEM OPTIONS
     ---------------
  REPLICATED MEMORY=     1000000 WORDS (ON EVERY NODE).
 DISTRIBUTED MEMDDI=           0 MILLION WORDS IN AGGREGATE,
 MEMDDI DISTRIBUTED OVER   1 PROCESSORS IS           0 WORDS/PROCESSOR.
 TOTAL MEMORY REQUESTED ON EACH PROCESSOR=     1000000 WORDS.
 TIMLIM=      525600.00 MINUTES, OR     365.0 DAYS.
 PARALL= F  BALTYP=  DLB     KDIAG=    0  COREFL= F
 MXSEQ2=     300 MXSEQ3=     150  mem10=         0

          ----------------
          PROPERTIES INPUT
          ----------------

     MOMENTS            FIELD           POTENTIAL          DENSITY
 IEMOM =       1   IEFLD =       0   IEPOT =       0   IEDEN =       0
 WHERE =COMASS     WHERE =NUCLEI     WHERE =NUCLEI     WHERE =NUCLEI  
 OUTPUT=BOTH       OUTPUT=BOTH       OUTPUT=BOTH       OUTPUT=BOTH    
 IEMINT=       0   IEFINT=       0                     IEDINT=       0
                                                       MORB  =       0
          EXTRAPOLATION IN EFFECT
          DIIS IN EFFECT
 ORBITAL PRINTING OPTION: NPREO=     1    49     2     1

     -------------------------------
     INTEGRAL TRANSFORMATION OPTIONS
     -------------------------------
     NWORD  =            0
     CUTOFF = 1.0E-09     MPTRAN =       0
     DIRTRF =       F     AOINTS =DUP     

          ----------------------
          INTEGRAL INPUT OPTIONS
          ----------------------
 NOPK  =       1 NORDER=       0 SCHWRZ=       F

   --- ENCODED Z MATRIX ---
 COORD  TYPE   I   J   K   L   M   N
    1      1    2   1
    2      1    3   1
    3      2    3   1   2

 THE DETERMINANT OF THE G MATRIX IS 10**(    -4)

 THE DETERMINANT OF THE G MATRIX IS 10**(    -4)
 * * * WARNING * * *
 YOUR B MATRIX HAS A SMALL DETERMINANT.
 THIS SUGGESTS YOU MAY HAVE BADLY CHOSEN COORDINATES.

     ------------------------------------------
     THE POINT GROUP IS C1 , NAXIS= 0, ORDER= 1
     ------------------------------------------

 -- VARIATIONAL SPACE WILL BE RESTRICTED TO PURE SPHERICAL HARMONICS ONLY --
 AFTER EXCLUDING CONTAMINANT COMBINATIONS FROM THE CARTESIAN GAUSSIAN BASIS
 SET, THE NUMBER OF SPHERICAL HARMONICS KEPT IN THE VARIATION SPACE IS   46

     DIMENSIONS OF THE SYMMETRY SUBSPACES ARE
 A   =   46

 ..... DONE SETTING UP THE RUN .....
 STEP CPU TIME =     0.04 TOTAL CPU TIME =          0.0 (      0.0 MIN)
 TOTAL WALL CLOCK TIME=          0.0 SECONDS, CPU UTILIZATION IS   100.00%

          ********************
          1 ELECTRON INTEGRALS
          ********************
 ...... END OF ONE-ELECTRON INTEGRALS ......
 STEP CPU TIME =     0.00 TOTAL CPU TIME =          0.0 (      0.0 MIN)
 TOTAL WALL CLOCK TIME=          0.0 SECONDS, CPU UTILIZATION IS    80.00%

          -------------
          GUESS OPTIONS
          -------------
          GUESS =HUCKEL            NORB  =       0          NORDER=       0
          MIX   =       F          PRTMO =       F          PUNMO =       F
          TOLZ  = 1.0E-08          TOLE  = 1.0E-05
          SYMDEN=       F          PURIFY=       F

 INITIAL GUESS ORBITALS GENERATED BY HUCKEL   ROUTINE.
 HUCKEL GUESS REQUIRES     21634 WORDS.

 STATISTICS FOR GENERATION OF SYMMETRY ORBITAL -Q- MATRIX
 NUMBER OF CARTESIAN ATOMIC ORBITALS=         49
 NUMBER OF SPHERICAL CONTAMINANTS DROPPED=     3
 NUMBER OF LINEARLY DEPENDENT MOS DROPPED=     0
 TOTAL NUMBER OF MOS IN VARIATION SPACE=      46

 SYMMETRIES FOR INITIAL GUESS ORBITALS FOLLOW.   BOTH SET(S).
    16 ORBITALS ARE OCCUPIED (    7 CORE ORBITALS).
     8=A        9=A       10=A       11=A       12=A       13=A       14=A   
    15=A       16=A       17=A       18=A       19=A       20=A       21=A   
    22=A       23=A       24=A       25=A       26=A   
 ...... END OF INITIAL ORBITAL SELECTION ......
 STEP CPU TIME =     0.01 TOTAL CPU TIME =          0.0 (      0.0 MIN)
 TOTAL WALL CLOCK TIME=          0.0 SECONDS, CPU UTILIZATION IS   100.00%

                    ----------------------
                    AO INTEGRAL TECHNOLOGY
                    ----------------------
     S,P,L SHELL ROTATED AXIS INTEGRALS, REPROGRAMMED BY
        KAZUYA ISHIMURA (IMS) AND JOSE SIERRA (SYNSTAR).
     S,P,D,L SHELL ROTATED AXIS INTEGRALS PROGRAMMED BY
        KAZUYA ISHIMURA (INSTITUTE FOR MOLECULAR SCIENCE).
     S,P,D,F,G SHELL TO TOTAL QUARTET ANGULAR MOMENTUM SUM 5,
        ERIC PROGRAM BY GRAHAM FLETCHER (ELORET AND NASA ADVANCED
        SUPERCOMPUTING DIVISION, AMES RESEARCH CENTER).
     S,P,D,F,G,L SHELL GENERAL RYS QUADRATURE PROGRAMMED BY
        MICHEL DUPUIS (PACIFIC NORTHWEST NATIONAL LABORATORY).

          --------------------
          2 ELECTRON INTEGRALS
          --------------------

 THE -PK- OPTION IS OFF, THE INTEGRALS ARE NOT IN SUPERMATRIX FORM.
 STORING   15000 INTEGRALS/RECORD ON DISK, USING 12 BYTES/INTEGRAL.
 TWO ELECTRON INTEGRAL EVALUATION REQUIRES   90606 WORDS OF MEMORY.
 II,JST,KST,LST =  1  1  1  1 NREC =         1 INTLOC =    1
 II,JST,KST,LST =  2  1  1  1 NREC =         1 INTLOC =    2
 II,JST,KST,LST =  3  1  1  1 NREC =         1 INTLOC =    7
 II,JST,KST,LST =  4  1  1  1 NREC =         1 INTLOC =   22
 II,JST,KST,LST =  5  1  1  1 NREC =         1 INTLOC =   56
 II,JST,KST,LST =  6  1  1  1 NREC =         1 INTLOC =  125
 II,JST,KST,LST =  7  1  1  1 NREC =         1 INTLOC =  329
 II,JST,KST,LST =  8  1  1  1 NREC =         1 INTLOC =  776
 II,JST,KST,LST =  9  1  1  1 NREC =         1 INTLOC = 2864
 II,JST,KST,LST = 10  1  1  1 NREC =         1 INTLOC = 4996
 II,JST,KST,LST = 11  1  1  1 NREC =         1 INTLOC = 7666
 II,JST,KST,LST = 12  1  1  1 NREC =         1 INTLOC =10784
 II,JST,KST,LST = 13  1  1  1 NREC =         2 INTLOC = 6722
 II,JST,KST,LST = 14  1  1  1 NREC =         3 INTLOC = 6997
 II,JST,KST,LST = 15  1  1  1 NREC =         6 INTLOC = 9044
 II,JST,KST,LST = 16  1  1  1 NREC =         7 INTLOC = 1607
 II,JST,KST,LST = 17  1  1  1 NREC =         7 INTLOC =13354
 II,JST,KST,LST = 18  1  1  1 NREC =         8 INTLOC =11803
 II,JST,KST,LST = 19  1  1  1 NREC =        11 INTLOC = 7404
 II,JST,KST,LST = 20  1  1  1 NREC =        14 INTLOC =14674
 TOTAL NUMBER OF NONZERO TWO-ELECTRON INTEGRALS =              342831
         23 INTEGRAL RECORDS WERE STORED ON DISK FILE  8.
  ...... END OF TWO-ELECTRON INTEGRALS .....
 STEP CPU TIME =     0.10 TOTAL CPU TIME =          0.2 (      0.0 MIN)
 TOTAL WALL CLOCK TIME=          0.2 SECONDS, CPU UTILIZATION IS    93.75%

          --------------------------
               R-PBE SCF CALCULATION
          --------------------------

     NUCLEAR ENERGY =       113.3336318880
     MAXIT =   30     NPUNCH=    2
     EXTRAP=T  DAMP=F  SHIFT=F  RSTRCT=F  DIIS=T  DEM=F  SOSCF=F
         DENSITY MATRIX CONVERGENCE THRESHOLD=  1.00E-05
     COARSE -> FINE DFT GRID SWITCH THRESHOLD=  3.00E-04 (SWITCH IN $DFT)
                   HF -> DFT SWITCH THRESHOLD=  5.00E-03 (SWOFF IN $DFT)
     MEMORY REQUIRED FOR RHF ITERS=    183108 WORDS.

 DFT CODE IS SWITCHING FROM THE FINE GRID NRAD= 96,  NLEB=  302
                      TO THE COARSE GRID NRAD0= 24, NLEB0=  110

     EXCHANGE FUNCTIONAL   =PBE       
     CORRELATION FUNCTIONAL=PBE       
     DFT THRESHOLD         =.460E-07
     GRID CHANGE THRESHOLD =.300E-03
 FOR AN EULER-MACLAURIN QUADRATURE USING  96 RADIAL POINTS:
 SMALLEST GAUSSIAN PRIMITIVE EXPONENT=        0.1001940000 OF TYPE -P-
 ON ATOM NUMBER   1 HAS RADIAL NORMALIZATION=  1.000000
  LARGEST GAUSSIAN PRIMITIVE EXPONENT=    49299.4000000000 OF TYPE -S-
 ON ATOM NUMBER   1 HAS RADIAL NORMALIZATION=  1.000000
 DFT IS SWITCHED OFF, PERFORMING PURE SCF UNTIL SWOFF THRESHOLD IS REACHED.

 ITER EX DEM     TOTAL ENERGY        E CHANGE  DENSITY CHANGE    DIIS ERROR
   1  0  0     -545.8915798585  -545.8915798585   0.681099875   1.034962716
          * * *   INITIATING DIIS PROCEDURE   * * *
   2  1  0     -546.8165038246    -0.9249239661   0.516018617   0.224603603
   3  2  0     -546.9391601629    -0.1226563383   0.149849772   0.156857897
   4  3  0     -547.0162789731    -0.0771188102   0.111281531   0.023910888
   5  4  0     -547.0242371217    -0.0079581486   0.080775403   0.012519528
   6  5  0     -547.0267082037    -0.0024710820   0.029804677   0.005427372
   7  6  0     -547.0270874023    -0.0003791986   0.004341754   0.000717195
 CONVERGED TO SWOFF, SO DFT CALCULATION IS NOW SWITCHED ON.
          * * *   INITIATING DIIS PROCEDURE   * * *
   8  7  0     -548.1214030172    -1.0943156149   0.231064307   0.094829071
   9  8  0     -548.1372204870    -0.0158174698   0.184645792   0.062547662
  10  9  0     -548.1336619633     0.0035585237   0.080586841   0.068321540
  11 10  0     -548.1499629443    -0.0163009810   0.016966539   0.011616820
  12 11  0     -548.1503516512    -0.0003887068   0.001199863   0.000699966
  13 12  0     -548.1503530621    -0.0000014109   0.000699415   0.000091125
  14 13  0     -548.1503531089    -0.0000000467   0.000129397   0.000028592
 DFT CODE IS SWITCHING BACK TO THE FINE GRID
          * * *   INITIATING DIIS PROCEDURE   * * *
  15 14  0     -548.1504811170    -0.0001280082   0.015447374   0.008195202
  16 15  0     -548.1506183008    -0.0001371838   0.006065960   0.000506909
  17 16  0     -548.1506193115    -0.0000010106   0.002228125   0.000396875
  18 17  0     -548.1506199055    -0.0000005941   0.000197501   0.000135088
  19 18  0     -548.1506199507    -0.0000000452   0.000081083   0.000062087
  20 19  0     -548.1506199641    -0.0000000134   0.000026381   0.000026250
  21 20  0     -548.1506199656    -0.0000000015   0.000008489   0.000010339
  22 21  0     -548.1506199659    -0.0000000004   0.000002808   0.000000862

          -----------------
          DENSITY CONVERGED
          -----------------
     TIME TO FORM FOCK OPERATORS=       2.2 SECONDS (       0.1 SEC/ITER)
     TIME TO SOLVE SCF EQUATIONS=       0.0 SECONDS (       0.0 SEC/ITER)

 FINAL R-PBE ENERGY IS     -548.1506199659 AFTER  22 ITERATIONS
 DFT EXCHANGE + CORRELATION ENERGY =       -42.6781894353
 TOTAL ELECTRON NUMBER             =        32.0000140928

          ------------
          EIGENVECTORS
          ------------

                      1          2          3          4          5
                  -88.2144   -18.8047   -18.8047    -7.8308    -5.8583
                     A          A          A          A          A   
    1  S  1  S    0.997739  -0.000061  -0.000002  -0.308316   0.000000
    2  S  1  S    0.008444   0.000451   0.000017   1.031400  -0.000000
    3  S  1  S   -0.003941   0.000831   0.000031   0.028415  -0.000000
    4  S  1  S    0.000174   0.006753   0.000250  -0.004989  -0.000000
    5  S  1  X   -0.000000   0.000005  -0.000137   0.000000   0.993921
    6  S  1  Y    0.000151  -0.000027  -0.000001   0.014535  -0.000000
    7  S  1  Z    0.000000   0.000000   0.000000   0.000000   0.000000
    8  S  1  X    0.000000   0.000038  -0.001022   0.000000   0.018492
    9  S  1  Y   -0.000467   0.000661   0.000024   0.001480  -0.000000
   10  S  1  Z    0.000000   0.000000   0.000000   0.000000   0.000000
   11  S  1  X    0.000000   0.000212  -0.005716   0.000000  -0.002094
   12  S  1  Y   -0.000031   0.001801   0.000067  -0.000307  -0.000000
   13  S  1  Z    0.000000   0.000000   0.000000   0.000000   0.000000
   14  S  1 XX   -0.000799  -0.001353  -0.000050   0.001428  -0.000000
   15  S  1 YY    0.000364   0.000765   0.000028  -0.000741   0.000000
   16  S  1 ZZ    0.000435   0.000588   0.000022  -0.000687   0.000000
   17  S  1 XY    0.000000  -0.000029   0.000770   0.000000   0.001759
   18  S  1 XZ    0.000000   0.000000   0.000000   0.000000   0.000000
   19  S  1 YZ    0.000000   0.000000   0.000000   0.000000   0.000000
   20  O  2  S   -0.000034   0.727803  -0.675721  -0.000384  -0.001102
   21  O  2  S   -0.000155   0.025218  -0.023498  -0.000117   0.001116
   22  O  2  S    0.001175  -0.011947   0.012170  -0.000838  -0.001731
   23  O  2  X   -0.000258  -0.001510   0.000985  -0.000245  -0.002131
   24  O  2  Y   -0.000087  -0.000153   0.000224  -0.000044  -0.000684
   25  O  2  Z    0.000000   0.000000   0.000000   0.000000   0.000000
   26  O  2  X   -0.000866   0.002991  -0.001394   0.001161   0.001335
   27  O  2  Y   -0.000242  -0.000163  -0.001186   0.000348   0.000282
   28  O  2  Z    0.000000   0.000000   0.000000   0.000000   0.000000
   29  O  2 XX    0.000346  -0.000103  -0.000098   0.000780   0.001662
   30  O  2 YY   -0.000138   0.000108   0.000136  -0.000363  -0.000653
   31  O  2 ZZ   -0.000208  -0.000005  -0.000038  -0.000416  -0.001010
   32  O  2 XY    0.000217   0.000228   0.000247   0.000314   0.001115
   33  O  2 XZ    0.000000   0.000000   0.000000   0.000000   0.000000
   34  O  2 YZ    0.000000   0.000000   0.000000   0.000000   0.000000
   35  O  3  S   -0.000034   0.675709   0.727814  -0.000384   0.001102
   36  O  3  S   -0.000155   0.023406   0.025303  -0.000117  -0.001116
   37  O  3  S    0.001175  -0.011012  -0.013021  -0.000838   0.001731
   38  O  3  X    0.000258   0.001433   0.001094   0.000245  -0.002131
   39  O  3  Y   -0.000087  -0.000136  -0.000234  -0.000044   0.000684
   40  O  3  Z    0.000000   0.000000   0.000000   0.000000   0.000000
   41  O  3  X    0.000866  -0.002880  -0.001612  -0.001161   0.001335
   42  O  3  Y   -0.000242  -0.000250   0.001170   0.000348  -0.000282
   43  O  3  Z    0.000000   0.000000   0.000000   0.000000   0.000000
   44  O  3 XX    0.000346  -0.000110   0.000090   0.000780  -0.001662
   45  O  3 YY   -0.000138   0.000118  -0.000128  -0.000363   0.000653
   46  O  3 ZZ   -0.000208  -0.000007   0.000037  -0.000416   0.001010
   47  O  3 XY   -0.000217  -0.000245   0.000229  -0.000314   0.001115
   48  O  3 XZ    0.000000   0.000000   0.000000   0.000000   0.000000
   49  O  3 YZ    0.000000   0.000000   0.000000   0.000000   0.000000

                      6          7          8          9         10
                   -5.8545    -5.8497    -1.1066    -1.0317    -0.5568
                     A          A          A          A          A   
    1  S  1  S    0.000000   0.004651   0.055853  -0.000000   0.056800
    2  S  1  S    0.000000  -0.016107  -0.338582   0.000001  -0.363671
    3  S  1  S    0.000000   0.000885   0.458147  -0.000002   0.567642
    4  S  1  S    0.000000  -0.000062   0.052168  -0.000005   0.161971
    5  S  1  X    0.000000   0.000000  -0.000001  -0.171835   0.000000
    6  S  1  Y    0.000000   0.994861  -0.045945   0.000000   0.001286
    7  S  1  Z    0.994963   0.000000   0.000000   0.000000   0.000000
    8  S  1  X    0.000000   0.000000   0.000003   0.369235  -0.000000
    9  S  1  Y    0.000000   0.015791   0.097628  -0.000001   0.005048
   10  S  1  Z    0.015902   0.000000   0.000000   0.000000   0.000000
   11  S  1  X    0.000000   0.000000   0.000003  -0.022915  -0.000001
   12  S  1  Y    0.000000  -0.002787  -0.013994  -0.000001  -0.022879
   13  S  1  Z   -0.002944   0.000000   0.000000   0.000000   0.000000
   14  S  1 XX    0.000000  -0.000715   0.085921  -0.000002  -0.020336
   15  S  1 YY    0.000000   0.001297  -0.038366   0.000001   0.005520
   16  S  1 ZZ    0.000000  -0.000582  -0.047555   0.000001   0.014816
   17  S  1 XY    0.000000   0.000000   0.000001   0.062383  -0.000000
   18  S  1 XZ    0.000000   0.000000   0.000000   0.000000   0.000000
   19  S  1 YZ    0.001058   0.000000   0.000000   0.000000   0.000000
   20  O  2  S    0.000000  -0.000292  -0.137042  -0.157900   0.116215
   21  O  2  S    0.000000   0.000386   0.273860   0.325865  -0.248362
   22  O  2  S    0.000000  -0.000089   0.208822   0.233304  -0.347781
   23  O  2  X    0.000000  -0.000756  -0.126204  -0.127765  -0.237746
   24  O  2  Y    0.000000  -0.000066  -0.024261  -0.030445  -0.065440
   25  O  2  Z    0.000137   0.000000   0.000000   0.000000   0.000000
   26  O  2  X    0.000000   0.000366  -0.027410  -0.001825  -0.115503
   27  O  2  Y    0.000000  -0.000300   0.000766   0.000127  -0.027273
   28  O  2  Z   -0.000294   0.000000   0.000000   0.000000   0.000000
   29  O  2 XX    0.000000   0.000608   0.014048   0.011246   0.012900
   30  O  2 YY    0.000000  -0.000370  -0.008362  -0.005034  -0.005029
   31  O  2 ZZ    0.000000  -0.000238  -0.005686  -0.006213  -0.007871
   32  O  2 XY    0.000000   0.000036   0.000890   0.007773   0.006744
   33  O  2 XZ   -0.000283   0.000000   0.000000   0.000000   0.000000
   34  O  2 YZ   -0.000125   0.000000   0.000000   0.000000   0.000000
   35  O  3  S    0.000000  -0.000292  -0.137042   0.157900   0.116216
   36  O  3  S    0.000000   0.000386   0.273857  -0.325868  -0.248363
   37  O  3  S    0.000000  -0.000089   0.208829  -0.233296  -0.347783
   38  O  3  X    0.000000   0.000756   0.126204  -0.127765   0.237746
   39  O  3  Y    0.000000  -0.000066  -0.024261   0.030445  -0.065440
   40  O  3  Z    0.000137   0.000000   0.000000   0.000000   0.000000
   41  O  3  X    0.000000  -0.000366   0.027413  -0.001820   0.115503
   42  O  3  Y    0.000000  -0.000300   0.000765  -0.000128  -0.027273
   43  O  3  Z   -0.000294   0.000000   0.000000   0.000000   0.000000
   44  O  3 XX    0.000000   0.000608   0.014049  -0.011246   0.012900
   45  O  3 YY    0.000000  -0.000370  -0.008362   0.005033  -0.005029
   46  O  3 ZZ    0.000000  -0.000238  -0.005686   0.006212  -0.007871
   47  O  3 XY    0.000000  -0.000036  -0.000890   0.007773  -0.006744
   48  O  3 XZ    0.000283   0.000000   0.000000   0.000000   0.000000
   49  O  3 YZ   -0.000125   0.000000   0.000000   0.000000   0.000000

                     11         12         13         14         15
                   -0.4768    -0.4680    -0.4579    -0.3728    -0.3625
                     A          A          A          A          A   
    1  S  1  S    0.000000  -0.008824  -0.000000   0.000000  -0.000000
    2  S  1  S    0.000000   0.056753   0.000000   0.000000   0.000000
    3  S  1  S    0.000000  -0.085664  -0.000001   0.000000  -0.000000
    4  S  1  S    0.000000  -0.065171  -0.000001   0.000000   0.000001
    5  S  1  X    0.000000  -0.000000  -0.166430   0.000000  -0.012167
    6  S  1  Y    0.000000  -0.200391   0.000000   0.000000  -0.000000
    7  S  1  Z   -0.208369   0.000000   0.000000  -0.000000   0.000000
    8  S  1  X    0.000000   0.000001   0.446564   0.000000   0.024024
    9  S  1  Y    0.000000   0.519528  -0.000001   0.000000   0.000000
   10  S  1  Z    0.543616   0.000000   0.000000   0.000000   0.000000
   11  S  1  X    0.000000   0.000000  -0.063815   0.000000   0.041714
   12  S  1  Y    0.000000   0.087234  -0.000000   0.000000   0.000000
   13  S  1  Z    0.092255   0.000000   0.000000   0.000000   0.000000
   14  S  1 XX    0.000000  -0.058749  -0.000000   0.000000   0.000000
   15  S  1 YY    0.000000   0.067887  -0.000000   0.000000  -0.000000
   16  S  1 ZZ    0.000000  -0.009138   0.000000   0.000000  -0.000000
   17  S  1 XY    0.000000   0.000000   0.035428   0.000000  -0.154536
   18  S  1 XZ    0.000000   0.000000   0.000000  -0.159404   0.000000
   19  S  1 YZ    0.044873   0.000000   0.000000   0.000000   0.000000
   20  O  2  S    0.000000   0.010089   0.075758   0.000000  -0.002153
   21  O  2  S    0.000000  -0.020164  -0.157511   0.000000   0.008233
   22  O  2  S    0.000000  -0.029961  -0.285809   0.000000   0.001499
   23  O  2  X    0.000000  -0.127580  -0.373829   0.000000   0.168633
   24  O  2  Y    0.000000   0.306369  -0.137832   0.000000  -0.428498
   25  O  2  Z    0.327356   0.000000   0.000000  -0.458364   0.000000
   26  O  2  X    0.000000  -0.074339  -0.151228   0.000000   0.102657
   27  O  2  Y    0.000000   0.173005  -0.069123   0.000000  -0.288264
   28  O  2  Z    0.184220   0.000000   0.000000  -0.306428   0.000000
   29  O  2 XX    0.000000   0.015829   0.014697   0.000000  -0.006526
   30  O  2 YY    0.000000  -0.011647  -0.005050   0.000000   0.006865
   31  O  2 ZZ    0.000000  -0.004182  -0.009647   0.000000  -0.000339
   32  O  2 XY    0.000000  -0.019619   0.012042   0.000000   0.020466
   33  O  2 XZ   -0.026415   0.000000   0.000000   0.020032   0.000000
   34  O  2 YZ   -0.005469   0.000000   0.000000   0.003786   0.000000
   35  O  3  S    0.000000   0.010089  -0.075758   0.000000   0.002154
   36  O  3  S    0.000000  -0.020164   0.157510   0.000000  -0.008233
   37  O  3  S    0.000000  -0.029959   0.285811   0.000000  -0.001501
   38  O  3  X    0.000000   0.127578  -0.373830   0.000000   0.168633
   39  O  3  Y    0.000000   0.306369   0.137831   0.000000   0.428498
   40  O  3  Z    0.327356   0.000000   0.000000   0.458364   0.000000
   41  O  3  X    0.000000   0.074339  -0.151227   0.000000   0.102656
   42  O  3  Y    0.000000   0.173005   0.069122   0.000000   0.288264
   43  O  3  Z    0.184220   0.000000   0.000000   0.306428   0.000000
   44  O  3 XX    0.000000   0.015829  -0.014697   0.000000   0.006525
   45  O  3 YY    0.000000  -0.011647   0.005050   0.000000  -0.006864
   46  O  3 ZZ    0.000000  -0.004182   0.009647   0.000000   0.000339
   47  O  3 XY    0.000000   0.019619   0.012042   0.000000   0.020466
   48  O  3 XZ    0.026415   0.000000   0.000000   0.020032   0.000000
   49  O  3 YZ   -0.005469   0.000000   0.000000  -0.003786   0.000000

                     16         17         18         19         20
                   -0.2297    -0.1158    -0.0483     0.1474     0.2072
                     A          A          A          A          A   
    1  S  1  S    0.030449   0.000000   0.014388  -0.000000   0.000000
    2  S  1  S   -0.199414   0.000000  -0.096610   0.000001   0.000000
    3  S  1  S    0.228984   0.000000   0.073866  -0.000009   0.000000
    4  S  1  S    0.754235   0.000000   0.722614  -0.000011   0.000000
    5  S  1  X   -0.000000   0.000000  -0.000000  -0.053198   0.000000
    6  S  1  Y    0.118846   0.000000  -0.195608   0.000000   0.000000
    7  S  1  Z    0.000000  -0.233328   0.000000   0.000000   0.246179
    8  S  1  X    0.000000   0.000000   0.000001   0.183675   0.000000
    9  S  1  Y   -0.329533   0.000000   0.624203  -0.000002   0.000000
   10  S  1  Z    0.000000   0.714374   0.000000   0.000000  -0.965349
   11  S  1  X   -0.000002   0.000000  -0.000005   1.697401   0.000000
   12  S  1  Y   -0.062668   0.000000   0.531082  -0.000001   0.000000
   13  S  1  Z    0.000000   0.412100   0.000000   0.000000   1.299005
   14  S  1 XX   -0.224053   0.000000  -0.159049  -0.000005   0.000000
   15  S  1 YY    0.107228   0.000000   0.036323   0.000002   0.000000
   16  S  1 ZZ    0.116825   0.000000   0.122727   0.000003   0.000000
   17  S  1 XY   -0.000000   0.000000   0.000000  -0.092880   0.000000
   18  S  1 XZ    0.000000   0.000000   0.000000   0.000000  -0.000000
   19  S  1 YZ    0.000000  -0.030411   0.000000   0.000000  -0.070066
   20  O  2  S    0.028389   0.000000   0.041681   0.072471   0.000000
   21  O  2  S   -0.063005   0.000000  -0.093571  -0.125462   0.000000
   22  O  2  S   -0.155228   0.000000  -0.313876  -0.892576   0.000000
   23  O  2  X    0.247799   0.000000   0.268432  -0.006005   0.000000
   24  O  2  Y    0.280508   0.000000  -0.272324   0.120842   0.000000
   25  O  2  Z    0.000000  -0.395382   0.000000   0.000000  -0.024714
   26  O  2  X    0.163786   0.000000   0.255888   0.083178   0.000000
   27  O  2  Y    0.209485   0.000000  -0.263058   0.154894   0.000000
   28  O  2  Z    0.000000  -0.357415   0.000000   0.000000  -0.095159
   29  O  2 XX   -0.005508   0.000000  -0.002931  -0.013801   0.000000
   30  O  2 YY    0.003110   0.000000  -0.000605   0.007613   0.000000
   31  O  2 ZZ    0.002398   0.000000   0.003536   0.006188   0.000000
   32  O  2 XY   -0.002405   0.000000  -0.001729  -0.004574   0.000000
   33  O  2 XZ    0.000000   0.001012   0.000000   0.000000   0.025711
   34  O  2 YZ    0.000000  -0.001498   0.000000   0.000000   0.004613
   35  O  3  S    0.028389   0.000000   0.041682  -0.072470   0.000000
   36  O  3  S   -0.063006   0.000000  -0.093573   0.125450   0.000000
   37  O  3  S   -0.155230   0.000000  -0.313878   0.892602   0.000000
   38  O  3  X   -0.247800   0.000000  -0.268433  -0.006010   0.000000
   39  O  3  Y    0.280508   0.000000  -0.272324  -0.120843   0.000000
   40  O  3  Z    0.000000  -0.395382   0.000000   0.000000  -0.024715
   41  O  3  X   -0.163786   0.000000  -0.255886   0.083196   0.000000
   42  O  3  Y    0.209486   0.000000  -0.263057  -0.154898   0.000000
   43  O  3  Z    0.000000  -0.357415   0.000000   0.000000  -0.095159
   44  O  3 XX   -0.005508   0.000000  -0.002931   0.013803   0.000000
   45  O  3 YY    0.003110   0.000000  -0.000606  -0.007614   0.000000
   46  O  3 ZZ    0.002398   0.000000   0.003536  -0.006189   0.000000
   47  O  3 XY    0.002405   0.000000   0.001729  -0.004575   0.000000
   48  O  3 XZ    0.000000  -0.001012   0.000000   0.000000  -0.025711
   49  O  3 YZ    0.000000  -0.001498   0.000000   0.000000   0.004613

                     21         22         23         24         25
                    0.2178     0.2816     0.4808     0.5176     0.5194
                     A          A          A          A          A   
    1  S  1  S    0.002985  -0.069922   0.000000   0.000000   0.004032
    2  S  1  S   -0.022132   0.505935  -0.000001   0.000000  -0.030251
    3  S  1  S    0.060799  -1.783563   0.000007   0.000000   0.100271
    4  S  1  S    0.045268   2.235108   0.000003   0.000000   0.066066
    5  S  1  X   -0.000000  -0.000001  -0.276639   0.000000   0.000000
    6  S  1  Y    0.250119  -0.001605  -0.000000   0.000000   0.011538
    7  S  1  Z    0.000000   0.000000   0.000000   0.018286   0.000000
    8  S  1  X    0.000002   0.000010   1.048933   0.000000   0.000001
    9  S  1  Y   -0.972625   0.042336   0.000002   0.000000  -0.044229
   10  S  1  Z    0.000000   0.000000   0.000000  -0.077546   0.000000
   11  S  1  X    0.000001   0.000003  -0.707995   0.000000   0.000001
   12  S  1  Y    1.290189   0.083425   0.000000   0.000000   0.116273
   13  S  1  Z    0.000000   0.000000   0.000000   0.113710   0.000000
   14  S  1 XX    0.132311   0.271253   0.000002   0.000000  -0.000297
   15  S  1 YY   -0.117922  -0.117794  -0.000000   0.000000   0.847990
   16  S  1 ZZ   -0.014388  -0.153459  -0.000002   0.000000  -0.847694
   17  S  1 XY    0.000000   0.000001  -0.611763   0.000000   0.000001
   18  S  1 XZ    0.000000   0.000000   0.000000  -0.000000   0.000000
   19  S  1 YZ    0.000000   0.000000   0.000000   0.980172   0.000000
   20  O  2  S    0.003036   0.011439   0.023960   0.000000   0.007486
   21  O  2  S    0.015861   0.026644  -0.124568   0.000000  -0.027952
   22  O  2  S   -0.157727  -0.551329   0.115965   0.000000  -0.056024
   23  O  2  X   -0.061203  -0.222133   0.265283   0.000000   0.040301
   24  O  2  Y   -0.021120  -0.058101   0.243832   0.000000  -0.133835
   25  O  2  Z    0.000000   0.000000   0.000000  -0.134554   0.000000
   26  O  2  X    0.013252   0.144419   0.084253   0.000000   0.066150
   27  O  2  Y   -0.071655   0.058982   0.144214   0.000000   0.019052
   28  O  2  Z    0.000000   0.000000   0.000000   0.000140   0.000000
   29  O  2 XX   -0.021494  -0.050011   0.023925   0.000000   0.004118
   30  O  2 YY    0.014034   0.021955   0.003365   0.000000   0.033934
   31  O  2 ZZ    0.007460   0.028055  -0.027290   0.000000  -0.038052
   32  O  2 XY    0.017171  -0.026595   0.047982   0.000000  -0.022729
   33  O  2 XZ    0.000000   0.000000   0.000000  -0.021032   0.000000
   34  O  2 YZ    0.000000   0.000000   0.000000   0.042067   0.000000
   35  O  3  S    0.003036   0.011439  -0.023960   0.000000   0.007486
   36  O  3  S    0.015860   0.026637   0.124569   0.000000  -0.027953
   37  O  3  S   -0.157723  -0.551310  -0.115974   0.000000  -0.056021
   38  O  3  X    0.061202   0.222131   0.265285   0.000000  -0.040302
   39  O  3  Y   -0.021121  -0.058102  -0.243832   0.000000  -0.133835
   40  O  3  Z    0.000000   0.000000   0.000000  -0.134554   0.000000
   41  O  3  X   -0.013248  -0.144405   0.084242   0.000000  -0.066147
   42  O  3  Y   -0.071656   0.058979  -0.144212   0.000000   0.019052
   43  O  3  Z    0.000000   0.000000   0.000000   0.000140   0.000000
   44  O  3 XX   -0.021494  -0.050010  -0.023925   0.000000   0.004118
   45  O  3 YY    0.014034   0.021955  -0.003365   0.000000   0.033934
   46  O  3 ZZ    0.007460   0.028055   0.027290   0.000000  -0.038052
   47  O  3 XY   -0.017171   0.026595   0.047983   0.000000   0.022729
   48  O  3 XZ    0.000000   0.000000   0.000000   0.021032   0.000000
   49  O  3 YZ    0.000000   0.000000   0.000000   0.042067   0.000000

                     26         27         28         29         30
                    0.6149     0.6339     0.6492     0.7278     0.7538
                     A          A          A          A          A   
    1  S  1  S    0.031675   0.000000  -0.000000   0.000000  -0.000000
    2  S  1  S   -0.257053   0.000000   0.000001   0.000000  -0.000000
    3  S  1  S    1.327940   0.000000  -0.000012   0.000000   0.000002
    4  S  1  S    0.790343   0.000000  -0.000018   0.000000   0.000004
    5  S  1  X   -0.000002   0.000000  -0.236701   0.000000   0.038977
    6  S  1  Y   -0.062721   0.000000   0.000001   0.000000  -0.000000
    7  S  1  Z    0.000000   0.000000   0.000000  -0.000000   0.000000
    8  S  1  X    0.000017   0.000000   1.399924   0.000000  -0.260217
    9  S  1  Y    0.387374   0.000000  -0.000004   0.000000   0.000001
   10  S  1  Z    0.000000  -0.000000   0.000000  -0.000000   0.000000
   11  S  1  X    0.000007   0.000000  -0.156588   0.000000   0.210027
   12  S  1  Y    0.002760   0.000000  -0.000002   0.000000   0.000000
   13  S  1  Z    0.000000  -0.000000   0.000000  -0.000000   0.000000
   14  S  1 XX    0.523057   0.000000  -0.000004   0.000000   0.000000
   15  S  1 YY   -0.271980   0.000000   0.000002   0.000000  -0.000000
   16  S  1 ZZ   -0.251077   0.000000   0.000003   0.000000  -0.000000
   17  S  1 XY    0.000004   0.000000   0.348060   0.000000  -0.267961
   18  S  1 XZ    0.000000   0.921362   0.000000  -0.469565   0.000000
   19  S  1 YZ    0.000000   0.000000   0.000000   0.000000   0.000000
   20  O  2  S    0.064832   0.000000   0.055482   0.000000   0.007024
   21  O  2  S   -0.138545   0.000000  -0.104480   0.000000  -0.115247
   22  O  2  S   -0.700350   0.000000  -0.587146   0.000000   0.191256
   23  O  2  X   -0.302285   0.000000  -0.182734   0.000000   0.161443
   24  O  2  Y   -0.010991   0.000000  -0.200698   0.000000  -0.573845
   25  O  2  Z    0.000000  -0.393653   0.000000  -0.533115   0.000000
   26  O  2  X    1.209565   0.000000   1.140125   0.000000  -0.448999
   27  O  2  Y    0.287626   0.000000   0.388182   0.000000   0.725159
   28  O  2  Z    0.000000   0.008802   0.000000   0.830878   0.000000
   29  O  2 XX   -0.004393   0.000000   0.040257   0.000000  -0.021131
   30  O  2 YY    0.000032   0.000000  -0.020555   0.000000   0.015884
   31  O  2 ZZ    0.004362   0.000000  -0.019702   0.000000   0.005247
   32  O  2 XY   -0.006027   0.000000   0.015561   0.000000   0.019760
   33  O  2 XZ    0.000000  -0.063281   0.000000   0.044093   0.000000
   34  O  2 YZ    0.000000  -0.030875   0.000000   0.016469   0.000000
   35  O  3  S    0.064831   0.000000  -0.055483   0.000000  -0.007024
   36  O  3  S   -0.138547   0.000000   0.104482   0.000000   0.115241
   37  O  3  S   -0.700321   0.000000   0.587167   0.000000  -0.191256
   38  O  3  X    0.302270   0.000000  -0.182749   0.000000   0.161449
   39  O  3  Y   -0.010991   0.000000   0.200701   0.000000   0.573842
   40  O  3  Z    0.000000   0.393653   0.000000   0.533115   0.000000
   41  O  3  X   -1.209524   0.000000   1.140161   0.000000  -0.449009
   42  O  3  Y    0.287621   0.000000  -0.388190   0.000000  -0.725156
   43  O  3  Z    0.000000  -0.008802   0.000000  -0.830878   0.000000
   44  O  3 XX   -0.004394   0.000000  -0.040257   0.000000   0.021131
   45  O  3 YY    0.000032   0.000000   0.020555   0.000000  -0.015884
   46  O  3 ZZ    0.004362   0.000000   0.019702   0.000000  -0.005247
   47  O  3 XY    0.006027   0.000000   0.015561   0.000000   0.019759
   48  O  3 XZ    0.000000  -0.063281   0.000000   0.044092   0.000000
   49  O  3 YZ    0.000000   0.030875   0.000000  -0.016469   0.000000

                     31         32         33         34         35
                    0.8492     0.8749     0.9728     1.2959     1.4734
                     A          A          A          A          A   
    1  S  1  S    0.005492   0.000000  -0.000000   0.022126   0.004685
    2  S  1  S   -0.046169   0.000000   0.000001  -0.166425  -0.015130
    3  S  1  S    0.241365   0.000000  -0.000001   0.253575  -0.331330
    4  S  1  S    0.055266   0.000000  -0.000010   1.472468  -1.245761
    5  S  1  X    0.000000   0.000000  -0.197143  -0.000002  -0.000006
    6  S  1  Y   -0.002852   0.000000   0.000000  -0.079653  -0.012207
    7  S  1  Z    0.000000   0.006270   0.000000   0.000000   0.000000
    8  S  1  X   -0.000001   0.000000   0.645790   0.000011   0.000065
    9  S  1  Y   -0.038053   0.000000  -0.000002   0.388818  -0.078390
   10  S  1  Z    0.000000  -0.103341   0.000000   0.000000   0.000000
   11  S  1  X    0.000000   0.000000   0.111577   0.000023   0.000130
   12  S  1  Y   -0.684445   0.000000  -0.000004   0.247458  -0.384859
   13  S  1  Z    0.000000  -0.721240   0.000000   0.000000   0.000000
   14  S  1 XX    0.199968   0.000000  -0.000003   1.138411   0.331049
   15  S  1 YY   -0.241483   0.000000   0.000001  -0.490347  -0.171502
   16  S  1 ZZ    0.041515   0.000000   0.000002  -0.648063  -0.159548
   17  S  1 XY   -0.000001   0.000000   0.771479   0.000005   0.000007
   18  S  1 XZ    0.000000  -0.000000   0.000000   0.000000   0.000000
   19  S  1 YZ    0.000000  -0.166792   0.000000   0.000000   0.000000
   20  O  2  S   -0.011707   0.000000   0.042349   0.005629   0.083036
   21  O  2  S    0.138567   0.000000  -0.240190   0.372247  -1.220780
   22  O  2  S   -0.187507   0.000000  -0.230016  -1.459633   1.691138
   23  O  2  X    0.186894   0.000000   0.618817   0.510758   0.266340
   24  O  2  Y   -0.572662   0.000000   0.023185   0.286788   0.038081
   25  O  2  Z    0.000000  -0.622233   0.000000   0.000000   0.000000
   26  O  2  X   -0.108358   0.000000  -0.238032   0.286509  -0.671807
   27  O  2  Y    0.983457   0.000000  -0.140053  -0.066869   0.046691
   28  O  2  Z    0.000000   1.012331   0.000000   0.000000   0.000000
   29  O  2 XX   -0.013025   0.000000   0.063134   0.038302  -0.144485
   30  O  2 YY    0.008617   0.000000  -0.067636   0.019828   0.110198
   31  O  2 ZZ    0.004408   0.000000   0.004502  -0.058131   0.034287
   32  O  2 XY    0.039362   0.000000  -0.070720   0.089742   0.081508
   33  O  2 XZ    0.000000   0.046905   0.000000   0.000000   0.000000
   34  O  2 YZ    0.000000   0.002387   0.000000   0.000000   0.000000
   35  O  3  S   -0.011707   0.000000  -0.042347   0.005631   0.083051
   36  O  3  S    0.138566   0.000000   0.240169   0.372213  -1.221049
   37  O  3  S   -0.187508   0.000000   0.230047  -1.459564   1.691610
   38  O  3  X   -0.186895   0.000000   0.618823  -0.510746  -0.266321
   39  O  3  Y   -0.572662   0.000000  -0.023191   0.286791   0.038093
   40  O  3  Z    0.000000  -0.622234   0.000000   0.000000   0.000000
   41  O  3  X    0.108359   0.000000  -0.238030  -0.286510   0.671867
   42  O  3  Y    0.983457   0.000000   0.140060  -0.066878   0.046629
   43  O  3  Z    0.000000   1.012332   0.000000   0.000000   0.000000
   44  O  3 XX   -0.013025   0.000000  -0.063134   0.038301  -0.144503
   45  O  3 YY    0.008617   0.000000   0.067636   0.019829   0.110202
   46  O  3 ZZ    0.004408   0.000000  -0.004502  -0.058130   0.034300
   47  O  3 XY   -0.039362   0.000000  -0.070721  -0.089742  -0.081485
   48  O  3 XZ    0.000000  -0.046905   0.000000   0.000000   0.000000
   49  O  3 YZ    0.000000   0.002387   0.000000   0.000000   0.000000

                     36         37         38         39         40
                    1.5075     2.0249     2.0250     2.0636     2.0772
                     A          A          A          A          A   
    1  S  1  S    0.000001   0.000000   0.000000   0.000000  -0.000167
    2  S  1  S   -0.000003   0.000000  -0.000000   0.000000  -0.002495
    3  S  1  S   -0.000034   0.000000   0.000000   0.000000   0.061712
    4  S  1  S   -0.000102   0.000000  -0.000000   0.000000  -0.009759
    5  S  1  X    0.070502   0.000000   0.000761   0.000000   0.000000
    6  S  1  Y   -0.000003   0.000000   0.000000   0.000000  -0.007406
    7  S  1  Z    0.000000  -0.000000   0.000000  -0.032891   0.000000
    8  S  1  X   -0.647438   0.000000   0.006857   0.000000  -0.000000
    9  S  1  Y   -0.000002   0.000000  -0.000000   0.000000   0.043206
   10  S  1  Z    0.000000   0.000000   0.000000   0.142950   0.000000
   11  S  1  X   -1.337161   0.000000  -0.017138   0.000000   0.000001
   12  S  1  Y   -0.000035   0.000000  -0.000000   0.000000  -0.010988
   13  S  1  Z    0.000000   0.000000   0.000000  -0.009957   0.000000
   14  S  1 XX    0.000049   0.000000   0.000000   0.000000  -0.084437
   15  S  1 YY   -0.000023   0.000000   0.000000   0.000000  -0.103412
   16  S  1 ZZ   -0.000025   0.000000  -0.000000   0.000000   0.187850
   17  S  1 XY   -0.103264   0.000000   0.028878   0.000000   0.000000
   18  S  1 XZ    0.000000  -0.026877   0.000000   0.000000   0.000000
   19  S  1 YZ    0.000000  -0.000000   0.000000  -0.113062   0.000000
   20  O  2  S    0.070558   0.000000   0.000629   0.000000  -0.005222
   21  O  2  S   -1.282784   0.000000  -0.007252   0.000000   0.064309
   22  O  2  S    2.321106   0.000000   0.006959   0.000000  -0.043138
   23  O  2  X   -0.117508   0.000000  -0.004150   0.000000  -0.044601
   24  O  2  Y    0.061638   0.000000   0.009371   0.000000  -0.007997
   25  O  2  Z    0.000000  -0.006908   0.000000   0.026447   0.000000
   26  O  2  X   -0.279252   0.000000   0.015588   0.000000   0.043641
   27  O  2  Y   -0.303891   0.000000  -0.014809   0.000000   0.003828
   28  O  2  Z    0.000000   0.012921   0.000000  -0.046035   0.000000
   29  O  2 XX   -0.108446   0.000000  -0.097313   0.000000  -0.019136
   30  O  2 YY    0.033571   0.000000  -0.516677   0.000000   0.613595
   31  O  2 ZZ    0.074875   0.000000   0.613990   0.000000  -0.594458
   32  O  2 XY   -0.113352   0.000000   0.254702   0.000000  -0.124599
   33  O  2 XZ    0.000000  -0.271277   0.000000   0.084924   0.000000
   34  O  2 YZ    0.000000   0.653304   0.000000   0.705777   0.000000
   35  O  3  S   -0.070541   0.000000  -0.000629   0.000000  -0.005222
   36  O  3  S    1.282545   0.000000   0.007252   0.000000   0.064308
   37  O  3  S   -2.320802   0.000000  -0.006959   0.000000  -0.043135
   38  O  3  X   -0.117575   0.000000  -0.004150   0.000000   0.044601
   39  O  3  Y   -0.061623   0.000000  -0.009371   0.000000  -0.007997
   40  O  3  Z    0.000000   0.006908   0.000000   0.026447   0.000000
   41  O  3  X   -0.279124   0.000000   0.015589   0.000000  -0.043642
   42  O  3  Y    0.303898   0.000000   0.014809   0.000000   0.003828
   43  O  3  Z    0.000000  -0.012921   0.000000  -0.046035   0.000000
   44  O  3 XX    0.108416   0.000000   0.097313   0.000000  -0.019137
   45  O  3 YY   -0.033546   0.000000   0.516676   0.000000   0.613596
   46  O  3 ZZ   -0.074870   0.000000  -0.613990   0.000000  -0.594458
   47  O  3 XY   -0.113375   0.000000   0.254702   0.000000   0.124600
   48  O  3 XZ    0.000000  -0.271277   0.000000  -0.084924   0.000000
   49  O  3 YZ    0.000000  -0.653303   0.000000   0.705778   0.000000

                     41         42         43         44         45
                    2.1846     2.3399     2.4368     2.5145     2.8827
                     A          A          A          A          A   
    1  S  1  S    0.000000   0.002725  -0.000000   0.000000   0.046417
    2  S  1  S    0.000000  -0.039276   0.000001   0.000000  -0.433958
    3  S  1  S    0.000000   0.338766  -0.000004   0.000000   1.797168
    4  S  1  S    0.000000   0.224717   0.000000   0.000000   1.020710
    5  S  1  X    0.000000   0.000000   0.036074   0.000000  -0.000005
    6  S  1  Y    0.000000  -0.090325   0.000000   0.000000  -0.056351
    7  S  1  Z   -0.086180   0.000000   0.000000   0.000000   0.000000
    8  S  1  X    0.000000  -0.000004  -0.341551   0.000000   0.000038
    9  S  1  Y    0.000000   0.458736  -0.000001   0.000000   0.478835
   10  S  1  Z    0.377091   0.000000   0.000000  -0.000000   0.000000
   11  S  1  X    0.000000   0.000004  -0.076440   0.000000   0.000005
   12  S  1  Y    0.000000   0.119099   0.000000   0.000000   0.038681
   13  S  1  Z    0.044678   0.000000   0.000000  -0.000000   0.000000
   14  S  1 XX    0.000000  -0.348921  -0.000001   0.000000   1.062410
   15  S  1 YY    0.000000   0.338418   0.000000   0.000000  -0.510379
   16  S  1 ZZ    0.000000   0.010503   0.000000   0.000000  -0.552032
   17  S  1 XY    0.000000   0.000000   0.624380   0.000000   0.000013
   18  S  1 XZ    0.000000   0.000000   0.000000   0.719760   0.000000
   19  S  1 YZ    0.224342   0.000000   0.000000  -0.000000   0.000000
   20  O  2  S    0.000000  -0.018592   0.012585   0.000000   0.018783
   21  O  2  S    0.000000   0.348165  -0.260450   0.000000   0.395668
   22  O  2  S    0.000000  -0.455269   0.360433   0.000000  -1.591698
   23  O  2  X    0.000000  -0.151979   0.095807   0.000000   0.232056
   24  O  2  Y    0.000000   0.019306   0.038562   0.000000   0.086704
   25  O  2  Z    0.070681   0.000000   0.000000  -0.004315   0.000000
   26  O  2  X    0.000000   0.320995  -0.139057   0.000000   0.880869
   27  O  2  Y    0.000000  -0.182586  -0.269936   0.000000   0.278062
   28  O  2  Z   -0.193995   0.000000   0.000000  -0.237561   0.000000
   29  O  2 XX    0.000000  -0.449219  -0.209038   0.000000  -0.738150
   30  O  2 YY    0.000000   0.296728   0.353132   0.000000   0.269340
   31  O  2 ZZ    0.000000   0.152491  -0.144095   0.000000   0.468809
   32  O  2 XY    0.000000   0.579785   0.682576   0.000000  -0.556816
   33  O  2 XZ    0.734673   0.000000   0.000000   0.742249   0.000000
   34  O  2 YZ   -0.076262   0.000000   0.000000   0.295894   0.000000
   35  O  3  S    0.000000  -0.018592  -0.012585   0.000000   0.018782
   36  O  3  S    0.000000   0.348163   0.260448   0.000000   0.395654
   37  O  3  S    0.000000  -0.455266  -0.360429   0.000000  -1.591641
   38  O  3  X    0.000000   0.151980   0.095807   0.000000  -0.232048
   39  O  3  Y    0.000000   0.019306  -0.038562   0.000000   0.086703
   40  O  3  Z    0.070681   0.000000   0.000000   0.004315   0.000000
   41  O  3  X    0.000000  -0.320999  -0.139054   0.000000  -0.880837
   42  O  3  Y    0.000000  -0.182586   0.269935   0.000000   0.278055
   43  O  3  Z   -0.193995   0.000000   0.000000   0.237561   0.000000
   44  O  3 XX    0.000000  -0.449224   0.209042   0.000000  -0.738115
   45  O  3 YY    0.000000   0.296730  -0.353134   0.000000   0.269321
   46  O  3 ZZ    0.000000   0.152494   0.144092   0.000000   0.468794
   47  O  3 XY    0.000000  -0.579782   0.682575   0.000000   0.556809
   48  O  3 XZ   -0.734673   0.000000   0.000000   0.742249   0.000000
   49  O  3 YZ   -0.076262   0.000000   0.000000  -0.295894   0.000000

                     46
                    2.9272
                     A   
    1  S  1  S   -0.000001
    2  S  1  S    0.000008
    3  S  1  S   -0.000033
    4  S  1  S   -0.000021
    5  S  1  X   -0.261720
    6  S  1  Y    0.000001
    7  S  1  Z    0.000000
    8  S  1  X    2.000543
    9  S  1  Y   -0.000008
   10  S  1  Z    0.000000
   11  S  1  X    0.174687
   12  S  1  Y   -0.000000
   13  S  1  Z    0.000000
   14  S  1 XX   -0.000025
   15  S  1 YY    0.000012
   16  S  1 ZZ    0.000012
   17  S  1 XY    0.544212
   18  S  1 XZ    0.000000
   19  S  1 YZ    0.000000
   20  O  2  S    0.012985
   21  O  2  S    0.455177
   22  O  2  S   -1.557759
   23  O  2  X    0.148547
   24  O  2  Y    0.009433
   25  O  2  Z    0.000000
   26  O  2  X    0.910058
   27  O  2  Y    0.215924
   28  O  2  Z    0.000000
   29  O  2 XX   -0.857717
   30  O  2 YY    0.448844
   31  O  2 ZZ    0.408873
   32  O  2 XY   -0.239007
   33  O  2 XZ    0.000000
   34  O  2 YZ    0.000000
   35  O  3  S   -0.012986
   36  O  3  S   -0.455186
   37  O  3  S    1.557816
   38  O  3  X    0.148559
   39  O  3  Y   -0.009437
   40  O  3  Z    0.000000
   41  O  3  X    0.910089
   42  O  3  Y   -0.215936
   43  O  3  Z    0.000000
   44  O  3 XX    0.857744
   45  O  3 YY   -0.448853
   46  O  3 ZZ   -0.408891
   47  O  3 XY   -0.239031
   48  O  3 XZ    0.000000
   49  O  3 YZ    0.000000
 ...... END OF RHF CALCULATION ......
 STEP CPU TIME =     2.30 TOTAL CPU TIME =          2.4 (      0.0 MIN)
 TOTAL WALL CLOCK TIME=          2.5 SECONDS, CPU UTILIZATION IS    98.79%

     ---------------------------------------------------------------------
     PROPERTIES FOR THE PBE      DFT FUNCTIONAL (RHF  TYPE) DENSITY MATRIX
     ---------------------------------------------------------------------

          -----------------
          ENERGY COMPONENTS
          -----------------

         WAVEFUNCTION NORMALIZATION =       1.0000000000

                ONE ELECTRON ENERGY =    -980.1120103716
                TWO ELECTRON ENERGY =     318.6277585177
           NUCLEAR REPULSION ENERGY =     113.3336318880
                                      ------------------
                       TOTAL ENERGY =    -548.1506199659

 ELECTRON-ELECTRON POTENTIAL ENERGY =     318.6277585177
  NUCLEUS-ELECTRON POTENTIAL ENERGY =   -1528.3879290841
   NUCLEUS-NUCLEUS POTENTIAL ENERGY =     113.3336318880
                                      ------------------
             TOTAL POTENTIAL ENERGY =   -1096.4265386785
               TOTAL KINETIC ENERGY =     548.2759187126
                 VIRIAL RATIO (V/T) =       1.9997714677

          ---------------------------------------
          MULLIKEN AND LOWDIN POPULATION ANALYSES
          ---------------------------------------

     ATOMIC MULLIKEN POPULATION IN EACH MOLECULAR ORBITAL

                      1          2          3          4          5

                  2.000000   2.000000   2.000000   2.000000   2.000000

    1             1.999834   0.000819   0.001253   2.001177   1.999780
    2             0.000083   1.073683   0.925281  -0.000589   0.000110
    3             0.000083   0.925498   1.073466  -0.000589   0.000110

                      6          7          8          9         10

                  2.000000   2.000000   2.000000   2.000000   2.000000

    1             2.000022   1.999987   0.763362   0.560527   0.577292
    2            -0.000011   0.000006   0.618316   0.719740   0.711352
    3            -0.000011   0.000006   0.618322   0.719733   0.711356

                     11         12         13         14         15

                  2.000000   2.000000   2.000000   2.000000   2.000000

    1             0.931799   0.903053   0.318794   0.164709   0.168340
    2             0.534101   0.548474   0.840605   0.917645   0.915830
    3             0.534100   0.548473   0.840602   0.917646   0.915830

                     16

                  2.000000

    1             1.261510
    2             0.369245
    3             0.369245

               ----- POPULATIONS IN EACH AO -----
                             MULLIKEN      LOWDIN
              1  S  1  S      1.99978     1.99922
              2  S  1  S      1.99188     1.88016
              3  S  1  S      1.22834     0.59579
              4  S  1  S      0.82350     0.58357
              5  S  1  X      1.99490     1.96007
              6  S  1  Y      1.99488     1.96535
              7  S  1  Z      1.99380     1.95902
              8  S  1  X      0.86040     0.65723
              9  S  1  Y      0.97724     0.88293
             10  S  1  Z      0.80674     0.70361
             11  S  1  X      0.01378     0.19235
             12  S  1  Y      0.12532     0.25401
             13  S  1  Z      0.12143     0.23527
             14  S  1 XX      0.08854     0.42942
             15  S  1 YY      0.27755     0.33632
             16  S  1 ZZ      0.17962     0.32877
             17  S  1 XY      0.16471     0.21394
             18  S  1 XZ      0.00986     0.20337
             19  S  1 YZ      0.00000     0.00946
             20  O  2  S      1.99549     1.97254
             21  O  2  S      0.94934     0.68763
             22  O  2  S      0.82613     0.49335
             23  O  2  X      0.97530     0.94129
             24  O  2  Y      1.04722     1.00883
             25  O  2  Z      0.88939     0.84313
             26  O  2  X      0.32481     0.51278
             27  O  2  Y      0.58471     0.62970
             28  O  2  Z      0.55304     0.58895
             29  O  2 XX      0.00254     0.21505
             30  O  2 YY      0.00826     0.19137
             31  O  2 ZZ      0.00834     0.19380
             32  O  2 XY      0.00887     0.01410
             33  O  2 XZ      0.00044     0.01194
             34  O  2 YZ      0.00000     0.00062
             35  O  3  S      1.99549     1.97254
             36  O  3  S      0.94934     0.68763
             37  O  3  S      0.82613     0.49335
             38  O  3  X      0.97530     0.94129
             39  O  3  Y      1.04722     1.00883
             40  O  3  Z      0.88939     0.84313
             41  O  3  X      0.32481     0.51278
             42  O  3  Y      0.58471     0.62970
             43  O  3  Z      0.55304     0.58895
             44  O  3 XX      0.00254     0.21505
             45  O  3 YY      0.00826     0.19137
             46  O  3 ZZ      0.00834     0.19380
             47  O  3 XY      0.00887     0.01410
             48  O  3 XZ      0.00044     0.01194
             49  O  3 YZ      0.00000     0.00062

          ----- MULLIKEN ATOMIC OVERLAP POPULATIONS -----
          (OFF-DIAGONAL ELEMENTS NEED TO BE MULTIPLIED BY 2)

             1           2           3

    1   15.1335734
    2    0.2593438   7.8962009
    3    0.2593418   0.0183260   7.8962025

          TOTAL MULLIKEN AND LOWDIN ATOMIC POPULATIONS
       ATOM         MULL.POP.    CHARGE          LOW.POP.     CHARGE
    1 S            15.652259    0.347741        15.389833    0.610167
    2 O             8.173871   -0.173871         8.305083   -0.305083
    3 O             8.173870   -0.173870         8.305083   -0.305083

          MULLIKEN SPHERICAL HARMONIC POPULATIONS
       ATOM           S       P       D      F      G      H      I    TOTAL
    1 S             6.04    8.89    0.72   0.00   0.00   0.00   0.00   15.65
    2 O             3.77    4.37    0.03   0.00   0.00   0.00   0.00    8.17
    3 O             3.77    4.37    0.03   0.00   0.00   0.00   0.00    8.17

          -------------------------------
          BOND ORDER AND VALENCE ANALYSIS     BOND ORDER THRESHOLD=0.050
          -------------------------------

                   BOND                       BOND                       BOND
  ATOM PAIR DIST  ORDER      ATOM PAIR DIST  ORDER      ATOM PAIR DIST  ORDER
    1   2  1.350  2.022        1   3  1.350  2.022        2   3  2.608  0.197

                       TOTAL       BONDED        FREE
      ATOM            VALENCE     VALENCE     VALENCE
    1 S                 4.044       4.044       0.000
    2 O                 2.219       2.219       0.000
    3 O                 2.219       2.219      -0.000

          ---------------------
          ELECTROSTATIC MOMENTS
          ---------------------

 POINT   1           X           Y           Z (BOHR)    CHARGE
                -0.000000   -0.000000    0.000000        0.00 (A.U.)
         DX          DY          DZ         /D/  (DEBYE)
     0.000002    0.097722    0.000000    0.097722
 ...... END OF PROPERTY EVALUATION ......
 STEP CPU TIME =     0.00 TOTAL CPU TIME =          2.4 (      0.0 MIN)
 TOTAL WALL CLOCK TIME=          2.5 SECONDS, CPU UTILIZATION IS    98.39%
                580000  WORDS OF DYNAMIC MEMORY USED
 EXECUTION OF GAMESS TERMINATED NORMALLY Sun Sep 29 10:45:10 2019
 DDI: 263640 bytes (0.3 MB / 0 MWords) used by master data server.

 ----------------------------------------
 CPU timing information for all processes
 ========================================
 0: 2.372 + 0.86 = 2.459
 ----------------------------------------
 ddikick.x: exited gracefully.
----- accounting info -----
Files used on the master node crcfe02.crc.nd.edu were:
-rw-r--r-- 1 cdrisko campus     208 Sep 29 10:45 /afs/crc.nd.edu/user/c/cdrisko/SO2.F05
-rw-r--r-- 1 cdrisko campus   37566 Sep 29 10:45 /afs/crc.nd.edu/user/c/cdrisko/SO2.F07
-rw-r--r-- 1 cdrisko campus 4140368 Sep 29 10:45 /afs/crc.nd.edu/user/c/cdrisko/SO2.F08
-rw-r--r-- 1 cdrisko campus 1766880 Sep 29 10:45 /afs/crc.nd.edu/user/c/cdrisko/SO2.F10
Sun Sep 29 10:45:13 EDT 2019
0.433u 0.258s 0:06.15 11.0%	0+0k 0+24io 0pf+0w
