----- GAMESS execution script 'rungms' -----
This job is running on host crcfe01.crc.nd.edu
under operating system Linux at Thu Oct 17 19:35:08 EDT 2019
Available scratch disk space (Kbyte units) at beginning of the job is
Filesystem      1K-blocks  Used  Available Use% Mounted on
AFS            2147483647     0 2147483647   0% /afs
GAMESS temporary binary files will be written to /afs/crc.nd.edu/user/c/cdrisko
GAMESS supplementary output files will be written to /afs/crc.nd.edu/user/c/cdrisko/scr
Copying input file vinylAlcohol_MP2.inp to your run's scratch directory...

 Distributed Data Interface kickoff program.
 Initiating 1 compute processes on 1 nodes to run the following command:
 /afs/crc.nd.edu/x86_64_linux/g/gamess/nov-2017/gamess/gamess.00.x vinylAlcohol_MP2 

          ******************************************************
          *         GAMESS VERSION = 11 NOV 2017 (R3)         *
          *             FROM IOWA STATE UNIVERSITY             *
          * M.W.SCHMIDT, K.K.BALDRIDGE, J.A.BOATZ, S.T.ELBERT, *
          *   M.S.GORDON, J.H.JENSEN, S.KOSEKI, N.MATSUNAGA,   *
          *          K.A.NGUYEN, S.J.SU, T.L.WINDUS,           *
          *       TOGETHER WITH M.DUPUIS, J.A.MONTGOMERY       *
          *         J.COMPUT.CHEM.  14, 1347-1363(1993)        *
          **************** 64 BIT INTEL VERSION ****************

  SINCE 1993, STUDENTS AND POSTDOCS WORKING AT IOWA STATE UNIVERSITY
  AND ALSO IN THEIR VARIOUS JOBS AFTER LEAVING ISU HAVE MADE IMPORTANT
  CONTRIBUTIONS TO THE CODE:
     IVANA ADAMOVIC, CHRISTINE AIKENS, YURI ALEXEEV, POOJA ARORA,
     ANDREY ASADCHEV, ROB BELL, PRADIPTA BANDYOPADHYAY, JONATHAN BENTZ,
     BRETT BODE, KURT BRORSEN, CALEB CARLIN, GALINA CHABAN, WEI CHEN,
     CHEOL HO CHOI, PAUL DAY, ALBERT DEFUSCO, NUWAN DESILVA, TIM DUDLEY,
     DMITRI FEDOROV, ALEX FINDLATER, GRAHAM FLETCHER, MARK FREITAG,
     KURT GLAESEMANN, ANASTASIA GUININA,
     DAN KEMP, GRANT MERRILL, NORIYUKI MINEZAWA, JONATHAN MULLIN,
     TAKESHI NAGATA, SEAN NEDD, HEATHER NETZLOFF, BOSILJKA NJEGIC, RYAN OLSON,
     MIKE PAK, BUU PHAM,
     SPENCER PRUITT, LUKE ROSKOP, JIM SHOEMAKER, LYUDMILA SLIPCHENKO,
     TONY SMITH, SAROM SOK LEANG, JIE SONG, TETSUYA TAKETSUGU, SIMON WEBB,
     PENG XU, SOOHAENG YOO, FEDERICO ZAHARIEV

  ADDITIONAL CODE HAS BEEN PROVIDED BY COLLABORATORS IN OTHER GROUPS:
     IOWA STATE UNIVERSITY:
          JOE IVANIC, AARON WEST, LAIMUTIS BYTAUTAS, KLAUS RUEDENBERG
     UNIVERSITY OF TOKYO: KIMIHIKO HIRAO, TAKAHITO NAKAJIMA,
          TAKAO TSUNEDA, MUNEAKI KAMIYA, SUSUMU YANAGISAWA,
          KIYOSHI YAGI, MAHITO CHIBA, SEIKEN TOKURA, NAOAKI KAWAKAMI
     UNIVERSITY OF AARHUS: FRANK JENSEN
     UNIVERSITY OF IOWA: VISVALDAS KAIRYS, HUI LI
     NATIONAL INST. OF STANDARDS AND TECHNOLOGY: WALT STEVENS, DAVID GARMER
     UNIVERSITY OF PISA: BENEDETTA MENNUCCI, JACOPO TOMASI
     UNIVERSITY OF MEMPHIS: HENRY KURTZ, PRAKASHAN KORAMBATH
     UNIVERSITY OF ALBERTA: TOBY ZENG, MARIUSZ KLOBUKOWSKI
     UNIVERSITY OF NEW ENGLAND: MARK SPACKMAN
     MIE UNIVERSITY: HIROAKI UMEDA
     NAT. INST. OF ADVANCED INDUSTRIAL SCIENCE AND TECHNOLOGY: KAZUO KITAURA
     MICHIGAN STATE UNIVERSITY:
          KAROL KOWALSKI, MARTA WLOCH, JEFFREY GOUR, JESSE LUTZ,
          WEI LI, PIOTR PIECUCH
     UNIVERSITY OF SILESIA: MONIKA MUSIAL, STANISLAW KUCHARSKI
     FACULTES UNIVERSITAIRES NOTRE-DAME DE LA PAIX:
          OLIVIER QUINET, BENOIT CHAMPAGNE
     UNIVERSITY OF CALIFORNIA - SANTA BARBARA: BERNARD KIRTMAN
     INSTITUTE FOR MOLECULAR SCIENCE:
          KAZUYA ISHIMURA, MICHIO KATOUDA, AND SHIGERU NAGASE
     UNIVERSITY OF NOTRE DAME: ANNA POMOGAEVA, DAN CHIPMAN
     KYUSHU UNIVERSITY:
          HARUYUKI NAKANO,
          FENG LONG GU, JACEK KORCHOWIEC, MARCIN MAKOWSKI, AND YURIKO AOKI,
          HIROTOSHI MORI AND EISAKU MIYOSHI
     PENNSYLVANIA STATE UNIVERSITY:
          TZVETELIN IORDANOV, CHET SWALINA, JONATHAN SKONE,
          SHARON HAMMES-SCHIFFER
     WASEDA UNIVERSITY:
          MASATO KOBAYASHI, TOMOKO AKAMA, TSUGUKI TOUMA,
          TAKESHI YOSHIKAWA, YASUHIRO IKABATA, JUNJI SEINO,
          YUYA NAKAJIMA, HIROMI NAKAI
     NANJING UNIVERSITY: SHUHUA LI
     UNIVERSITY OF NEBRASKA:
          PEIFENG SU, DEJUN SI, NANDUN THELLAMUREGE, YALI WANG, HUI LI
     UNIVERSITY OF ZURICH: ROBERTO PEVERATI, KIM BALDRIDGE
     N. COPERNICUS UNIVERSITY AND JACKSON STATE UNIVERSITY:
          MARIA BARYSZ
     UNIVERSITY OF COPENHAGEN: Jimmy Kromann, CASPER STEINMANN
     TOKYO INSTITUTE OF TECHNOLOGY: HIROYA NAKATA
     NAGOYA UNIVERSITY: YOSHIO NISHIMOTO, STEPHAN IRLE
     MOSCOW STATE UNIVERSITY: VLADIMIR MIRONOV

 EXECUTION OF GAMESS BEGUN Thu Oct 17 19:35:08 2019

            ECHO OF THE FIRST FEW INPUT CARDS -
 INPUT CARD> $CONTRL SCFTYP=RHF MPLEVL=2 RUNTYP=ENERGY                                      
 INPUT CARD>       ICHARG=0 MULT=1 COORD=CART $END                                          
 INPUT CARD> $BASIS GBASIS=N31 NGAUSS=6 NDFUNC=1 $END                                       
 INPUT CARD> $DATA                                                                          
 INPUT CARD>C2H4O                                                                           
 INPUT CARD>C1 1                                                                            
 INPUT CARD>C 6 0.00000000 0.00000000 0.00000000                                            
 INPUT CARD>C 6 -1.17325200 0.63596300 0.00000000                                           
 INPUT CARD>O 8 -2.41559900 0.07439100 0.00000000                                           
 INPUT CARD>H 1 -2.31936600 -0.89265300 0.00000000                                          
 INPUT CARD>H 1 -1.25362800 1.71964600 0.00000000                                           
 INPUT CARD>H 1 0.92546100 0.56402800 0.00000000                                            
 INPUT CARD>H 1 0.07399800 -1.08565700 0.00000000                                           
 INPUT CARD> $END                                                                           
    1000000 WORDS OF MEMORY AVAILABLE


                    * * * WARNING * * *
 OLD KEYWORD COORD=CART SELECTED, AUTOMATICALLY CHANGED TO COORD=PRINAXIS.
 YOUR MOLECULE'S COORDINATES WILL BE CHANGED TO PRINCIPAL AXES BY
   A) TRANSLATION TO THE CENTER OF MASS, THEN
   B) ROTATION TO HAVE A DIAGONAL MOMENT OF INERTIA TENSOR.

 HOWEVER, NOTHING ELSE IN YOUR INPUT WILL BE ROTATED IN THE SAME WAY,
 SO IF YOU HAVE A $VEC, $VIB, $GRAD, $HESS, EFP PARTICLE COORDINATES,
 OR ANYTHING ELSE THAT DEPENDS ON THE INITIAL ORIENTATION, THAT DATA
 WILL NOT BE USED CORRECTLY IN THIS RUN.

 THE PURPOSE OF COORD=PRINAXIS IS TO BE USED ONCE, ONLY AT THE VERY
 BEGINNING OF A SERIES OF COMPUTATIONS, PERHAPS TO FIND THE SYMMETRY
 UNIQUE ATOMS FROM AN ARBITRARY INITIAL ORIENTATION.

 AFTER THE FIRST RUN, YOU SHOULD USE ONLY COORD=UNIQUE, TO ENSURE THAT
 THE COORDINATES WHICH YOU READ IN ARE THE COORDINATES THAT ARE USED.


     BASIS OPTIONS
     -------------
     GBASIS=N31          IGAUSS=       6      POLAR=POPN31  
     NDFUNC=       1     NFFUNC=       0     DIFFSP=       F
     NPFUNC=       0      DIFFS=       F     BASNAM=        


     RUN TITLE
     ---------
 C2H4O                                                                           

 THE POINT GROUP OF THE MOLECULE IS C1      
 THE ORDER OF THE PRINCIPAL AXIS IS     1

 THE MOMENTS OF INERTIA ARE (AMU-ANGSTROM**2)
 IXX=     8.341   IYY=    48.239   IZZ=    56.580

 ATOM      ATOMIC                      COORDINATES (BOHR)
           CHARGE         X                   Y                   Z
 C           6.0    -2.3740567296        0.3918493698        0.0000000000
 C           6.0    -0.1569317173       -0.8099460367        0.0000000000
 O           8.0     2.1907635021        0.2512715912        0.0000000000
 H           1.0     2.0089091699        2.0787197363        0.0000000000
 H           1.0    -0.0050427301       -2.8578099367        0.0000000000
 H           1.0    -4.1229242388       -0.6740093166        0.0000000000
 H           1.0    -2.5138930451        2.4434435911        0.0000000000

          INTERNUCLEAR DISTANCES (ANGS.)
          ------------------------------

                1 C          2 C          3 O          4 H          5 H     

   1 C       0.0000000    1.3345296 *  2.4167442 *  2.4852139 *  2.1280896 *
   2 C       1.3345296 *  0.0000000    1.3633742 *  1.9105612 *  1.0866596 *
   3 O       2.4167442 *  1.3633742 *  0.0000000    0.9718204 *  2.0142097 *
   4 H       2.4852139 *  1.9105612 *  0.9718204 *  0.0000000    2.8213301 *
   5 H       2.1280896 *  1.0866596 *  2.0142097 *  2.8213301 *  0.0000000  
   6 H       1.0837923 *  2.0999455 *  3.3767479    3.5567994    2.4665526 *
   7 H       1.0881759 *  2.1259370 *  2.7465987 *  2.4011334 *  3.1035972  

                6 H          7 H     

   1 C       1.0837923 *  1.0881759 *
   2 C       2.0999455 *  2.1259370 *
   3 O       3.3767479    2.7465987 *
   4 H       3.5567994    2.4011334 *
   5 H       2.4665526 *  3.1035972  
   6 H       0.0000000    1.8564616 *
   7 H       1.8564616 *  0.0000000  

  * ... LESS THAN  3.000


     ATOMIC BASIS SET
     ----------------
 THE CONTRACTED PRIMITIVE FUNCTIONS HAVE BEEN UNNORMALIZED
 THE CONTRACTED BASIS FUNCTIONS ARE NOW NORMALIZED TO UNITY

  SHELL TYPE  PRIMITIVE        EXPONENT          CONTRACTION COEFFICIENT(S)

 C         

      1   S       1          3047.5248800    0.001834737132
      1   S       2           457.3695180    0.014037322813
      1   S       3           103.9486850    0.068842622264
      1   S       4            29.2101553    0.232184443216
      1   S       5             9.2866630    0.467941348435
      1   S       6             3.1639270    0.362311985337

      2   L       7             7.8682723   -0.119332419775    0.068999066591
      2   L       8             1.8812885   -0.160854151696    0.316423960957
      2   L       9             0.5442493    1.143456437840    0.744308290898

      3   L      10             0.1687145    1.000000000000    1.000000000000

      4   D      11             0.8000000    1.000000000000

 C         

      5   S      12          3047.5248800    0.001834737132
      5   S      13           457.3695180    0.014037322813
      5   S      14           103.9486850    0.068842622264
      5   S      15            29.2101553    0.232184443216
      5   S      16             9.2866630    0.467941348435
      5   S      17             3.1639270    0.362311985337

      6   L      18             7.8682723   -0.119332419775    0.068999066591
      6   L      19             1.8812885   -0.160854151696    0.316423960957
      6   L      20             0.5442493    1.143456437840    0.744308290898

      7   L      21             0.1687145    1.000000000000    1.000000000000

      8   D      22             0.8000000    1.000000000000

 O         

      9   S      23          5484.6716600    0.001831074430
      9   S      24           825.2349460    0.013950172200
      9   S      25           188.0469580    0.068445078098
      9   S      26            52.9645000    0.232714335992
      9   S      27            16.8975704    0.470192897984
      9   S      28             5.7996353    0.358520852987

     10   L      29            15.5396162   -0.110777549525    0.070874268231
     10   L      30             3.5999336   -0.148026262701    0.339752839147
     10   L      31             1.0137618    1.130767015354    0.727158577316

     11   L      32             0.2700058    1.000000000000    1.000000000000

     12   D      33             0.8000000    1.000000000000

 H         

     13   S      34            18.7311370    0.033494604338
     13   S      35             2.8253944    0.234726953484
     13   S      36             0.6401217    0.813757326146

     14   S      37             0.1612778    1.000000000000

 H         

     15   S      38            18.7311370    0.033494604338
     15   S      39             2.8253944    0.234726953484
     15   S      40             0.6401217    0.813757326146

     16   S      41             0.1612778    1.000000000000

 H         

     17   S      42            18.7311370    0.033494604338
     17   S      43             2.8253944    0.234726953484
     17   S      44             0.6401217    0.813757326146

     18   S      45             0.1612778    1.000000000000

 H         

     19   S      46            18.7311370    0.033494604338
     19   S      47             2.8253944    0.234726953484
     19   S      48             0.6401217    0.813757326146

     20   S      49             0.1612778    1.000000000000

 TOTAL NUMBER OF BASIS SET SHELLS             =   20
 NUMBER OF CARTESIAN GAUSSIAN BASIS FUNCTIONS =   53
 NUMBER OF ELECTRONS                          =   24
 CHARGE OF MOLECULE                           =    0
 SPIN MULTIPLICITY                            =    1
 NUMBER OF OCCUPIED ORBITALS (ALPHA)          =   12
 NUMBER OF OCCUPIED ORBITALS (BETA )          =   12
 TOTAL NUMBER OF ATOMS                        =    7
 THE NUCLEAR REPULSION ENERGY IS       70.1017152750

     $CONTRL OPTIONS
     ---------------
 SCFTYP=RHF          RUNTYP=ENERGY       EXETYP=RUN     
 MPLEVL=       2     CITYP =NONE         CCTYP =NONE         VBTYP =NONE    
 DFTTYP=NONE         TDDFT =NONE    
 MULT  =       1     ICHARG=       0     NZVAR =       0     COORD =PRINAXIS
 PP    =NONE         RELWFN=NONE         LOCAL =NONE         NUMGRD=       F
 ISPHER=      -1     NOSYM =       0     MAXIT =      30     UNITS =ANGS    
 PLTORB=       F     MOLPLT=       F     AIMPAC=       F     FRIEND=        
 NPRINT=       7     IREST =       0     GEOM  =INPUT   
 NORMF =       0     NORMP =       0     ITOL  =      20     ICUT  =       9
 INTTYP=BEST         GRDTYP=BEST         QMTTOL= 1.0E-06

     $SYSTEM OPTIONS
     ---------------
  REPLICATED MEMORY=     1000000 WORDS (ON EVERY NODE).
 DISTRIBUTED MEMDDI=           0 MILLION WORDS IN AGGREGATE,
 MEMDDI DISTRIBUTED OVER   1 PROCESSORS IS           0 WORDS/PROCESSOR.
 TOTAL MEMORY REQUESTED ON EACH PROCESSOR=     1000000 WORDS.
 TIMLIM=      525600.00 MINUTES, OR     365.0 DAYS.
 PARALL= F  BALTYP=  DLB     KDIAG=    0  COREFL= F
 MXSEQ2=     300 MXSEQ3=     150  mem10=         0

          ----------------
          PROPERTIES INPUT
          ----------------

     MOMENTS            FIELD           POTENTIAL          DENSITY
 IEMOM =       1   IEFLD =       0   IEPOT =       0   IEDEN =       0
 WHERE =COMASS     WHERE =NUCLEI     WHERE =NUCLEI     WHERE =NUCLEI  
 OUTPUT=BOTH       OUTPUT=BOTH       OUTPUT=BOTH       OUTPUT=BOTH    
 IEMINT=       0   IEFINT=       0                     IEDINT=       0
                                                       MORB  =       0
          EXTRAPOLATION IN EFFECT
          SOSCF IN EFFECT
 ORBITAL PRINTING OPTION: NPREO=     1    53     2     1

     -------------------------------
     INTEGRAL TRANSFORMATION OPTIONS
     -------------------------------
     NWORD  =            0
     CUTOFF = 1.0E-09     MPTRAN =       0
     DIRTRF =       F     AOINTS =DUP     

          ----------------------
          INTEGRAL INPUT OPTIONS
          ----------------------
 NOPK  =       1 NORDER=       0 SCHWRZ=       T

          -----------------------
          MP2 CONTROL INFORMATION
          -----------------------
          NACORE =        3  NBCORE =        3
          LMOMP2 =        F  AOINTS = DUP     
          METHOD =        2  NWORD  =               0
          MP2PRP =        F  OSPT   = NONE    
          CUTOFF = 1.00E-09  CPHFBS = BASISAO 
          CODE   = IMS     

          NUMBER OF CORE -A-  ORBITALS =     3
          NUMBER OF CORE -B-  ORBITALS =     3
          NUMBER OF OCC. -A-  ORBITALS =    12
          NUMBER OF OCC. -B-  ORBITALS =    12
          NUMBER OF MOLECULAR ORBITALS =    53
          NUMBER OF   BASIS  FUNCTIONS =    53


     ------------------------------------------
     THE POINT GROUP IS C1 , NAXIS= 1, ORDER= 1
     ------------------------------------------

     DIMENSIONS OF THE SYMMETRY SUBSPACES ARE
 A   =   53

 ..... DONE SETTING UP THE RUN .....
 STEP CPU TIME =     0.00 TOTAL CPU TIME =          0.0 (      0.0 MIN)
 TOTAL WALL CLOCK TIME=          0.0 SECONDS, CPU UTILIZATION IS     0.00%

          ********************
          1 ELECTRON INTEGRALS
          ********************
 ...... END OF ONE-ELECTRON INTEGRALS ......
 STEP CPU TIME =     0.01 TOTAL CPU TIME =          0.0 (      0.0 MIN)
 TOTAL WALL CLOCK TIME=          0.0 SECONDS, CPU UTILIZATION IS    25.00%

          -------------
          GUESS OPTIONS
          -------------
          GUESS =HUCKEL            NORB  =       0          NORDER=       0
          MIX   =       F          PRTMO =       F          PUNMO =       F
          TOLZ  = 1.0E-08          TOLE  = 1.0E-05
          SYMDEN=       F          PURIFY=       F

 INITIAL GUESS ORBITALS GENERATED BY HUCKEL   ROUTINE.
 HUCKEL GUESS REQUIRES     27154 WORDS.

 SYMMETRIES FOR INITIAL GUESS ORBITALS FOLLOW.   BOTH SET(S).
    12 ORBITALS ARE OCCUPIED (    3 CORE ORBITALS).
     4=A        5=A        6=A        7=A        8=A        9=A       10=A   
    11=A       12=A       13=A       14=A       15=A       16=A       17=A   
    18=A       19=A       20=A       21=A       22=A   
 ...... END OF INITIAL ORBITAL SELECTION ......
 STEP CPU TIME =     0.00 TOTAL CPU TIME =          0.0 (      0.0 MIN)
 TOTAL WALL CLOCK TIME=          0.0 SECONDS, CPU UTILIZATION IS    25.00%

                    ----------------------
                    AO INTEGRAL TECHNOLOGY
                    ----------------------
     S,P,L SHELL ROTATED AXIS INTEGRALS, REPROGRAMMED BY
        KAZUYA ISHIMURA (IMS) AND JOSE SIERRA (SYNSTAR).
     S,P,D,L SHELL ROTATED AXIS INTEGRALS PROGRAMMED BY
        KAZUYA ISHIMURA (INSTITUTE FOR MOLECULAR SCIENCE).
     S,P,D,F,G SHELL TO TOTAL QUARTET ANGULAR MOMENTUM SUM 5,
        ERIC PROGRAM BY GRAHAM FLETCHER (ELORET AND NASA ADVANCED
        SUPERCOMPUTING DIVISION, AMES RESEARCH CENTER).
     S,P,D,F,G,L SHELL GENERAL RYS QUADRATURE PROGRAMMED BY
        MICHEL DUPUIS (PACIFIC NORTHWEST NATIONAL LABORATORY).

          --------------------
          2 ELECTRON INTEGRALS
          --------------------

 THE -PK- OPTION IS OFF, THE INTEGRALS ARE NOT IN SUPERMATRIX FORM.
 STORING   15000 INTEGRALS/RECORD ON DISK, USING 12 BYTES/INTEGRAL.
 TWO ELECTRON INTEGRAL EVALUATION REQUIRES   90606 WORDS OF MEMORY.
 SCHWARZ INEQUALITY OVERHEAD:      1430 INTEGRALS, T=        0.00
 II,JST,KST,LST =  1  1  1  1 NREC =         1 INTLOC =    1
 II,JST,KST,LST =  2  1  1  1 NREC =         1 INTLOC =    2
 II,JST,KST,LST =  3  1  1  1 NREC =         1 INTLOC =   34
 II,JST,KST,LST =  4  1  1  1 NREC =         1 INTLOC =  214
 II,JST,KST,LST =  5  1  1  1 NREC =         1 INTLOC = 1189
 II,JST,KST,LST =  6  1  1  1 NREC =         1 INTLOC = 2364
 II,JST,KST,LST =  7  1  1  1 NREC =         1 INTLOC = 9259
 II,JST,KST,LST =  8  1  1  1 NREC =         2 INTLOC = 6298
 II,JST,KST,LST =  9  1  1  1 NREC =         4 INTLOC = 7025
 II,JST,KST,LST = 10  1  1  1 NREC =         4 INTLOC =14210
 II,JST,KST,LST = 11  1  1  1 NREC =         7 INTLOC = 8214
 II,JST,KST,LST = 12  1  1  1 NREC =        11 INTLOC = 3699
 II,JST,KST,LST = 13  1  1  1 NREC =        18 INTLOC =14887
 II,JST,KST,LST = 14  1  1  1 NREC =        20 INTLOC =11709
 II,JST,KST,LST = 15  1  1  1 NREC =        22 INTLOC =10714
 II,JST,KST,LST = 16  1  1  1 NREC =        24 INTLOC =11630
 II,JST,KST,LST = 17  1  1  1 NREC =        26 INTLOC =14941
 II,JST,KST,LST = 18  1  1  1 NREC =        29 INTLOC = 2829
 II,JST,KST,LST = 19  1  1  1 NREC =        31 INTLOC =10684
 II,JST,KST,LST = 20  1  1  1 NREC =        34 INTLOC = 5340
 SCHWARZ INEQUALITY TEST SKIPPED         652 INTEGRAL BLOCKS.
 TOTAL NUMBER OF NONZERO TWO-ELECTRON INTEGRALS =              543524
         37 INTEGRAL RECORDS WERE STORED ON DISK FILE  8.
  ...... END OF TWO-ELECTRON INTEGRALS .....
 STEP CPU TIME =     0.09 TOTAL CPU TIME =          0.1 (      0.0 MIN)
 TOTAL WALL CLOCK TIME=          0.1 SECONDS, CPU UTILIZATION IS    76.92%

          --------------------------
                 RHF SCF CALCULATION
          --------------------------

     NUCLEAR ENERGY =        70.1017152750
     MAXIT =   30     NPUNCH=    2
     EXTRAP=T  DAMP=F  SHIFT=F  RSTRCT=F  DIIS=F  DEM=F  SOSCF=T
     DENSITY MATRIX CONV=  1.00E-06
     SOSCF WILL OPTIMIZE     492 ORBITAL ROTATIONS, SOGTOL=   0.250
     MEMORY REQUIRED FOR RHF ITERS=     52373 WORDS.

 ITER EX DEM     TOTAL ENERGY        E CHANGE  DENSITY CHANGE     ORB. GRAD
   1  0  0     -152.4439721680  -152.4439721680   0.207322879   0.000000000
          ---------------START SECOND ORDER SCF---------------
   2  1  0     -152.8578881027    -0.4139159347   0.102223559   0.037790767
   3  2  0     -152.8819225698    -0.0240344672   0.037438945   0.020101395
   4  3  0     -152.8871658795    -0.0052433097   0.005725720   0.002961446
   5  4  0     -152.8873168602    -0.0001509807   0.001689752   0.001406611
   6  5  0     -152.8873389891    -0.0000221289   0.000802372   0.000428459
   7  6  0     -152.8873407965    -0.0000018074   0.000395907   0.000194783
   8  7  0     -152.8873410115    -0.0000002150   0.000078091   0.000029739
   9  8  0     -152.8873410320    -0.0000000205   0.000033693   0.000010080
  10  9  0     -152.8873410337    -0.0000000017   0.000007011   0.000002834
  11 10  0     -152.8873410339    -0.0000000001   0.000002757   0.000000711
  12 11  0     -152.8873410339    -0.0000000000   0.000000658   0.000000183
  13 12  0     -152.8873410339    -0.0000000000   0.000000174   0.000000044

          -----------------
          DENSITY CONVERGED
          -----------------
     TIME TO FORM FOCK OPERATORS=       0.1 SECONDS (       0.0 SEC/ITER)
     TIME TO SOLVE SCF EQUATIONS=       0.0 SECONDS (       0.0 SEC/ITER)

 FINAL RHF ENERGY IS     -152.8873410339 AFTER  13 ITERATIONS

          ------------
          EIGENVECTORS
          ------------

                      1          2          3          4          5
                  -20.5956   -11.2999   -11.2162    -1.3973    -1.0174
                     A          A          A          A          A   
    1  C  1  S    0.000006   0.009440   0.995520  -0.015819  -0.161030
    2  C  1  S    0.000062  -0.000104   0.027695   0.029467   0.300147
    3  C  1  X   -0.000064  -0.000182   0.000187   0.024101   0.088386
    4  C  1  Y   -0.000010   0.000143  -0.000056  -0.005786  -0.055530
    5  C  1  Z    0.000000   0.000000   0.000000   0.000000   0.000000
    6  C  1  S   -0.000862   0.004060  -0.011562   0.022908   0.240504
    7  C  1  X   -0.000303   0.001406  -0.000771   0.013711   0.011360
    8  C  1  Y    0.000179  -0.001541   0.000271   0.008018   0.007309
    9  C  1  Z    0.000000   0.000000   0.000000   0.000000   0.000000
   10  C  1 XX   -0.000074  -0.000211  -0.001778   0.004713   0.014456
   11  C  1 YY    0.000023  -0.000255  -0.002003  -0.001364   0.008703
   12  C  1 ZZ   -0.000007  -0.000107  -0.002537  -0.001215  -0.012859
   13  C  1 XY   -0.000016  -0.000039  -0.000215  -0.001452  -0.005337
   14  C  1 XZ    0.000000   0.000000   0.000000   0.000000   0.000000
   15  C  1 YZ    0.000000   0.000000   0.000000   0.000000   0.000000
   16  C  2  S   -0.000018   0.995669  -0.010104  -0.075963  -0.138399
   17  C  2  S    0.000340   0.026552  -0.000562   0.141567   0.276886
   18  C  2  X    0.000321   0.001183   0.000202   0.095687  -0.149982
   19  C  2  Y    0.000112   0.000473  -0.000150   0.052380   0.033018
   20  C  2  Z    0.000000   0.000000   0.000000   0.000000   0.000000
   21  C  2  S    0.000354  -0.009210   0.004303   0.035293   0.188891
   22  C  2  X   -0.000758   0.002149  -0.001425  -0.004961  -0.037550
   23  C  2  Y    0.000504   0.000469   0.000991  -0.015993  -0.012078
   24  C  2  Z    0.000000   0.000000   0.000000   0.000000   0.000000
   25  C  2 XX   -0.000084  -0.000976  -0.000355   0.019294   0.004467
   26  C  2 YY   -0.000061  -0.001668  -0.000279  -0.000322   0.005971
   27  C  2 ZZ   -0.000089  -0.002430  -0.000072  -0.011530  -0.010619
   28  C  2 XY   -0.000041   0.000053   0.000005   0.015958  -0.015815
   29  C  2 XZ    0.000000   0.000000   0.000000   0.000000   0.000000
   30  C  2 YZ    0.000000   0.000000   0.000000   0.000000   0.000000
   31  O  3  S    0.994638  -0.000098   0.000015  -0.202644   0.053815
   32  O  3  S    0.021156   0.000580  -0.000016   0.456756  -0.126790
   33  O  3  X   -0.001166  -0.000122   0.000009  -0.085358  -0.075930
   34  O  3  Y    0.000659  -0.000048  -0.000003   0.030954  -0.064573
   35  O  3  Z    0.000000   0.000000   0.000000   0.000000   0.000000
   36  O  3  S    0.004181  -0.001406  -0.000312   0.432026  -0.141161
   37  O  3  X    0.000483   0.001346   0.000080  -0.048627  -0.044169
   38  O  3  Y   -0.000485   0.000732  -0.000081   0.021810  -0.037780
   39  O  3  Z    0.000000   0.000000   0.000000   0.000000   0.000000
   40  O  3 XX   -0.004115  -0.000568   0.000141   0.014575   0.010403
   41  O  3 YY   -0.004155  -0.000032   0.000030   0.022165  -0.013466
   42  O  3 ZZ   -0.003919   0.000441  -0.000031  -0.002011  -0.002849
   43  O  3 XY   -0.000036  -0.000546   0.000009   0.000862   0.003828
   44  O  3 XZ    0.000000   0.000000   0.000000   0.000000   0.000000
   45  O  3 YZ    0.000000   0.000000   0.000000   0.000000   0.000000
   46  H  4  S    0.000431   0.000087  -0.000007   0.114343  -0.059069
   47  H  4  S   -0.000217   0.000027   0.000054  -0.005270  -0.006463
   48  H  5  S    0.000028  -0.000135  -0.000047   0.022975   0.078236
   49  H  5  S    0.000191   0.002116   0.000004  -0.004741   0.011948
   50  H  6  S    0.000036  -0.000123  -0.000143   0.003757   0.089654
   51  H  6  S    0.000005  -0.000143   0.002011   0.004598   0.023453
   52  H  7  S   -0.000002  -0.000024  -0.000139   0.004825   0.083093
   53  H  7  S    0.000015   0.000409   0.002114  -0.001494   0.011289

                      6          7          8          9         10
                   -0.8260    -0.6749    -0.6624    -0.5719    -0.5426
                     A          A          A          A          A   
    1  C  1  S   -0.096129   0.052270   0.001218   0.000000  -0.015934
    2  C  1  S    0.179626  -0.100830  -0.002505   0.000000   0.031524
    3  C  1  X   -0.054232   0.279530  -0.113512   0.000000   0.302707
    4  C  1  Y    0.053410  -0.139466  -0.202588   0.000000   0.103623
    5  C  1  Z    0.000000   0.000000   0.000000   0.097462   0.000000
    6  C  1  S    0.201580  -0.137022   0.011822   0.000000   0.057882
    7  C  1  X   -0.012269   0.115026  -0.053512   0.000000   0.133584
    8  C  1  Y    0.002906  -0.039027  -0.096233   0.000000   0.049510
    9  C  1  Z    0.000000   0.000000   0.000000   0.060449   0.000000
   10  C  1 XX    0.005656   0.000356   0.003361   0.000000  -0.010472
   11  C  1 YY    0.013371  -0.019055  -0.003832   0.000000   0.003810
   12  C  1 ZZ   -0.008989   0.004726   0.000537   0.000000   0.000326
   13  C  1 XY    0.005279  -0.018613   0.004240   0.000000  -0.020059
   14  C  1 XZ    0.000000   0.000000   0.000000   0.009880   0.000000
   15  C  1 YZ    0.000000   0.000000   0.000000  -0.004405   0.000000
   16  C  2  S    0.095143  -0.064883  -0.002275   0.000000  -0.004221
   17  C  2  S   -0.193914   0.137627   0.002966   0.000000   0.010918
   18  C  2  X   -0.172949  -0.191319  -0.150581   0.000000  -0.221076
   19  C  2  Y    0.133666   0.055664  -0.306025   0.000000   0.071865
   20  C  2  Z    0.000000   0.000000   0.000000   0.215636   0.000000
   21  C  2  S   -0.175322   0.113884   0.057307   0.000000   0.018953
   22  C  2  X   -0.005955  -0.054580  -0.006595   0.000000  -0.023121
   23  C  2  Y    0.052704   0.000061  -0.113854   0.000000   0.011550
   24  C  2  Z    0.000000   0.000000   0.000000   0.123432   0.000000
   25  C  2 XX   -0.010096  -0.014846  -0.014463   0.000000  -0.001627
   26  C  2 YY   -0.009643   0.012213   0.016460   0.000000  -0.007743
   27  C  2 ZZ    0.011386  -0.002492   0.003201   0.000000   0.004066
   28  C  2 XY   -0.004885  -0.005115  -0.013308   0.000000  -0.027201
   29  C  2 XZ    0.000000   0.000000   0.000000   0.014926   0.000000
   30  C  2 YZ    0.000000   0.000000   0.000000   0.012849   0.000000
   31  O  3  S   -0.015857   0.043091  -0.026572   0.000000  -0.041131
   32  O  3  S    0.037701  -0.105387   0.066362   0.000000   0.096677
   33  O  3  X    0.142179  -0.093269   0.338602   0.000000   0.389852
   34  O  3  Y    0.308119   0.318962   0.079467   0.000000  -0.199821
   35  O  3  Z    0.000000   0.000000   0.000000   0.565272   0.000000
   36  O  3  S    0.042502  -0.149844   0.084989   0.000000   0.168251
   37  O  3  X    0.080037  -0.076724   0.224218   0.000000   0.291528
   38  O  3  Y    0.176815   0.204973   0.056323   0.000000  -0.143112
   39  O  3  Z    0.000000   0.000000   0.000000   0.414114   0.000000
   40  O  3 XX   -0.016561   0.002214  -0.025943   0.000000  -0.016492
   41  O  3 YY    0.025583   0.016057   0.020052   0.000000  -0.008129
   42  O  3 ZZ   -0.000796  -0.008571   0.006699   0.000000   0.010107
   43  O  3 XY   -0.017827  -0.017943   0.003905   0.000000   0.014090
   44  O  3 XZ    0.000000   0.000000   0.000000  -0.028878   0.000000
   45  O  3 YZ    0.000000   0.000000   0.000000   0.010756   0.000000
   46  H  4  S    0.164413   0.149840   0.052481   0.000000  -0.104756
   47  H  4  S    0.055399   0.068405   0.034076   0.000000  -0.054769
   48  H  5  S   -0.145100   0.031934   0.169918   0.000000  -0.051364
   49  H  5  S   -0.059008   0.008008   0.105658   0.000000  -0.050301
   50  H  6  S    0.086650  -0.146851   0.110849   0.000000  -0.194387
   51  H  6  S    0.036975  -0.085155   0.064720   0.000000  -0.169125
   52  H  7  S    0.107513  -0.142718  -0.109628   0.000000   0.070804
   53  H  7  S    0.059028  -0.092514  -0.070167   0.000000   0.046864

                     11         12         13         14         15
                   -0.5364    -0.3450     0.2018     0.2220     0.2736
                     A          A          A          A          A   
    1  C  1  S    0.017583   0.000000   0.000000   0.041401   0.024299
    2  C  1  S   -0.038847   0.000000   0.000000  -0.062226  -0.024568
    3  C  1  X   -0.024675   0.000000   0.000000   0.038870   0.154903
    4  C  1  Y    0.334173   0.000000   0.000000  -0.077996   0.127090
    5  C  1  Z    0.000000   0.395552  -0.310322   0.000000   0.000000
    6  C  1  S   -0.031807   0.000000   0.000000  -0.374556  -0.524132
    7  C  1  X    0.035017   0.000000   0.000000   0.373166   0.557771
    8  C  1  Y    0.192132   0.000000   0.000000  -0.331767   0.309812
    9  C  1  Z    0.000000   0.353190  -0.718265   0.000000   0.000000
   10  C  1 XX   -0.022644   0.000000   0.000000   0.007980   0.012820
   11  C  1 YY    0.027426   0.000000   0.000000  -0.007365  -0.008781
   12  C  1 ZZ    0.000046   0.000000   0.000000   0.004052   0.000195
   13  C  1 XY   -0.008215   0.000000   0.000000   0.010235   0.012995
   14  C  1 XZ    0.000000   0.020342   0.023711   0.000000   0.000000
   15  C  1 YZ    0.000000  -0.011723  -0.015205   0.000000   0.000000
   16  C  2  S   -0.008768   0.000000   0.000000  -0.007194   0.063818
   17  C  2  S    0.015450   0.000000   0.000000   0.019252  -0.078356
   18  C  2  X    0.095616   0.000000   0.000000   0.065204   0.008845
   19  C  2  Y   -0.280323   0.000000   0.000000   0.028557   0.258557
   20  C  2  Z    0.000000   0.309461   0.417744   0.000000   0.000000
   21  C  2  S    0.045102   0.000000   0.000000  -0.182583  -1.224703
   22  C  2  X    0.016473   0.000000   0.000000   0.307233  -0.009922
   23  C  2  Y   -0.154868   0.000000   0.000000  -0.059572   0.821116
   24  C  2  Z    0.000000   0.232313   0.776980   0.000000   0.000000
   25  C  2 XX   -0.029823   0.000000   0.000000  -0.002057  -0.013732
   26  C  2 YY    0.038044   0.000000   0.000000  -0.004436   0.016106
   27  C  2 ZZ   -0.000666   0.000000   0.000000   0.005343   0.003730
   28  C  2 XY   -0.005150   0.000000   0.000000  -0.006683  -0.006976
   29  C  2 XZ    0.000000  -0.036211   0.011082   0.000000   0.000000
   30  C  2 YZ    0.000000   0.007556  -0.017904   0.000000   0.000000
   31  O  3  S    0.028428   0.000000   0.000000   0.079552  -0.005478
   32  O  3  S   -0.064963   0.000000   0.000000  -0.063077  -0.020779
   33  O  3  X   -0.000114   0.000000   0.000000   0.054668   0.046787
   34  O  3  Y    0.173292   0.000000   0.000000  -0.233256   0.011800
   35  O  3  Z    0.000000  -0.284716  -0.176685   0.000000   0.000000
   36  O  3  S   -0.122209   0.000000   0.000000  -1.100063   0.144822
   37  O  3  X   -0.014378   0.000000   0.000000   0.119015   0.065704
   38  O  3  Y    0.123356   0.000000   0.000000  -0.509357  -0.028463
   39  O  3  Z    0.000000  -0.269217  -0.271055   0.000000   0.000000
   40  O  3 XX   -0.004998   0.000000   0.000000   0.042308  -0.006167
   41  O  3 YY    0.017900   0.000000   0.000000   0.028390  -0.016969
   42  O  3 ZZ   -0.002392   0.000000   0.000000   0.047540  -0.012026
   43  O  3 XY   -0.004383   0.000000   0.000000   0.009780  -0.008595
   44  O  3 XZ    0.000000   0.003869  -0.009355   0.000000   0.000000
   45  O  3 YZ    0.000000  -0.009040  -0.016889   0.000000   0.000000
   46  H  4  S    0.097941   0.000000   0.000000   0.077697  -0.029598
   47  H  4  S    0.086716   0.000000   0.000000   1.431626  -0.252518
   48  H  5  S    0.213791   0.000000   0.000000  -0.042232   0.036923
   49  H  5  S    0.166705   0.000000   0.000000  -0.154434   1.718779
   50  H  6  S   -0.122773   0.000000   0.000000   0.048811   0.035542
   51  H  6  S   -0.074948   0.000000   0.000000   0.443078   1.192499
   52  H  7  S    0.216334   0.000000   0.000000  -0.041268  -0.026332
   53  H  7  S    0.185615   0.000000   0.000000   0.540125  -0.339729

                     16         17         18         19         20
                    0.2926     0.3397     0.4651     0.5276     0.7111
                     A          A          A          A          A   
    1  C  1  S   -0.106796   0.059136   0.049996  -0.067544  -0.001130
    2  C  1  S    0.087228  -0.070919  -0.058204  -0.053065   0.369496
    3  C  1  X   -0.097968   0.113704  -0.066915  -0.005601   0.500912
    4  C  1  Y    0.163870   0.192175  -0.152836  -0.051754  -0.272499
    5  C  1  Z    0.000000   0.000000   0.000000   0.000000   0.000000
    6  C  1  S    2.116320  -0.905358  -0.669999   3.214985   0.623205
    7  C  1  X   -0.203235   0.578592  -1.298463   2.749677  -0.196894
    8  C  1  Y    0.625904   1.333394  -0.955978  -1.618951   0.246455
    9  C  1  Z    0.000000   0.000000   0.000000   0.000000   0.000000
   10  C  1 XX    0.006506   0.006339   0.024308  -0.000103   0.035670
   11  C  1 YY   -0.017884  -0.007471  -0.045632   0.016193   0.029929
   12  C  1 ZZ   -0.007592   0.004684   0.008639  -0.013306   0.004056
   13  C  1 XY    0.008513  -0.002298   0.005645   0.022667  -0.040955
   14  C  1 XZ    0.000000   0.000000   0.000000   0.000000   0.000000
   15  C  1 YZ    0.000000   0.000000   0.000000   0.000000   0.000000
   16  C  2  S   -0.000260  -0.095235  -0.086639   0.053212   0.067806
   17  C  2  S   -0.001207   0.114088   0.021984  -0.073929   0.188904
   18  C  2  X    0.127766   0.069409   0.095385   0.186435  -0.532675
   19  C  2  Y    0.041641  -0.089500   0.221097  -0.171941  -0.021602
   20  C  2  Z    0.000000   0.000000   0.000000   0.000000   0.000000
   21  C  2  S    0.031195   1.672466   1.994854  -2.912978  -0.626988
   22  C  2  X    0.567530  -0.131446   1.334196   2.825996   1.443574
   23  C  2  Y   -0.061042  -0.900280   1.597510  -1.340993  -0.552907
   24  C  2  Z    0.000000   0.000000   0.000000   0.000000   0.000000
   25  C  2 XX   -0.004907  -0.029434   0.005913  -0.015713   0.130447
   26  C  2 YY    0.007866   0.015762   0.001606  -0.006718   0.024921
   27  C  2 ZZ    0.006840   0.001224   0.011725   0.004035  -0.040215
   28  C  2 XY   -0.016531  -0.017604  -0.000423   0.002764  -0.027916
   29  C  2 XZ    0.000000   0.000000   0.000000   0.000000   0.000000
   30  C  2 YZ    0.000000   0.000000   0.000000   0.000000   0.000000
   31  O  3  S    0.050360   0.012079   0.074657   0.012593  -0.001065
   32  O  3  S   -0.056066  -0.076926  -0.045544  -0.012161   0.109020
   33  O  3  X    0.060903   0.141856   0.188335   0.007459  -0.228864
   34  O  3  Y   -0.027991   0.093034   0.190359   0.139886  -0.018180
   35  O  3  Z    0.000000   0.000000   0.000000   0.000000   0.000000
   36  O  3  S   -0.706396   0.088015  -1.481630  -0.372651  -0.511546
   37  O  3  X    0.202696   0.144444   0.931561   0.063728  -0.050555
   38  O  3  Y   -0.030611   0.256920   0.529248   0.576456   0.066179
   39  O  3  Z    0.000000   0.000000   0.000000   0.000000   0.000000
   40  O  3 XX    0.012226  -0.009127   0.002337  -0.009493  -0.055472
   41  O  3 YY    0.021047  -0.012619   0.029354   0.024141   0.071753
   42  O  3 ZZ    0.020353  -0.016977   0.049034  -0.001625   0.026700
   43  O  3 XY    0.002765   0.006528  -0.014730  -0.020078  -0.042210
   44  O  3 XZ    0.000000   0.000000   0.000000   0.000000   0.000000
   45  O  3 YZ    0.000000   0.000000   0.000000   0.000000   0.000000
   46  H  4  S    0.050156  -0.019756  -0.035261   0.028944   0.218413
   47  H  4  S    0.482032  -0.252566  -0.630256  -0.654413  -0.038272
   48  H  5  S    0.024621   0.022804  -0.031013   0.002161   0.063845
   49  H  5  S    0.017415  -1.599683   0.596227  -0.772118  -0.238033
   50  H  6  S    0.022192   0.014607   0.078056   0.133061  -0.045390
   51  H  6  S   -0.679634   1.806685  -1.021485   0.421019   0.246104
   52  H  7  S   -0.067335  -0.001279  -0.135991   0.073292  -0.023648
   53  H  7  S   -1.850077  -0.904286   1.185858   0.722166  -0.093115

                     21         22         23         24         25
                    0.7665     0.8177     0.8428     0.8801     0.9195
                     A          A          A          A          A   
    1  C  1  S    0.000000  -0.020512  -0.014919   0.000000  -0.095353
    2  C  1  S    0.000000  -0.513901  -0.256034   0.000000  -0.295171
    3  C  1  X    0.000000   0.063389  -0.213963   0.000000   0.486037
    4  C  1  Y    0.000000   0.202711  -0.255141   0.000000  -0.260116
    5  C  1  Z   -0.692454   0.000000   0.000000  -0.851862   0.000000
    6  C  1  S    0.000000   0.903101  -0.180380   0.000000   1.418454
    7  C  1  X    0.000000  -0.534264   0.055309   0.000000  -0.342134
    8  C  1  Y    0.000000  -0.408594   0.866738   0.000000   0.282648
    9  C  1  Z    0.523685   0.000000   0.000000   1.166154   0.000000
   10  C  1 XX    0.000000  -0.126076  -0.018390   0.000000  -0.129054
   11  C  1 YY    0.000000  -0.036825  -0.072646   0.000000  -0.144726
   12  C  1 ZZ    0.000000   0.026289   0.009581   0.000000   0.091082
   13  C  1 XY    0.000000  -0.069925   0.033859   0.000000   0.056811
   14  C  1 XZ   -0.055420   0.000000   0.000000   0.013904   0.000000
   15  C  1 YZ    0.027145   0.000000   0.000000  -0.002642   0.000000
   16  C  2  S    0.000000  -0.023121   0.025361   0.000000   0.049902
   17  C  2  S    0.000000  -0.896368  -0.483633   0.000000   0.028183
   18  C  2  X    0.000000  -0.238920  -0.364896   0.000000   0.662380
   19  C  2  Y    0.000000  -0.114720  -0.577601   0.000000  -0.050195
   20  C  2  Z   -0.765817   0.000000   0.000000   0.748090   0.000000
   21  C  2  S    0.000000   1.790093   0.630094   0.000000  -0.654807
   22  C  2  X    0.000000   0.691551  -0.304381   0.000000  -0.384737
   23  C  2  Y    0.000000   0.120931   1.055593   0.000000  -0.249642
   24  C  2  Z    0.795182   0.000000   0.000000  -1.134868   0.000000
   25  C  2 XX    0.000000  -0.015705  -0.034297   0.000000   0.059689
   26  C  2 YY    0.000000  -0.163635   0.028053   0.000000   0.021454
   27  C  2 ZZ    0.000000   0.005459  -0.048537   0.000000  -0.027334
   28  C  2 XY    0.000000   0.057166   0.022162   0.000000  -0.135222
   29  C  2 XZ    0.039594   0.000000   0.000000   0.057676   0.000000
   30  C  2 YZ   -0.045953   0.000000   0.000000  -0.000400   0.000000
   31  O  3  S    0.000000   0.009269  -0.032010   0.000000   0.011072
   32  O  3  S    0.000000  -0.055026   0.194465   0.000000   0.057839
   33  O  3  X    0.000000  -0.188233   0.021027   0.000000   0.119244
   34  O  3  Y    0.000000   0.020067  -0.111550   0.000000   0.013844
   35  O  3  Z   -0.098907   0.000000   0.000000   0.055580   0.000000
   36  O  3  S    0.000000  -0.528823  -0.143559   0.000000   0.115579
   37  O  3  X    0.000000   0.258081  -0.173071   0.000000  -0.099508
   38  O  3  Y    0.000000   0.102674  -0.152681   0.000000  -0.016430
   39  O  3  Z   -0.069831   0.000000   0.000000   0.110597   0.000000
   40  O  3 XX    0.000000  -0.108426  -0.006250   0.000000   0.067911
   41  O  3 YY    0.000000  -0.006164   0.015086   0.000000   0.084840
   42  O  3 ZZ    0.000000   0.034397   0.081359   0.000000  -0.023167
   43  O  3 XY    0.000000  -0.055344  -0.093519   0.000000   0.077720
   44  O  3 XZ    0.030715   0.000000   0.000000  -0.054856   0.000000
   45  O  3 YZ    0.016822   0.000000   0.000000  -0.008665   0.000000
   46  H  4  S    0.000000   0.117602  -0.103317   0.000000   0.127552
   47  H  4  S    0.000000  -0.219117  -0.175558   0.000000  -0.028284
   48  H  5  S    0.000000  -0.481134   0.364520   0.000000   0.129606
   49  H  5  S    0.000000  -0.130972   0.215955   0.000000  -0.057028
   50  H  6  S    0.000000  -0.468759   0.143424   0.000000  -0.380872
   51  H  6  S    0.000000  -0.170130   0.163594   0.000000  -0.223462
   52  H  7  S    0.000000  -0.023262  -0.397846   0.000000  -0.518474
   53  H  7  S    0.000000  -0.122832  -0.326938   0.000000  -0.047951

                     26         27         28         29         30
                    1.0605     1.1249     1.1329     1.2018     1.2230
                     A          A          A          A          A   
    1  C  1  S    0.019623  -0.003529  -0.005088  -0.027986   0.000000
    2  C  1  S   -0.039741   0.164839  -0.236702   0.905211   0.000000
    3  C  1  X   -0.223628  -0.039546  -0.506391  -0.576311   0.000000
    4  C  1  Y   -0.104143  -0.368714  -0.956480   0.287164   0.000000
    5  C  1  Z    0.000000   0.000000   0.000000   0.000000   0.014347
    6  C  1  S   -0.458652  -0.846448   1.160299  -1.220537   0.000000
    7  C  1  X    0.152467  -0.317548   1.714710   1.125637   0.000000
    8  C  1  Y    0.428036   0.370845   2.510469  -0.483571   0.000000
    9  C  1  Z    0.000000   0.000000   0.000000   0.000000   0.149925
   10  C  1 XX    0.012885  -0.127593  -0.045260   0.108531   0.000000
   11  C  1 YY    0.012971   0.106411   0.026998  -0.050514   0.000000
   12  C  1 ZZ   -0.022699   0.017160  -0.011965   0.140917   0.000000
   13  C  1 XY   -0.025421  -0.026951  -0.068153  -0.143097   0.000000
   14  C  1 XZ    0.000000   0.000000   0.000000   0.000000   0.000383
   15  C  1 YZ    0.000000   0.000000   0.000000   0.000000   0.041545
   16  C  2  S   -0.055969   0.004487  -0.001190  -0.004031   0.000000
   17  C  2  S    0.339200   0.667312  -0.202032   0.400248   0.000000
   18  C  2  X   -0.028939   0.213416   0.018188  -0.172034   0.000000
   19  C  2  Y   -0.215706  -0.781277   0.580189   0.043539   0.000000
   20  C  2  Z    0.000000   0.000000   0.000000   0.000000   0.125395
   21  C  2  S   -0.618884  -0.957665   0.105361  -1.175373   0.000000
   22  C  2  X   -0.551124  -0.414200  -0.157529   0.518135   0.000000
   23  C  2  Y    0.472646   2.030254  -2.478955  -0.417601   0.000000
   24  C  2  Z    0.000000   0.000000   0.000000   0.000000  -0.543785
   25  C  2 XX   -0.035658   0.208035  -0.009300  -0.049458   0.000000
   26  C  2 YY   -0.093225  -0.066051  -0.072679   0.002618   0.000000
   27  C  2 ZZ    0.086721   0.054938  -0.005661   0.041136   0.000000
   28  C  2 XY   -0.091190   0.045048   0.048052   0.012764   0.000000
   29  C  2 XZ    0.000000   0.000000   0.000000   0.000000  -0.005720
   30  C  2 YZ    0.000000   0.000000   0.000000   0.000000   0.039202
   31  O  3  S    0.023063   0.000326  -0.005102   0.001729   0.000000
   32  O  3  S   -0.061098  -0.162716  -0.018825   0.184493   0.000000
   33  O  3  X    0.500343  -0.258836   0.062544   0.089604   0.000000
   34  O  3  Y   -0.253550   0.162371   0.025501   0.207528   0.000000
   35  O  3  Z    0.000000   0.000000   0.000000   0.000000  -0.955229
   36  O  3  S    0.251557   0.204235   0.490272  -0.322719   0.000000
   37  O  3  X   -0.588830   0.575275  -0.250818  -0.192248   0.000000
   38  O  3  Y   -0.305604  -0.105770   0.174600  -0.174766   0.000000
   39  O  3  Z    0.000000   0.000000   0.000000   0.000000   1.202828
   40  O  3 XX   -0.011803  -0.081481   0.060471   0.078768   0.000000
   41  O  3 YY    0.180755  -0.086951  -0.030939   0.038859   0.000000
   42  O  3 ZZ   -0.070727  -0.040545  -0.026936   0.060205   0.000000
   43  O  3 XY    0.015727   0.048297  -0.006061   0.005985   0.000000
   44  O  3 XZ    0.000000   0.000000   0.000000   0.000000   0.024228
   45  O  3 YZ    0.000000   0.000000   0.000000   0.000000   0.040214
   46  H  4  S    0.850742  -0.227743  -0.097416  -0.127102   0.000000
   47  H  4  S   -0.565449  -0.069409   0.143672   0.228109   0.000000
   48  H  5  S   -0.417882  -0.464828   0.025186  -0.105502   0.000000
   49  H  5  S    0.851624   1.978337  -1.366047  -0.028302   0.000000
   50  H  6  S    0.061791  -0.214897  -0.314333  -0.627855   0.000000
   51  H  6  S    0.217011   0.386326   1.672310   1.266398   0.000000
   52  H  7  S    0.067880   0.266899   0.259869  -0.636326   0.000000
   53  H  7  S   -0.213323  -0.499786  -1.783136   1.148917   0.000000

                     31         32         33         34         35
                    1.2543     1.3079     1.3939     1.5062     1.6527
                     A          A          A          A          A   
    1  C  1  S   -0.009184  -0.029768   0.014346  -0.013628   0.000000
    2  C  1  S    0.196444  -1.532782   0.149255  -0.302318   0.000000
    3  C  1  X   -0.286828  -0.166851  -0.089283  -0.067054   0.000000
    4  C  1  Y    0.038811   0.187394  -0.065446   0.137269   0.000000
    5  C  1  Z    0.000000   0.000000   0.000000   0.000000   0.190447
    6  C  1  S   -1.033673   5.575228  -1.193341   2.565945   0.000000
    7  C  1  X    0.219905   1.585740   0.715056   1.162603   0.000000
    8  C  1  Y   -0.206898  -0.904728   2.256622  -0.783064   0.000000
    9  C  1  Z    0.000000   0.000000   0.000000   0.000000  -0.057065
   10  C  1 XX   -0.004331  -0.008952   0.129286  -0.014537   0.000000
   11  C  1 YY   -0.016227  -0.147985  -0.113930  -0.071675   0.000000
   12  C  1 ZZ    0.041281  -0.074099   0.007130   0.041468   0.000000
   13  C  1 XY   -0.011781  -0.107330   0.110609  -0.056716   0.000000
   14  C  1 XZ    0.000000   0.000000   0.000000   0.000000  -0.345434
   15  C  1 YZ    0.000000   0.000000   0.000000   0.000000   0.294173
   16  C  2  S    0.019321   0.024857  -0.020860   0.026288   0.000000
   17  C  2  S   -0.015728   1.245204  -0.250321   0.366592   0.000000
   18  C  2  X    0.065935  -0.362554   0.096075  -0.163362   0.000000
   19  C  2  Y    0.072082   0.138429   0.136569   0.060924   0.000000
   20  C  2  Z    0.000000   0.000000   0.000000   0.000000   0.012207
   21  C  2  S    0.136174  -5.057633   1.589589  -1.168873   0.000000
   22  C  2  X   -0.351017   1.678324  -1.436462   2.524677   0.000000
   23  C  2  Y    0.618172  -1.124215  -1.501970  -0.935288   0.000000
   24  C  2  Z    0.000000   0.000000   0.000000   0.000000   0.049230
   25  C  2 XX    0.059647  -0.056453   0.050893   0.162375   0.000000
   26  C  2 YY    0.111318   0.143769  -0.107119  -0.112200   0.000000
   27  C  2 ZZ   -0.077771   0.046965   0.033415   0.048586   0.000000
   28  C  2 XY    0.080265   0.107077   0.032000   0.094606   0.000000
   29  C  2 XZ    0.000000   0.000000   0.000000   0.000000   0.577811
   30  C  2 YZ    0.000000   0.000000   0.000000   0.000000  -0.055878
   31  O  3  S   -0.015519  -0.004618  -0.001731   0.026460   0.000000
   32  O  3  S   -0.865391   0.044759   0.128848   0.458093   0.000000
   33  O  3  X   -0.400057  -0.094686  -0.424011  -0.111712   0.000000
   34  O  3  Y   -0.374916   0.219949   0.156751  -0.808515   0.000000
   35  O  3  Z    0.000000   0.000000   0.000000   0.000000  -0.030822
   36  O  3  S    1.801196   0.213667   0.334948  -1.407516   0.000000
   37  O  3  X    0.649755  -0.192453   0.391305   0.512874   0.000000
   38  O  3  Y    0.207938  -0.349519  -0.290073   1.979507   0.000000
   39  O  3  Z    0.000000   0.000000   0.000000   0.000000  -0.117304
   40  O  3 XX   -0.274663   0.105864   0.031641   0.103606   0.000000
   41  O  3 YY   -0.208159   0.012892   0.110981   0.105665   0.000000
   42  O  3 ZZ   -0.354133  -0.096682  -0.074450   0.187465   0.000000
   43  O  3 XY   -0.095029  -0.047777   0.048583   0.196940   0.000000
   44  O  3 XZ    0.000000   0.000000   0.000000   0.000000  -0.313032
   45  O  3 YZ    0.000000   0.000000   0.000000   0.000000  -0.295217
   46  H  4  S    0.600914   0.057004   0.198195  -0.290082   0.000000
   47  H  4  S   -1.125743   0.249015   0.049965  -0.662181   0.000000
   48  H  5  S    0.442118   0.069773  -0.579408  -0.190082   0.000000
   49  H  5  S   -0.023521   0.110375  -0.612580  -0.231149   0.000000
   50  H  6  S   -0.233181  -0.017827   0.701047  -0.008090   0.000000
   51  H  6  S    0.421002  -0.510737   0.626264   0.079235   0.000000
   52  H  7  S   -0.101451  -0.139341  -0.594621  -0.180348   0.000000
   53  H  7  S    0.507355  -0.359779  -0.542599   0.322495   0.000000

                     36         37         38         39         40
                    1.7441     1.8126     2.0026     2.0575     2.0807
                     A          A          A          A          A   
    1  C  1  S    0.000000  -0.023888   0.000000   0.000000   0.020353
    2  C  1  S    0.000000  -0.260783   0.000000   0.000000  -0.181745
    3  C  1  X    0.000000   0.054215   0.000000   0.000000  -0.232954
    4  C  1  Y    0.000000  -0.117582   0.000000   0.000000   0.053901
    5  C  1  Z   -0.059995   0.000000  -0.016355   0.061190   0.000000
    6  C  1  S    0.000000   2.003341   0.000000   0.000000  -1.026543
    7  C  1  X    0.000000   1.448845   0.000000   0.000000  -0.197436
    8  C  1  Y    0.000000   1.380996   0.000000   0.000000  -0.176677
    9  C  1  Z   -0.034152   0.000000   0.024813  -0.126157   0.000000
   10  C  1 XX    0.000000   0.143907   0.000000   0.000000   0.029874
   11  C  1 YY    0.000000  -0.054463   0.000000   0.000000  -0.277420
   12  C  1 ZZ    0.000000  -0.087843   0.000000   0.000000   0.223139
   13  C  1 XY    0.000000   0.054986   0.000000   0.000000  -0.132455
   14  C  1 XZ    0.413307   0.000000   0.396032  -0.140307   0.000000
   15  C  1 YZ    0.229813   0.000000   0.708198   0.493123   0.000000
   16  C  2  S    0.000000   0.011404   0.000000   0.000000   0.014769
   17  C  2  S    0.000000   0.379136   0.000000   0.000000   0.083316
   18  C  2  X    0.000000  -0.137648   0.000000   0.000000  -0.020497
   19  C  2  Y    0.000000   0.052022   0.000000   0.000000   0.090713
   20  C  2  Z   -0.170109   0.000000   0.054941   0.117163   0.000000
   21  C  2  S    0.000000  -3.183202   0.000000   0.000000  -0.238378
   22  C  2  X    0.000000  -0.986637   0.000000   0.000000  -0.992731
   23  C  2  Y    0.000000  -2.968323   0.000000   0.000000   1.189592
   24  C  2  Z    0.117522   0.000000  -0.001122   0.130889   0.000000
   25  C  2 XX    0.000000  -0.079847   0.000000   0.000000   0.014804
   26  C  2 YY    0.000000   0.059765   0.000000   0.000000  -0.393424
   27  C  2 ZZ    0.000000  -0.055213   0.000000   0.000000   0.411929
   28  C  2 XY    0.000000  -0.076765   0.000000   0.000000  -0.346520
   29  C  2 XZ    0.062388   0.000000  -0.038427  -0.002286   0.000000
   30  C  2 YZ    0.688780   0.000000  -0.153548  -0.225477   0.000000
   31  O  3  S    0.000000  -0.117934   0.000000   0.000000  -0.008155
   32  O  3  S    0.000000  -1.580139   0.000000   0.000000   0.007674
   33  O  3  X    0.000000   0.307360   0.000000   0.000000  -0.225539
   34  O  3  Y    0.000000  -0.050988   0.000000   0.000000   0.153350
   35  O  3  Z    0.010867   0.000000   0.045535   0.050021   0.000000
   36  O  3  S    0.000000   5.113705   0.000000   0.000000   0.269295
   37  O  3  X    0.000000  -1.722463   0.000000   0.000000   0.130212
   38  O  3  Y    0.000000   0.282708   0.000000   0.000000  -0.643956
   39  O  3  Z   -0.128259   0.000000  -0.021107  -0.110638   0.000000
   40  O  3 XX    0.000000  -0.614084   0.000000   0.000000  -0.464527
   41  O  3 YY    0.000000  -0.573122   0.000000   0.000000   0.143239
   42  O  3 ZZ    0.000000  -0.095713   0.000000   0.000000   0.349318
   43  O  3 XY    0.000000   0.059483   0.000000   0.000000   0.409675
   44  O  3 XZ   -0.357366   0.000000   0.437772  -0.082264   0.000000
   45  O  3 YZ    0.115247   0.000000  -0.350734   0.830056   0.000000
   46  H  4  S    0.000000  -0.468842   0.000000   0.000000   0.120961
   47  H  4  S    0.000000  -0.270578   0.000000   0.000000   0.097856
   48  H  5  S    0.000000  -0.385020   0.000000   0.000000   0.629079
   49  H  5  S    0.000000  -0.776915   0.000000   0.000000   0.516193
   50  H  6  S    0.000000   0.188137   0.000000   0.000000   0.094275
   51  H  6  S    0.000000   0.450407   0.000000   0.000000  -0.013863
   52  H  7  S    0.000000  -0.415862   0.000000   0.000000   0.310409
   53  H  7  S    0.000000  -0.652448   0.000000   0.000000   0.055522

                     41         42         43         44         45
                    2.2100     2.2904     2.4720     2.5603     2.6471
                     A          A          A          A          A   
    1  C  1  S   -0.023420  -0.003694   0.002776   0.000000  -0.065980
    2  C  1  S   -0.314015  -0.043518   0.014935   0.000000  -0.275983
    3  C  1  X   -0.306888  -0.131258   0.020647   0.000000   0.032717
    4  C  1  Y    0.165631  -0.205325   0.059686   0.000000   0.008604
    5  C  1  Z    0.000000   0.000000   0.000000  -0.051041   0.000000
    6  C  1  S   -0.172072   0.343452  -0.194341   0.000000   2.169800
    7  C  1  X   -0.394909   0.009598   0.507342   0.000000   0.942543
    8  C  1  Y   -0.336677  -0.362140   0.134412   0.000000  -0.111588
    9  C  1  Z    0.000000   0.000000   0.000000  -0.257402   0.000000
   10  C  1 XX    0.265765   0.485434   0.005351   0.000000   0.172057
   11  C  1 YY    0.208947  -0.506287  -0.459287   0.000000   0.434495
   12  C  1 ZZ   -0.635683  -0.019445   0.308038   0.000000  -0.776663
   13  C  1 XY   -0.013980   0.270536  -0.747295   0.000000  -0.289005
   14  C  1 XZ    0.000000   0.000000   0.000000  -0.673113   0.000000
   15  C  1 YZ    0.000000   0.000000   0.000000   0.152593   0.000000
   16  C  2  S   -0.043561   0.005808  -0.023291   0.000000   0.029458
   17  C  2  S   -0.400326   0.075398  -0.347181   0.000000   0.266445
   18  C  2  X   -0.021965   0.023910   0.165236   0.000000   0.440996
   19  C  2  Y   -0.080878  -0.181108  -0.148937   0.000000   0.013192
   20  C  2  Z    0.000000   0.000000   0.000000   0.170814   0.000000
   21  C  2  S    1.135627  -0.159713   0.100011   0.000000  -1.578835
   22  C  2  X   -0.144658   0.166228  -0.361544   0.000000   0.620556
   23  C  2  Y    0.945836  -0.300354  -0.534138   0.000000  -0.880145
   24  C  2  Z    0.000000   0.000000   0.000000   0.404630   0.000000
   25  C  2 XX    0.323630  -0.395084   0.188650   0.000000  -0.086531
   26  C  2 YY    0.100451   0.488951  -0.119618   0.000000  -0.372707
   27  C  2 ZZ   -0.621768  -0.031174  -0.288127   0.000000   0.407627
   28  C  2 XY   -0.159794  -0.429232  -0.298167   0.000000  -0.345284
   29  C  2 XZ    0.000000   0.000000   0.000000  -0.023790   0.000000
   30  C  2 YZ    0.000000   0.000000   0.000000   0.738568   0.000000
   31  O  3  S    0.001730  -0.023536  -0.019104   0.000000  -0.004678
   32  O  3  S    0.030661   0.254679  -0.361618   0.000000   0.192225
   33  O  3  X    0.020014  -0.261875   0.083023   0.000000  -0.173238
   34  O  3  Y    0.112117  -0.187824  -0.036435   0.000000  -0.142861
   35  O  3  Z    0.000000   0.000000   0.000000   0.086656   0.000000
   36  O  3  S   -0.344104  -0.119964   1.014917   0.000000  -0.070673
   37  O  3  X    0.240549   0.088001  -0.370309   0.000000   0.107820
   38  O  3  Y   -0.030067   0.343964   0.359196   0.000000   0.391620
   39  O  3  Z    0.000000   0.000000   0.000000  -0.303853   0.000000
   40  O  3 XX   -0.191040   0.000931   0.215121   0.000000   0.141423
   41  O  3 YY    0.363326   0.098495   0.033171   0.000000  -0.275590
   42  O  3 ZZ   -0.208886  -0.019489  -0.391312   0.000000   0.213555
   43  O  3 XY    0.386469  -0.159583  -0.257460   0.000000  -0.493899
   44  O  3 XZ    0.000000   0.000000   0.000000   0.633037   0.000000
   45  O  3 YZ    0.000000   0.000000   0.000000   0.066033   0.000000
   46  H  4  S   -0.192426  -0.210461  -0.405588   0.000000   0.076261
   47  H  4  S   -0.093290   0.057236  -0.079472   0.000000  -0.128604
   48  H  5  S    0.042571  -0.527339  -0.097501   0.000000   0.148797
   49  H  5  S    0.196930   0.040435  -0.281053   0.000000  -0.304122
   50  H  6  S   -0.289722  -0.469878   0.599629   0.000000  -0.087819
   51  H  6  S   -0.218932   0.017460   0.040374   0.000000   0.051400
   52  H  7  S   -0.107947   0.530572   0.227832   0.000000  -0.486095
   53  H  7  S    0.092328  -0.057844  -0.053889   0.000000  -0.046932

                     46         47         48         49         50
                    2.7688     2.8631     3.0016     3.1710     3.3183
                     A          A          A          A          A   
    1  C  1  S    0.013459   0.000000   0.040280  -0.037856  -0.021663
    2  C  1  S   -0.025224   0.000000  -0.018240   0.309199   0.141287
    3  C  1  X   -0.118014   0.000000  -0.262977   0.589162   0.226546
    4  C  1  Y    0.097312   0.000000   0.091459  -0.298794  -0.230043
    5  C  1  Z    0.000000   0.125850   0.000000   0.000000   0.000000
    6  C  1  S    0.123948   0.000000  -1.528816   1.416666   0.415363
    7  C  1  X   -0.072857   0.000000  -0.589549   0.689182   0.382749
    8  C  1  Y    0.320882   0.000000   0.260607  -0.566488   0.348665
    9  C  1  Z    0.000000   0.105363   0.000000   0.000000   0.000000
   10  C  1 XX   -0.442123   0.000000  -0.740351   0.593891  -0.222637
   11  C  1 YY    0.323782   0.000000   0.484186  -0.190679   0.393776
   12  C  1 ZZ    0.116468   0.000000   0.307374  -0.337267  -0.166709
   13  C  1 XY    0.326384   0.000000  -0.188093  -0.586412  -0.582498
   14  C  1 XZ    0.000000   0.492093   0.000000   0.000000   0.000000
   15  C  1 YZ    0.000000  -0.378743   0.000000   0.000000   0.000000
   16  C  2  S    0.034171   0.000000  -0.056690   0.048200   0.081076
   17  C  2  S    0.228110   0.000000   0.378596  -0.018995  -0.742945
   18  C  2  X   -0.379202   0.000000   0.368190   0.839561  -0.329410
   19  C  2  Y    0.196199   0.000000   0.365066  -0.110858  -0.314659
   20  C  2  Z    0.000000  -0.005218   0.000000   0.000000   0.000000
   21  C  2  S   -0.784099   0.000000   2.283076  -1.187972  -1.651098
   22  C  2  X   -0.312850   0.000000  -0.101924   1.120915  -0.710716
   23  C  2  Y   -0.675892   0.000000   0.901205  -0.224322  -0.503444
   24  C  2  Z    0.000000   0.025829   0.000000   0.000000   0.000000
   25  C  2 XX   -0.003536   0.000000   0.075379  -0.369823  -1.031157
   26  C  2 YY   -0.111305   0.000000   0.578735   0.172949   0.798286
   27  C  2 ZZ    0.381889   0.000000  -0.615962   0.324700   0.591237
   28  C  2 XY   -0.355977   0.000000  -0.163247   0.996876  -0.281240
   29  C  2 XZ    0.000000   0.981739   0.000000   0.000000   0.000000
   30  C  2 YZ    0.000000  -0.005727   0.000000   0.000000   0.000000
   31  O  3  S   -0.054223   0.000000   0.036818   0.011752  -0.057802
   32  O  3  S   -0.523916   0.000000   0.721398   0.136527  -0.387369
   33  O  3  X   -0.018160   0.000000  -0.142975   0.070209  -0.151014
   34  O  3  Y   -0.093521   0.000000  -0.046555  -0.032645  -0.025018
   35  O  3  Z    0.000000   0.021777   0.000000   0.000000   0.000000
   36  O  3  S    1.868650   0.000000  -2.008173  -0.587089   1.850627
   37  O  3  X   -0.591007   0.000000   1.124871   0.426769  -0.963630
   38  O  3  Y    0.685575   0.000000   0.222760   0.512107  -0.765611
   39  O  3  Z    0.000000  -0.245800   0.000000   0.000000   0.000000
   40  O  3 XX   -0.232774   0.000000  -0.616727  -0.708176   0.453314
   41  O  3 YY    0.761709   0.000000   0.246465   0.673897  -0.210432
   42  O  3 ZZ   -0.773674   0.000000   0.578560   0.018178  -0.374012
   43  O  3 XY   -0.192815   0.000000  -0.272981  -0.178931   0.782005
   44  O  3 XZ    0.000000   0.570129   0.000000   0.000000   0.000000
   45  O  3 YZ    0.000000   0.343881   0.000000   0.000000   0.000000
   46  H  4  S   -1.145797   0.000000   0.112037  -0.470432   0.174145
   47  H  4  S    0.036543   0.000000  -0.041114  -0.028196   0.129059
   48  H  5  S    0.090382   0.000000  -0.387887   0.021232  -0.262437
   49  H  5  S   -0.174822   0.000000   0.316306   0.000243   0.151341
   50  H  6  S   -0.004399   0.000000   0.361131  -0.003543   0.286178
   51  H  6  S   -0.000321   0.000000  -0.064979   0.022851   0.028228
   52  H  7  S   -0.237310   0.000000  -0.209804   0.064281  -0.276772
   53  H  7  S   -0.053681   0.000000   0.127513   0.119690  -0.123418

                     51         52         53
                    4.2110     4.5305     4.7279
                     A          A          A   
    1  C  1  S    0.010372  -0.367694   0.294168
    2  C  1  S   -0.063971   2.497687  -1.725598
    3  C  1  X    0.051030   0.079104   0.358534
    4  C  1  Y   -0.038247  -0.055373  -0.213091
    5  C  1  Z    0.000000   0.000000   0.000000
    6  C  1  S    0.103909   1.111423  -1.808205
    7  C  1  X    0.382867  -0.073502  -0.187147
    8  C  1  Y    0.571876   0.154143   0.244574
    9  C  1  Z    0.000000   0.000000   0.000000
   10  C  1 XX    0.088912  -1.451794   1.428519
   11  C  1 YY   -0.019423  -1.428161   1.243486
   12  C  1 ZZ    0.077980  -1.426693   1.076706
   13  C  1 XY    0.003338  -0.033683  -0.251310
   14  C  1 XZ    0.000000   0.000000   0.000000
   15  C  1 YZ    0.000000   0.000000   0.000000
   16  C  2  S   -0.020289  -0.277735  -0.370890
   17  C  2  S    0.097066   1.935514   2.252242
   18  C  2  X    0.027107  -0.230578   0.125672
   19  C  2  Y    0.018615   0.023926  -0.246267
   20  C  2  Z    0.000000   0.000000   0.000000
   21  C  2  S   -1.495768   0.348107   1.539707
   22  C  2  X   -1.062368  -0.156464  -0.540586
   23  C  2  Y   -0.932514  -0.194681  -0.071162
   24  C  2  Z    0.000000   0.000000   0.000000
   25  C  2 XX    0.054769  -1.208091  -2.011258
   26  C  2 YY   -0.152921  -1.073572  -1.495315
   27  C  2 ZZ    0.035430  -1.053402  -1.320521
   28  C  2 XY    0.047618  -0.108414   0.100467
   29  C  2 XZ    0.000000   0.000000   0.000000
   30  C  2 YZ    0.000000   0.000000   0.000000
   31  O  3  S   -0.535675  -0.010571  -0.001528
   32  O  3  S   -0.170683  -0.055266  -0.131752
   33  O  3  X    0.201178  -0.083267  -0.105615
   34  O  3  Y    0.003863  -0.021887  -0.038541
   35  O  3  Z    0.000000   0.000000   0.000000
   36  O  3  S    5.675743   0.263490   0.268132
   37  O  3  X   -0.990132  -0.220362  -0.324888
   38  O  3  Y   -0.073051  -0.157375  -0.216870
   39  O  3  Z    0.000000   0.000000   0.000000
   40  O  3 XX   -1.638230   0.155585   0.306840
   41  O  3 YY   -1.764387   0.000618   0.083988
   42  O  3 ZZ   -1.864306  -0.071193  -0.110947
   43  O  3 XY    0.064311   0.160978   0.234005
   44  O  3 XZ    0.000000   0.000000   0.000000
   45  O  3 YZ    0.000000   0.000000   0.000000
   46  H  4  S    0.039687   0.007924  -0.026920
   47  H  4  S   -0.538982   0.025252   0.050099
   48  H  5  S    0.075622   0.112213   0.119956
   49  H  5  S   -0.251577  -0.258033  -0.374796
   50  H  6  S    0.080143   0.162550  -0.057844
   51  H  6  S    0.201508  -0.328145   0.298720
   52  H  7  S   -0.075962   0.126214  -0.106287
   53  H  7  S   -0.192881  -0.391531   0.220337
 ...... END OF RHF CALCULATION ......
 STEP CPU TIME =     0.10 TOTAL CPU TIME =          0.2 (      0.0 MIN)
 TOTAL WALL CLOCK TIME=          0.2 SECONDS, CPU UTILIZATION IS    80.00%

     ----------------------------------------------------------------
     PROPERTY VALUES FOR THE RHF   SELF-CONSISTENT FIELD WAVEFUNCTION
     ----------------------------------------------------------------

          -----------------
          ENERGY COMPONENTS
          -----------------

         WAVEFUNCTION NORMALIZATION =       1.0000000000

                ONE ELECTRON ENERGY =    -346.6068343338
                TWO ELECTRON ENERGY =     123.6177780249
           NUCLEAR REPULSION ENERGY =      70.1017152750
                                      ------------------
                       TOTAL ENERGY =    -152.8873410339

 ELECTRON-ELECTRON POTENTIAL ENERGY =     123.6177780249
  NUCLEUS-ELECTRON POTENTIAL ENERGY =    -499.0711279362
   NUCLEUS-NUCLEUS POTENTIAL ENERGY =      70.1017152750
                                      ------------------
             TOTAL POTENTIAL ENERGY =    -305.3516346362
               TOTAL KINETIC ENERGY =     152.4642936023
                 VIRIAL RATIO (V/T) =       2.0027747312

  ...... PI ENERGY ANALYSIS ......

 ENERGY ANALYSIS:
            FOCK ENERGY=    -99.3712786584
          BARE H ENERGY=   -346.6068343338
     ELECTRONIC ENERGY =   -222.9890564961
         KINETIC ENERGY=    152.4642936023
          N-N REPULSION=     70.1017152750
           TOTAL ENERGY=   -152.8873412211
        SIGMA PART(1+2)=   -202.4838139132
               (K,V1,2)=    145.9251736188   -453.3553505158    104.9463629838
           PI PART(1+2)=    -20.5052425829
               (K,V1,2)=      6.5391199835    -45.7157774203     18.6714148539
  SIGMA SKELETON, ERROR=   -132.3820986382      0.0000000000
             MIXED PART= 0.00000E+00 0.00000E+00 0.00000E+00 0.00000E+00
 ...... END OF PI ENERGY ANALYSIS ......

          ---------------------------------------
          MULLIKEN AND LOWDIN POPULATION ANALYSES
          ---------------------------------------

     ATOMIC MULLIKEN POPULATION IN EACH MOLECULAR ORBITAL

                      1          2          3          4          5

                  2.000000   2.000000   2.000000   2.000000   2.000000

    1            -0.000017   0.001267   1.998022   0.025725   0.894836
    2            -0.000036   1.998919   0.001180   0.226160   0.743695
    3             2.000048  -0.000606  -0.000002   1.650621   0.163228
    4            -0.000000   0.000001   0.000001   0.095298   0.020400
    5             0.000005   0.000411   0.000000   0.001690   0.048056
    6             0.000000  -0.000005   0.000390   0.000559   0.074678
    7             0.000000   0.000014   0.000409  -0.000052   0.055107

                      6          7          8          9         10

                  2.000000   2.000000   2.000000   2.000000   2.000000

    1             0.328532   0.648157   0.350545   0.075010   0.484130
    2             0.501195   0.251853   0.583592   0.337611   0.173567
    3             0.659149   0.623093   0.624537   1.587380   0.946171
    4             0.169998   0.128979   0.016767   0.000000   0.046619
    5             0.164921   0.005896   0.231436   0.000000   0.018242
    6             0.065017   0.175610   0.097414   0.000000   0.300300
    7             0.111187   0.166413   0.095710   0.000000   0.030972

                     11         12

                  2.000000   2.000000

    1             0.602319   1.093223
    2             0.384183   0.588892
    3             0.142361   0.317884
    4             0.069497   0.000000
    5             0.328165   0.000000
    6             0.099696   0.000000
    7             0.373778   0.000000

               ----- POPULATIONS IN EACH AO -----
                             MULLIKEN      LOWDIN
              1  C  1  S      1.99639     1.98105
              2  C  1  S      0.64197     0.35195
              3  C  1  X      0.72711     0.64751
              4  C  1  Y      0.70065     0.62591
              5  C  1  Z      0.58620     0.55757
              6  C  1  S      0.59413     0.33815
              7  C  1  X      0.28489     0.39625
              8  C  1  Y      0.33619     0.45504
              9  C  1  Z      0.57445     0.59327
             10  C  1 XX      0.02854     0.18599
             11  C  1 YY      0.03112     0.17659
             12  C  1 ZZ     -0.01966     0.10166
             13  C  1 XY      0.01218     0.02109
             14  C  1 XZ      0.00582     0.00808
             15  C  1 YZ      0.00176     0.00242
             16  C  2  S      1.99657     1.97896
             17  C  2  S      0.67496     0.35239
             18  C  2  X      0.66690     0.58705
             19  C  2  Y      0.72204     0.64330
             20  C  2  Z      0.50274     0.45485
             21  C  2  S      0.42998     0.29576
             22  C  2  X      0.05930     0.26280
             23  C  2  Y      0.24992     0.38550
             24  C  2  Z      0.39979     0.45097
             25  C  2 XX      0.03143     0.19821
             26  C  2 YY      0.03340     0.18450
             27  C  2 ZZ     -0.02157     0.09717
             28  C  2 XY      0.02138     0.03885
             29  C  2 XZ      0.02102     0.04224
             30  C  2 YZ      0.00295     0.00478
             31  O  3  S      1.99531     1.97721
             32  O  3  S      0.90419     0.70786
             33  O  3  X      0.92538     0.87483
             34  O  3  Y      0.85068     0.79450
             35  O  3  Z      1.11919     1.09296
             36  O  3  S      0.90795     0.44455
             37  O  3  X      0.60920     0.62848
             38  O  3  Y      0.54689     0.57834
             39  O  3  Z      0.78117     0.78394
             40  O  3 XX      0.01780     0.18070
             41  O  3 YY      0.04254     0.20253
             42  O  3 ZZ      0.00355     0.16270
             43  O  3 XY      0.00509     0.00897
             44  O  3 XZ      0.00448     0.00756
             45  O  3 YZ      0.00042     0.00135
             46  H  4  S      0.45421     0.42656
             47  H  4  S      0.09335     0.20164
             48  H  5  S      0.52937     0.49400
             49  H  5  S      0.26946     0.34121
             50  H  6  S      0.51832     0.47542
             51  H  6  S      0.29534     0.35021
             52  H  7  S      0.51975     0.48053
             53  H  7  S      0.31379     0.36412

          ----- MULLIKEN ATOMIC OVERLAP POPULATIONS -----
          (OFF-DIAGONAL ELEMENTS NEED TO BE MULTIPLIED BY 2)

             1           2           3           4           5

    1    5.1795819
    2    0.6445609   4.5705982
    3   -0.0540592   0.2771519   8.2693319
    4   -0.0000921  -0.0328566   0.2612169   0.3103045
    5   -0.0468504   0.4022741  -0.0391836   0.0048628   0.4755949
    6    0.3855098  -0.0279327   0.0020941   0.0000683  -0.0004367
    7    0.3930959  -0.0429851  -0.0026891   0.0040558   0.0025610

             6           7

    6    0.4763841
    7   -0.0220277   0.5015278

          TOTAL MULLIKEN AND LOWDIN ATOMIC POPULATIONS
       ATOM         MULL.POP.    CHARGE          LOW.POP.     CHARGE
    1 C             6.501747   -0.501747         6.442513   -0.442513
    2 C             5.790811    0.209189         5.977334    0.022666
    3 O             8.713863   -0.713863         8.446471   -0.446471
    4 H             0.547560    0.452440         0.628195    0.371805
    5 H             0.798822    0.201178         0.835203    0.164797
    6 H             0.813659    0.186341         0.825636    0.174364
    7 H             0.833539    0.166461         0.844648    0.155352

          -------------------------------
          BOND ORDER AND VALENCE ANALYSIS     BOND ORDER THRESHOLD=0.050
          -------------------------------

                   BOND                       BOND                       BOND
  ATOM PAIR DIST  ORDER      ATOM PAIR DIST  ORDER      ATOM PAIR DIST  ORDER
    1   2  1.335  1.888        1   6  1.084  0.948        1   7  1.088  0.956
    2   3  1.363  0.952        2   5  1.087  0.944        3   4  0.972  0.757

                       TOTAL       BONDED        FREE
      ATOM            VALENCE     VALENCE     VALENCE
    1 C                 3.827       3.827       0.000
    2 C                 3.756       3.756      -0.000
    3 O                 1.757       1.757       0.000
    4 H                 0.769       0.769       0.000
    5 H                 0.927       0.927       0.000
    6 H                 0.941       0.941       0.000
    7 H                 0.943       0.943       0.000

          ---------------------
          ELECTROSTATIC MOMENTS
          ---------------------

 POINT   1           X           Y           Z (BOHR)    CHARGE
                -0.000000    0.000000    0.000000        0.00 (A.U.)
         DX          DY          DZ         /D/  (DEBYE)
    -0.722273    0.844061    0.000000    1.110908
 ...... END OF PROPERTY EVALUATION ......
 STEP CPU TIME =     0.01 TOTAL CPU TIME =          0.2 (      0.0 MIN)
 TOTAL WALL CLOCK TIME=          0.3 SECONDS, CPU UTILIZATION IS    80.77%

 --------------------------   -----------------------------
 RHF-MP2 ENERGY CALCULATION   PROGRAM WRITTEN BY K.ISHIMURA
 --------------------------   -----------------------------
 NUMBER OF OCCUPIED ORBITALS            =   12
 NUMBER OF CORRELATED OCCUPIED ORBITALS =    9
 NUMBER OF VIRTUAL ORBITALS             =   41
 NUMBER OF BASIS FUNCTIONS              =   53
 NUMBER OF BASIS SHELLS                 =   20
 AO-TRANSFORMED INTEGRAL THRESHOLD      = 1.00E-09
 HALF-TRANSFORMED INTEGRAL THRESHOLD    = 3.10E-11
 TOTAL DISK REQUIRED (ALL PROCESSORS)=              0 MBYTES
                  DISK SPACE PER CORE=              0 MBYTES, USING P=    1
 MEMORY REQUIRED FOR TRANSFORMATION OF 1ST THREE INDICES=       53041
 MEMORY REQUIRED FOR    4TH INDEX TRANSF. AND MP2 ENERGY=      109571
 BEGINNING MP2 INTEGRAL TRANSFORMATION...
 BEGINNING    1ST SHELL LOOP...

 RESULTS OF MOLLER-PLESSET 2ND ORDER CORRECTION ARE
               E(0)=      -152.8873410339
               E(1)=         0.0
               E(2)=        -0.4326471216
             E(MP2)=      -153.3199881554
 SPIN-COMPONENT-SCALED MP2 RESULTS ARE
              E(2S)=        -0.3236079141
              E(2T)=        -0.1090392075
             E(2ST)=        -0.4246758994 = 6/5 * E(2S) + 1/3 * E(2T)
            SCS-MP2=      -153.3120169333
 ..... DONE WITH MP2 ENERGY .....
 STEP CPU TIME =     0.37 TOTAL CPU TIME =          0.6 (      0.0 MIN)
 TOTAL WALL CLOCK TIME=          0.7 SECONDS, CPU UTILIZATION IS    85.29%
                580000  WORDS OF DYNAMIC MEMORY USED
 EXECUTION OF GAMESS TERMINATED NORMALLY Thu Oct 17 19:35:09 2019
 DDI: 263640 bytes (0.3 MB / 0 MWords) used by master data server.

 ----------------------------------------
 CPU timing information for all processes
 ========================================
 0: 0.474 + 0.120 = 0.595
 ----------------------------------------
 ddikick.x: exited gracefully.
----- accounting info -----
Files used on the master node crcfe01.crc.nd.edu were:
-rw-r--r-- 1 cdrisko campus     414 Oct 17 19:35 /afs/crc.nd.edu/user/c/cdrisko/vinylAlcohol_MP2.F05
-rw-r--r-- 1 cdrisko campus   47277 Oct 17 19:35 /afs/crc.nd.edu/user/c/cdrisko/vinylAlcohol_MP2.F07
-rw-r--r-- 1 cdrisko campus 6660592 Oct 17 19:35 /afs/crc.nd.edu/user/c/cdrisko/vinylAlcohol_MP2.F08
-rw-r--r-- 1 cdrisko campus 1537840 Oct 17 19:35 /afs/crc.nd.edu/user/c/cdrisko/vinylAlcohol_MP2.F10
Thu Oct 17 19:35:12 EDT 2019
0.317u 0.137s 0:04.13 10.6%	0+0k 0+112io 0pf+0w
