----- GAMESS execution script 'rungms' -----
This job is running on host crcfe01.crc.nd.edu
under operating system Linux at Thu Oct 17 19:22:43 EDT 2019
Available scratch disk space (Kbyte units) at beginning of the job is
Filesystem      1K-blocks  Used  Available Use% Mounted on
AFS            2147483647     0 2147483647   0% /afs
GAMESS temporary binary files will be written to /afs/crc.nd.edu/user/c/cdrisko
GAMESS supplementary output files will be written to /afs/crc.nd.edu/user/c/cdrisko/scr
Copying input file vinylAlcohol_vib2.inp to your run's scratch directory...

 Distributed Data Interface kickoff program.
 Initiating 1 compute processes on 1 nodes to run the following command:
 /afs/crc.nd.edu/x86_64_linux/g/gamess/nov-2017/gamess/gamess.00.x vinylAlcohol_vib2 

          ******************************************************
          *         GAMESS VERSION = 11 NOV 2017 (R3)         *
          *             FROM IOWA STATE UNIVERSITY             *
          * M.W.SCHMIDT, K.K.BALDRIDGE, J.A.BOATZ, S.T.ELBERT, *
          *   M.S.GORDON, J.H.JENSEN, S.KOSEKI, N.MATSUNAGA,   *
          *          K.A.NGUYEN, S.J.SU, T.L.WINDUS,           *
          *       TOGETHER WITH M.DUPUIS, J.A.MONTGOMERY       *
          *         J.COMPUT.CHEM.  14, 1347-1363(1993)        *
          **************** 64 BIT INTEL VERSION ****************

  SINCE 1993, STUDENTS AND POSTDOCS WORKING AT IOWA STATE UNIVERSITY
  AND ALSO IN THEIR VARIOUS JOBS AFTER LEAVING ISU HAVE MADE IMPORTANT
  CONTRIBUTIONS TO THE CODE:
     IVANA ADAMOVIC, CHRISTINE AIKENS, YURI ALEXEEV, POOJA ARORA,
     ANDREY ASADCHEV, ROB BELL, PRADIPTA BANDYOPADHYAY, JONATHAN BENTZ,
     BRETT BODE, KURT BRORSEN, CALEB CARLIN, GALINA CHABAN, WEI CHEN,
     CHEOL HO CHOI, PAUL DAY, ALBERT DEFUSCO, NUWAN DESILVA, TIM DUDLEY,
     DMITRI FEDOROV, ALEX FINDLATER, GRAHAM FLETCHER, MARK FREITAG,
     KURT GLAESEMANN, ANASTASIA GUININA,
     DAN KEMP, GRANT MERRILL, NORIYUKI MINEZAWA, JONATHAN MULLIN,
     TAKESHI NAGATA, SEAN NEDD, HEATHER NETZLOFF, BOSILJKA NJEGIC, RYAN OLSON,
     MIKE PAK, BUU PHAM,
     SPENCER PRUITT, LUKE ROSKOP, JIM SHOEMAKER, LYUDMILA SLIPCHENKO,
     TONY SMITH, SAROM SOK LEANG, JIE SONG, TETSUYA TAKETSUGU, SIMON WEBB,
     PENG XU, SOOHAENG YOO, FEDERICO ZAHARIEV

  ADDITIONAL CODE HAS BEEN PROVIDED BY COLLABORATORS IN OTHER GROUPS:
     IOWA STATE UNIVERSITY:
          JOE IVANIC, AARON WEST, LAIMUTIS BYTAUTAS, KLAUS RUEDENBERG
     UNIVERSITY OF TOKYO: KIMIHIKO HIRAO, TAKAHITO NAKAJIMA,
          TAKAO TSUNEDA, MUNEAKI KAMIYA, SUSUMU YANAGISAWA,
          KIYOSHI YAGI, MAHITO CHIBA, SEIKEN TOKURA, NAOAKI KAWAKAMI
     UNIVERSITY OF AARHUS: FRANK JENSEN
     UNIVERSITY OF IOWA: VISVALDAS KAIRYS, HUI LI
     NATIONAL INST. OF STANDARDS AND TECHNOLOGY: WALT STEVENS, DAVID GARMER
     UNIVERSITY OF PISA: BENEDETTA MENNUCCI, JACOPO TOMASI
     UNIVERSITY OF MEMPHIS: HENRY KURTZ, PRAKASHAN KORAMBATH
     UNIVERSITY OF ALBERTA: TOBY ZENG, MARIUSZ KLOBUKOWSKI
     UNIVERSITY OF NEW ENGLAND: MARK SPACKMAN
     MIE UNIVERSITY: HIROAKI UMEDA
     NAT. INST. OF ADVANCED INDUSTRIAL SCIENCE AND TECHNOLOGY: KAZUO KITAURA
     MICHIGAN STATE UNIVERSITY:
          KAROL KOWALSKI, MARTA WLOCH, JEFFREY GOUR, JESSE LUTZ,
          WEI LI, PIOTR PIECUCH
     UNIVERSITY OF SILESIA: MONIKA MUSIAL, STANISLAW KUCHARSKI
     FACULTES UNIVERSITAIRES NOTRE-DAME DE LA PAIX:
          OLIVIER QUINET, BENOIT CHAMPAGNE
     UNIVERSITY OF CALIFORNIA - SANTA BARBARA: BERNARD KIRTMAN
     INSTITUTE FOR MOLECULAR SCIENCE:
          KAZUYA ISHIMURA, MICHIO KATOUDA, AND SHIGERU NAGASE
     UNIVERSITY OF NOTRE DAME: ANNA POMOGAEVA, DAN CHIPMAN
     KYUSHU UNIVERSITY:
          HARUYUKI NAKANO,
          FENG LONG GU, JACEK KORCHOWIEC, MARCIN MAKOWSKI, AND YURIKO AOKI,
          HIROTOSHI MORI AND EISAKU MIYOSHI
     PENNSYLVANIA STATE UNIVERSITY:
          TZVETELIN IORDANOV, CHET SWALINA, JONATHAN SKONE,
          SHARON HAMMES-SCHIFFER
     WASEDA UNIVERSITY:
          MASATO KOBAYASHI, TOMOKO AKAMA, TSUGUKI TOUMA,
          TAKESHI YOSHIKAWA, YASUHIRO IKABATA, JUNJI SEINO,
          YUYA NAKAJIMA, HIROMI NAKAI
     NANJING UNIVERSITY: SHUHUA LI
     UNIVERSITY OF NEBRASKA:
          PEIFENG SU, DEJUN SI, NANDUN THELLAMUREGE, YALI WANG, HUI LI
     UNIVERSITY OF ZURICH: ROBERTO PEVERATI, KIM BALDRIDGE
     N. COPERNICUS UNIVERSITY AND JACKSON STATE UNIVERSITY:
          MARIA BARYSZ
     UNIVERSITY OF COPENHAGEN: Jimmy Kromann, CASPER STEINMANN
     TOKYO INSTITUTE OF TECHNOLOGY: HIROYA NAKATA
     NAGOYA UNIVERSITY: YOSHIO NISHIMOTO, STEPHAN IRLE
     MOSCOW STATE UNIVERSITY: VLADIMIR MIRONOV

 EXECUTION OF GAMESS BEGUN Thu Oct 17 19:22:43 2019

            ECHO OF THE FIRST FEW INPUT CARDS -
 INPUT CARD> $CONTRL SCFTYP= RHF RUNTYP=HESSIAN DFTTYP=B3LYP                                
 INPUT CARD>       ISPHER=1 MULT=1 COORD=CART $END                                          
 INPUT CARD> $SCF DIRSCF=.TRUE. $END                                                        
 INPUT CARD> $BASIS GBASIS=N31 NGAUSS=6 NDFUNC=1 $END                                       
 INPUT CARD> $FORCE METHOD=SEMINUM $END                                                     
 INPUT CARD> $DATA                                                                          
 INPUT CARD>C2H4O                                                                           
 INPUT CARD>CS 1                                                                            
 INPUT CARD>                                                                                
 INPUT CARD>C 6 0.00000000 0.00000000 0.00000000                                            
 INPUT CARD>C 6 1.17338174 -0.63572312 0.00000000                                           
 INPUT CARD>O 8 2.41561448 -0.07389838 0.00000000                                           
 INPUT CARD>H 1 2.31918447 0.89312579 0.00000000                                            
 INPUT CARD>H 1 1.25397864 -1.71939043 0.00000000                                           
 INPUT CARD>H 1 -0.92534591 -0.56421582 0.00000000                                          
 INPUT CARD>H 1 -0.07421899 1.08564201 0.00000000                                           
 INPUT CARD> $END                                                                           
    1000000 WORDS OF MEMORY AVAILABLE


                    * * * WARNING * * *
 OLD KEYWORD COORD=CART SELECTED, AUTOMATICALLY CHANGED TO COORD=PRINAXIS.
 YOUR MOLECULE'S COORDINATES WILL BE CHANGED TO PRINCIPAL AXES BY
   A) TRANSLATION TO THE CENTER OF MASS, THEN
   B) ROTATION TO HAVE A DIAGONAL MOMENT OF INERTIA TENSOR.

 HOWEVER, NOTHING ELSE IN YOUR INPUT WILL BE ROTATED IN THE SAME WAY,
 SO IF YOU HAVE A $VEC, $VIB, $GRAD, $HESS, EFP PARTICLE COORDINATES,
 OR ANYTHING ELSE THAT DEPENDS ON THE INITIAL ORIENTATION, THAT DATA
 WILL NOT BE USED CORRECTLY IN THIS RUN.

 THE PURPOSE OF COORD=PRINAXIS IS TO BE USED ONCE, ONLY AT THE VERY
 BEGINNING OF A SERIES OF COMPUTATIONS, PERHAPS TO FIND THE SYMMETRY
 UNIQUE ATOMS FROM AN ARBITRARY INITIAL ORIENTATION.

 AFTER THE FIRST RUN, YOU SHOULD USE ONLY COORD=UNIQUE, TO ENSURE THAT
 THE COORDINATES WHICH YOU READ IN ARE THE COORDINATES THAT ARE USED.


     BASIS OPTIONS
     -------------
     GBASIS=N31          IGAUSS=       6      POLAR=POPN31  
     NDFUNC=       1     NFFUNC=       0     DIFFSP=       F
     NPFUNC=       0      DIFFS=       F     BASNAM=        


     RUN TITLE
     ---------
 C2H4O                                                                           

 THE POINT GROUP OF THE MOLECULE IS CS      
 THE ORDER OF THE PRINCIPAL AXIS IS     1

 THE MOMENTS OF INERTIA ARE (AMU-ANGSTROM**2)
 IXX=     8.341   IYY=    48.239   IZZ=    56.580

 ATOM      ATOMIC                      COORDINATES (BOHR)
           CHARGE         X                   Y                   Z
 C           6.0     2.3740570694       -0.3918489467        0.0000000000
 C           6.0     0.1569318812        0.8099452443        0.0000000000
 O           8.0    -2.1907638465       -0.2512713248        0.0000000000
 H           1.0    -2.0089098283       -2.0787191142        0.0000000000
 H           1.0     0.0050430058        2.8578105068        0.0000000000
 H           1.0     4.1229244522        0.6740080998        0.0000000000
 H           1.0     2.5138926826       -2.4434433958        0.0000000000

          INTERNUCLEAR DISTANCES (ANGS.)
          ------------------------------

                1 C          2 C          3 O          4 H          5 H     

   1 C       0.0000000    1.3345294 *  2.4167446 *  2.4852143 *  2.1280897 *
   2 C       1.3345294 *  0.0000000    1.3633742 *  1.9105609 *  1.0866603 *
   3 O       2.4167446 *  1.3633742 *  0.0000000    0.9718202 *  2.0142100 *
   4 H       2.4852143 *  1.9105609 *  0.9718202 *  0.0000000    2.8213303 *
   5 H       2.1280897 *  1.0866603 *  2.0142100 *  2.8213303 *  0.0000000  
   6 H       1.0837917 *  2.0999455 *  3.3767481    3.5567994    2.4665530 *
   7 H       1.0881760 *  2.1259364 *  2.7465987 *  2.4011336 *  3.1035973  

                6 H          7 H     

   1 C       1.0837917 *  1.0881760 *
   2 C       2.0999455 *  2.1259364 *
   3 O       3.3767481    2.7465987 *
   4 H       3.5567994    2.4011336 *
   5 H       2.4665530 *  3.1035973  
   6 H       0.0000000    1.8564611 *
   7 H       1.8564611 *  0.0000000  

  * ... LESS THAN  3.000


     ATOMIC BASIS SET
     ----------------
 THE CONTRACTED PRIMITIVE FUNCTIONS HAVE BEEN UNNORMALIZED
 THE CONTRACTED BASIS FUNCTIONS ARE NOW NORMALIZED TO UNITY

  SHELL TYPE  PRIMITIVE        EXPONENT          CONTRACTION COEFFICIENT(S)

 C         

      1   S       1          3047.5248800    0.001834737132
      1   S       2           457.3695180    0.014037322813
      1   S       3           103.9486850    0.068842622264
      1   S       4            29.2101553    0.232184443216
      1   S       5             9.2866630    0.467941348435
      1   S       6             3.1639270    0.362311985337

      2   L       7             7.8682723   -0.119332419775    0.068999066591
      2   L       8             1.8812885   -0.160854151696    0.316423960957
      2   L       9             0.5442493    1.143456437840    0.744308290898

      3   L      10             0.1687145    1.000000000000    1.000000000000

      4   D      11             0.8000000    1.000000000000

 C         

      5   S      12          3047.5248800    0.001834737132
      5   S      13           457.3695180    0.014037322813
      5   S      14           103.9486850    0.068842622264
      5   S      15            29.2101553    0.232184443216
      5   S      16             9.2866630    0.467941348435
      5   S      17             3.1639270    0.362311985337

      6   L      18             7.8682723   -0.119332419775    0.068999066591
      6   L      19             1.8812885   -0.160854151696    0.316423960957
      6   L      20             0.5442493    1.143456437840    0.744308290898

      7   L      21             0.1687145    1.000000000000    1.000000000000

      8   D      22             0.8000000    1.000000000000

 O         

      9   S      23          5484.6716600    0.001831074430
      9   S      24           825.2349460    0.013950172200
      9   S      25           188.0469580    0.068445078098
      9   S      26            52.9645000    0.232714335992
      9   S      27            16.8975704    0.470192897984
      9   S      28             5.7996353    0.358520852987

     10   L      29            15.5396162   -0.110777549525    0.070874268231
     10   L      30             3.5999336   -0.148026262701    0.339752839147
     10   L      31             1.0137618    1.130767015354    0.727158577316

     11   L      32             0.2700058    1.000000000000    1.000000000000

     12   D      33             0.8000000    1.000000000000

 H         

     13   S      34            18.7311370    0.033494604338
     13   S      35             2.8253944    0.234726953484
     13   S      36             0.6401217    0.813757326146

     14   S      37             0.1612778    1.000000000000

 H         

     15   S      38            18.7311370    0.033494604338
     15   S      39             2.8253944    0.234726953484
     15   S      40             0.6401217    0.813757326146

     16   S      41             0.1612778    1.000000000000

 H         

     17   S      42            18.7311370    0.033494604338
     17   S      43             2.8253944    0.234726953484
     17   S      44             0.6401217    0.813757326146

     18   S      45             0.1612778    1.000000000000

 H         

     19   S      46            18.7311370    0.033494604338
     19   S      47             2.8253944    0.234726953484
     19   S      48             0.6401217    0.813757326146

     20   S      49             0.1612778    1.000000000000

 TOTAL NUMBER OF BASIS SET SHELLS             =   20
 NUMBER OF CARTESIAN GAUSSIAN BASIS FUNCTIONS =   53
 NOTE: THIS RUN WILL RESTRICT THE MO VARIATION SPACE TO SPHERICAL HARMONICS.
 THE NUMBER OF ORBITALS KEPT IN THE VARIATIONAL SPACE WILL BE PRINTED LATER.
 NUMBER OF ELECTRONS                          =   24
 CHARGE OF MOLECULE                           =    0
 SPIN MULTIPLICITY                            =    1
 NUMBER OF OCCUPIED ORBITALS (ALPHA)          =   12
 NUMBER OF OCCUPIED ORBITALS (BETA )          =   12
 TOTAL NUMBER OF ATOMS                        =    7
 THE NUCLEAR REPULSION ENERGY IS       70.1017160314

     LEBEDEV GRID-BASED DFT OPTIONS
     ------------------------------
     DFTTYP=B3LYP   
     NRAD  =      96     NLEB  =     302
     NRAD0 =      96     NLEB0 =     302
     SWOFF =    5.00E-03 (PURE SCF -> DFT)
     SWITCH=    3.00E-04 (COARSE -> TIGHT GRID)
     THRESH=    0.00E+00 GTHRE=    1.00E+00

 GRIMME'S EMPIRICAL DISPERSION CORRECTION= F

     $CONTRL OPTIONS
     ---------------
 SCFTYP=RHF          RUNTYP=HESSIAN      EXETYP=RUN     
 MPLEVL=       0     CITYP =NONE         CCTYP =NONE         VBTYP =NONE    
 DFTTYP=B3LYP        TDDFT =NONE    
 MULT  =       1     ICHARG=       0     NZVAR =       0     COORD =PRINAXIS
 PP    =NONE         RELWFN=NONE         LOCAL =NONE         NUMGRD=       F
 ISPHER=       1     NOSYM =       0     MAXIT =      30     UNITS =ANGS    
 PLTORB=       F     MOLPLT=       F     AIMPAC=       F     FRIEND=        
 NPRINT=       7     IREST =       0     GEOM  =INPUT   
 NORMF =       0     NORMP =       0     ITOL  =      20     ICUT  =       9
 INTTYP=BEST         GRDTYP=BEST         QMTTOL= 1.0E-06

     $SYSTEM OPTIONS
     ---------------
  REPLICATED MEMORY=     1000000 WORDS (ON EVERY NODE).
 DISTRIBUTED MEMDDI=           0 MILLION WORDS IN AGGREGATE,
 MEMDDI DISTRIBUTED OVER   1 PROCESSORS IS           0 WORDS/PROCESSOR.
 TOTAL MEMORY REQUESTED ON EACH PROCESSOR=     1000000 WORDS.
 TIMLIM=      525600.00 MINUTES, OR     365.0 DAYS.
 PARALL= F  BALTYP=  DLB     KDIAG=    0  COREFL= F
 MXSEQ2=     300 MXSEQ3=     150  mem10=         0

          ----------------
          PROPERTIES INPUT
          ----------------

     MOMENTS            FIELD           POTENTIAL          DENSITY
 IEMOM =       1   IEFLD =       0   IEPOT =       0   IEDEN =       0
 WHERE =COMASS     WHERE =NUCLEI     WHERE =NUCLEI     WHERE =NUCLEI  
 OUTPUT=BOTH       OUTPUT=BOTH       OUTPUT=BOTH       OUTPUT=BOTH    
 IEMINT=       0   IEFINT=       0                     IEDINT=       0
                                                       MORB  =       0
          EXTRAPOLATION IN EFFECT
          DIIS IN EFFECT
 ORBITAL PRINTING OPTION: NPREO=     1    53     2     1

     -------------------------------
     INTEGRAL TRANSFORMATION OPTIONS
     -------------------------------
     NWORD  =            0
     CUTOFF = 1.0E-09     MPTRAN =       0
     DIRTRF =       T     AOINTS =DUP     

          ----------------------
          INTEGRAL INPUT OPTIONS
          ----------------------
 NOPK  =       1 NORDER=       0 SCHWRZ=       T

     ------------------------------------------
     THE POINT GROUP IS CS , NAXIS= 1, ORDER= 2
     ------------------------------------------

 -- VARIATIONAL SPACE WILL BE RESTRICTED TO PURE SPHERICAL HARMONICS ONLY --
 AFTER EXCLUDING CONTAMINANT COMBINATIONS FROM THE CARTESIAN GAUSSIAN BASIS
 SET, THE NUMBER OF SPHERICAL HARMONICS KEPT IN THE VARIATION SPACE IS   50

     DIMENSIONS OF THE SYMMETRY SUBSPACES ARE
 A'  =   38     A'' =   12

 ..... DONE SETTING UP THE RUN .....
 STEP CPU TIME =     0.01 TOTAL CPU TIME =          0.0 (      0.0 MIN)
 TOTAL WALL CLOCK TIME=          0.0 SECONDS, CPU UTILIZATION IS    50.00%

     ---------------------------------
     HESSIAN MATRIX CONTROL PARAMETERS
     ---------------------------------
     METHOD=SEMINUM    NVIB  =       2   VIBSIZ= 0.01000
     RDHESS=       F   PURIFY=       F   PRTIFC=       F
     VIBANL=       T   DECOMP=       F   PROJCT=       F
     SCLFAC= 1.00000   PRTSCN=       F   NPRT  =       0
     PULCOR=       F   NPUN  =       0   REDOVB=       T
     HSSTYP=GENERAL 
     THERMOCHEMISTRY WILL BE PRINTED FOR    1 TEMPERATURES:
      298.15000

               * * * EFFICIENCY NOTE * * *
 THIS CALCULATION CAN BE RUN WITH DIFFERENTIATION METHOD=ANALYTIC
 THIS MIGHT BE MORE ACCURATE AND/OR FASTER THAN YOUR CHOICE,
 BUT THE REQUESTED CALCULATION METHOD=SEMINUM  IS PROCEEDING.

1   ATOM  0
                                        -------------------
   COORD  0                             NUCLEAR COORDINATES
                                        -------------------
     VIB  0

                       ATOM             X              Y              Z

                 1  C                2.374057      -0.391849       0.000000
                 2  C                0.156932       0.809945       0.000000
                 3  O               -2.190764      -0.251271       0.000000
                 4  H               -2.008910      -2.078719       0.000000
                 5  H                0.005043       2.857811       0.000000
                 6  H                4.122924       0.674008       0.000000
                 7  H                2.513893      -2.443443       0.000000

          ********************
          1 ELECTRON INTEGRALS
          ********************
 ...... END OF ONE-ELECTRON INTEGRALS ......
 STEP CPU TIME =     0.00 TOTAL CPU TIME =          0.0 (      0.0 MIN)
 TOTAL WALL CLOCK TIME=          0.0 SECONDS, CPU UTILIZATION IS    50.00%

          -------------
          GUESS OPTIONS
          -------------
          GUESS =HUCKEL            NORB  =       0          NORDER=       0
          MIX   =       F          PRTMO =       F          PUNMO =       F
          TOLZ  = 1.0E-08          TOLE  = 1.0E-05
          SYMDEN=       F          PURIFY=       F

 INITIAL GUESS ORBITALS GENERATED BY HUCKEL   ROUTINE.
 HUCKEL GUESS REQUIRES     27154 WORDS.

 STATISTICS FOR GENERATION OF SYMMETRY ORBITAL -Q- MATRIX
 NUMBER OF CARTESIAN ATOMIC ORBITALS=         53
 NUMBER OF SPHERICAL CONTAMINANTS DROPPED=     3
 NUMBER OF LINEARLY DEPENDENT MOS DROPPED=     0
 TOTAL NUMBER OF MOS IN VARIATION SPACE=      50

 SYMMETRIES FOR INITIAL GUESS ORBITALS FOLLOW.   BOTH SET(S).
    12 ORBITALS ARE OCCUPIED (    3 CORE ORBITALS).
     4=A'       5=A'       6=A'       7=A'       8=A'       9=A''     10=A'  
    11=A'      12=A''     13=A''     14=A'      15=A'      16=A'      17=A'  
    18=A'      19=A'      20=A'      21=A'      22=A'  
 ...... END OF INITIAL ORBITAL SELECTION ......
 STEP CPU TIME =     0.01 TOTAL CPU TIME =          0.0 (      0.0 MIN)
 TOTAL WALL CLOCK TIME=          0.0 SECONDS, CPU UTILIZATION IS    66.67%

                    ----------------------
                    AO INTEGRAL TECHNOLOGY
                    ----------------------
     S,P,L SHELL ROTATED AXIS INTEGRALS, REPROGRAMMED BY
        KAZUYA ISHIMURA (IMS) AND JOSE SIERRA (SYNSTAR).
     S,P,D,L SHELL ROTATED AXIS INTEGRALS PROGRAMMED BY
        KAZUYA ISHIMURA (INSTITUTE FOR MOLECULAR SCIENCE).
     S,P,D,F,G SHELL TO TOTAL QUARTET ANGULAR MOMENTUM SUM 5,
        ERIC PROGRAM BY GRAHAM FLETCHER (ELORET AND NASA ADVANCED
        SUPERCOMPUTING DIVISION, AMES RESEARCH CENTER).
     S,P,D,F,G,L SHELL GENERAL RYS QUADRATURE PROGRAMMED BY
        MICHEL DUPUIS (PACIFIC NORTHWEST NATIONAL LABORATORY).

          --------------------
          2 ELECTRON INTEGRALS
          --------------------

 DIRECT SCF METHOD SKIPS INTEGRAL STORAGE ON DISK.
 DIRECT TRANSFORMATION SKIPS AO INTEGRAL STORAGE ON DISK.
  ...... END OF TWO-ELECTRON INTEGRALS .....
 STEP CPU TIME =     0.00 TOTAL CPU TIME =          0.0 (      0.0 MIN)
 TOTAL WALL CLOCK TIME=          0.0 SECONDS, CPU UTILIZATION IS    50.00%

          --------------------------
             R-B3LYP SCF CALCULATION
          --------------------------

     NUCLEAR ENERGY =        70.1017160314
     MAXIT =   30     NPUNCH=    2
     EXTRAP=T  DAMP=F  SHIFT=F  RSTRCT=F  DIIS=T  DEM=F  SOSCF=F
         DENSITY MATRIX CONVERGENCE THRESHOLD=  2.00E-05
     COARSE -> FINE DFT GRID SWITCH THRESHOLD=  3.00E-04 (SWITCH IN $DFT)
                   HF -> DFT SWITCH THRESHOLD=  5.00E-03 (SWOFF IN $DFT)
     MEMORY REQUIRED FOR RHF ITERS=    323263 WORDS.

 DIRECT SCF CALCULATION, SCHWRZ=T   FDIFF=T,  DIRTHR=  0.00E+00 NITDIR=10
 SCHWARZ INEQUALITY OVERHEAD:      1430 INTEGRALS, T=        0.01

     EXCHANGE FUNCTIONAL   =B88&HFX   
     CORRELATION FUNCTIONAL=LYP88&VWN5
     DFT THRESHOLD         =.493E-08
 FOR AN EULER-MACLAURIN QUADRATURE USING  96 RADIAL POINTS:
 SMALLEST GAUSSIAN PRIMITIVE EXPONENT=        0.1612777588 OF TYPE -S-
 ON ATOM NUMBER   4 HAS RADIAL NORMALIZATION=  1.000000
  LARGEST GAUSSIAN PRIMITIVE EXPONENT=     5484.6716600000 OF TYPE -S-
 ON ATOM NUMBER   3 HAS RADIAL NORMALIZATION=  1.000000
 DFT IS SWITCHED OFF, PERFORMING PURE SCF UNTIL SWOFF THRESHOLD IS REACHED.

                                                                                   NONZERO     BLOCKS
 ITER EX DEM     TOTAL ENERGY        E CHANGE  DENSITY CHANGE    DIIS ERROR      INTEGRALS    SKIPPED
          * * *   INITIATING DIIS PROCEDURE   * * *
   1  0  0     -152.4561278588  -152.4561278588   0.242305982   0.411639614         549294        574
   2  1  0     -152.8565490918    -0.4004212330   0.099858248   0.083193414         549162        651
   3  2  0     -152.8809618127    -0.0244127210   0.028233185   0.028836804         548791        784
   4  3  0     -152.8857898774    -0.0048280647   0.012077354   0.007495492         547754        996
   5  4  0     -152.8862703867    -0.0004805093   0.002683102   0.002319399         546972       1109
 CONVERGED TO SWOFF, SO DFT CALCULATION IS NOW SWITCHED ON.
          * * *   INITIATING DIIS PROCEDURE   * * *
   6  5  0     -153.7001440835    -0.8138736968   0.071654651   0.056990478         549285        577
   7  6  0     -153.7120464575    -0.0119023740   0.036279541   0.021266294         548856        751
   8  7  0     -153.7126364953    -0.0005900378   0.018240136   0.018347223         548032        931
   9  8  0     -153.7142198280    -0.0015833327   0.003453940   0.003972102         547182       1094
  10  9  0     -153.7142689094    -0.0000490814   0.000457948   0.000285991         542796       1563
  11 10  0     -153.7142693950    -0.0000004856   0.000275685   0.000137108         538466       2023
  12 11  0     -153.7142694819    -0.0000000869   0.000119071   0.000096070         533455       2518
  13 12  0     -153.7142695245    -0.0000000426   0.000003656   0.000005238         527689       2987
  14 13  0     -153.7142695246    -0.0000000000   0.000000840   0.000000756         512722       4324

          -----------------
          DENSITY CONVERGED
          -----------------
     TIME TO FORM FOCK OPERATORS=       6.0 SECONDS (       0.4 SEC/ITER)
     FOCK TIME ON FIRST ITERATION=       0.1, LAST ITERATION=       0.6
     TIME TO SOLVE SCF EQUATIONS=       0.0 SECONDS (       0.0 SEC/ITER)

 FINAL R-B3LYP ENERGY IS     -153.7142695246 AFTER  14 ITERATIONS
 DFT EXCHANGE + CORRELATION ENERGY =       -16.8380658996
 TOTAL ELECTRON NUMBER             =        23.9999843165

          ------------
          EIGENVECTORS
          ------------

                      1          2          3          4          5
                  -19.1682   -10.2333   -10.1587    -1.0515    -0.7409
                     A'         A'         A'         A'         A'  
    1  C  1  S    0.000037   0.004939   0.995034  -0.015859  -0.161700
    2  C  1  S    0.000090  -0.002012   0.035385   0.029215   0.305623
    3  C  1  X    0.000225   0.001656  -0.000805  -0.024305  -0.082417
    4  C  1  Y   -0.000242  -0.001029   0.000399   0.005231   0.054023
    5  C  1  Z    0.000000   0.000000   0.000000   0.000000   0.000000
    6  C  1  S   -0.002076   0.007816  -0.025439   0.022312   0.234425
    7  C  1  X    0.002744  -0.002421   0.001486  -0.018539  -0.008642
    8  C  1  Y    0.003254   0.003505  -0.000586  -0.013784  -0.006084
    9  C  1  Z    0.000000   0.000000   0.000000   0.000000   0.000000
   10  C  1 XX   -0.000299  -0.000828   0.000674   0.004375   0.007980
   11  C  1 YY    0.000296   0.000174   0.000042  -0.001867   0.006162
   12  C  1 ZZ    0.000003   0.000654  -0.000717  -0.002508  -0.014142
   13  C  1 XY   -0.000056   0.000979  -0.000614  -0.001324  -0.003009
   14  C  1 XZ    0.000000   0.000000   0.000000   0.000000   0.000000
   15  C  1 YZ    0.000000   0.000000   0.000000   0.000000   0.000000
   16  C  2  S    0.000018   0.994981  -0.005162  -0.078862  -0.141382
   17  C  2  S   -0.000063   0.035262  -0.002520   0.149073   0.280615
   18  C  2  X   -0.000501  -0.001200  -0.001619  -0.102946   0.140576
   19  C  2  Y   -0.000123  -0.001060   0.000982  -0.056366  -0.024252
   20  C  2  Z    0.000000   0.000000   0.000000   0.000000   0.000000
   21  C  2  S    0.008245  -0.018785   0.008247   0.033990   0.189603
   22  C  2  X   -0.004858  -0.005526   0.002938   0.011084   0.033918
   23  C  2  Y   -0.005844  -0.001695  -0.002051   0.021384   0.013188
   24  C  2  Z    0.000000   0.000000   0.000000   0.000000   0.000000
   25  C  2 XX   -0.000151   0.001705  -0.000985   0.014677   0.003329
   26  C  2 YY    0.000386  -0.000302   0.000239  -0.002005   0.005725
   27  C  2 ZZ   -0.000235  -0.001403   0.000746  -0.012672  -0.009054
   28  C  2 XY   -0.000114   0.000164   0.000996   0.015226  -0.012905
   29  C  2 XZ    0.000000   0.000000   0.000000   0.000000   0.000000
   30  C  2 YZ    0.000000   0.000000   0.000000   0.000000   0.000000
   31  O  3  S    0.995132   0.000139  -0.000003  -0.204328   0.054468
   32  O  3  S    0.029634   0.001070  -0.000117   0.449054  -0.129057
   33  O  3  X    0.001716  -0.000465  -0.000081   0.109057   0.070505
   34  O  3  Y   -0.000610  -0.000143  -0.000015  -0.048660   0.090555
   35  O  3  Z    0.000000   0.000000   0.000000   0.000000   0.000000
   36  O  3  S   -0.019825  -0.004216  -0.000266   0.452182  -0.138398
   37  O  3  X   -0.005433  -0.003328  -0.000089   0.056317   0.043593
   38  O  3  Y    0.000112  -0.001999   0.000212  -0.025983   0.046537
   39  O  3  Z    0.000000   0.000000   0.000000   0.000000   0.000000
   40  O  3 XX   -0.000440  -0.001668   0.000040   0.002973   0.012139
   41  O  3 YY   -0.000016   0.000352   0.000123   0.011693  -0.011738
   42  O  3 ZZ    0.000456   0.001316  -0.000162  -0.014666  -0.000401
   43  O  3 XY   -0.000246  -0.001640   0.000056  -0.000003   0.003734
   44  O  3 XZ    0.000000   0.000000   0.000000   0.000000   0.000000
   45  O  3 YZ    0.000000   0.000000   0.000000   0.000000   0.000000
   46  H  4  S    0.000653  -0.000039  -0.000075   0.124094  -0.073180
   47  H  4  S    0.002195   0.000058   0.000159  -0.004490  -0.010394
   48  H  5  S   -0.000180  -0.001142  -0.000226   0.022843   0.082463
   49  H  5  S    0.001611   0.005030   0.000261  -0.006566   0.017163
   50  H  6  S   -0.000340  -0.000482  -0.001131   0.004219   0.090531
   51  H  6  S   -0.001307  -0.000254   0.004825   0.007995   0.025410
   52  H  7  S    0.000424  -0.000124  -0.001109   0.004154   0.084187
   53  H  7  S    0.001448   0.001180   0.004944  -0.003255   0.014380

                      6          7          8          9         10
                   -0.6134    -0.4886    -0.4727    -0.3802    -0.3795
                     A'         A'         A'         A''        A'  
    1  C  1  S    0.100546  -0.046333  -0.028378   0.000000  -0.010232
    2  C  1  S   -0.193177   0.095554   0.061033   0.000000   0.021898
    3  C  1  X   -0.042977   0.157008   0.303190   0.000000   0.100451
    4  C  1  Y    0.044823  -0.244484   0.078123   0.000000   0.353697
    5  C  1  Z    0.000000   0.000000   0.000000   0.130053   0.000000
    6  C  1  S   -0.183830   0.111891   0.079721   0.000000   0.011683
    7  C  1  X   -0.008379   0.056840   0.122610   0.000000   0.048411
    8  C  1  Y    0.016083  -0.076961   0.049713   0.000000   0.123500
    9  C  1  Z    0.000000   0.000000   0.000000   0.071071   0.000000
   10  C  1 XX   -0.001299  -0.003294  -0.002425   0.000000   0.019761
   11  C  1 YY   -0.007397   0.008223   0.005951   0.000000  -0.020204
   12  C  1 ZZ    0.008696  -0.004929  -0.003526   0.000000   0.000443
   13  C  1 XY   -0.005233   0.010705   0.010297   0.000000   0.012729
   14  C  1 XZ    0.000000   0.000000   0.000000  -0.009519   0.000000
   15  C  1 YZ    0.000000   0.000000   0.000000   0.003592   0.000000
   16  C  2  S   -0.088431   0.060750   0.041658   0.000000   0.010132
   17  C  2  S    0.185466  -0.125074  -0.087844   0.000000  -0.020977
   18  C  2  X   -0.198155  -0.245291  -0.027324   0.000000   0.001404
   19  C  2  Y    0.124132  -0.161481   0.295742   0.000000  -0.233857
   20  C  2  Z    0.000000   0.000000   0.000000   0.291329   0.000000
   21  C  2  S    0.164859  -0.110941  -0.042778   0.000000  -0.033722
   22  C  2  X   -0.036413  -0.070523  -0.027806   0.000000   0.029828
   23  C  2  Y    0.037902  -0.071940   0.087580   0.000000  -0.074622
   24  C  2  Z    0.000000   0.000000   0.000000   0.170303   0.000000
   25  C  2 XX    0.007986   0.019016   0.001527   0.000000   0.024511
   26  C  2 YY    0.001131  -0.016864  -0.001336   0.000000  -0.024535
   27  C  2 ZZ   -0.009117  -0.002152  -0.000190   0.000000   0.000023
   28  C  2 XY    0.004063   0.006803  -0.003672   0.000000   0.014953
   29  C  2 XZ    0.000000   0.000000   0.000000  -0.014248   0.000000
   30  C  2 YZ    0.000000   0.000000   0.000000  -0.010910   0.000000
   31  O  3  S    0.011276  -0.018941  -0.049110   0.000000  -0.008321
   32  O  3  S   -0.022824   0.053499   0.116027   0.000000   0.020744
   33  O  3  X    0.147155   0.140062  -0.274089   0.000000   0.180371
   34  O  3  Y    0.336646   0.283102   0.102637   0.000000   0.062482
   35  O  3  Z    0.000000   0.000000   0.000000   0.522276   0.000000
   36  O  3  S   -0.043426   0.043889   0.163199   0.000000   0.061015
   37  O  3  X    0.062989   0.057308  -0.178557   0.000000   0.117240
   38  O  3  Y    0.163793   0.151111   0.060007   0.000000   0.030960
   39  O  3  Z    0.000000   0.000000   0.000000   0.360711   0.000000
   40  O  3 XX    0.014241   0.010790  -0.018187   0.000000   0.011159
   41  O  3 YY   -0.017961  -0.016046   0.010521   0.000000  -0.010696
   42  O  3 ZZ    0.003720   0.005256   0.007666   0.000000  -0.000464
   43  O  3 XY    0.015054   0.005064   0.015444   0.000000  -0.005474
   44  O  3 XZ    0.000000   0.000000   0.000000   0.027398   0.000000
   45  O  3 YZ    0.000000   0.000000   0.000000  -0.010970   0.000000
   46  H  4  S   -0.177827  -0.141718  -0.032193   0.000000  -0.045386
   47  H  4  S   -0.079148  -0.086518  -0.015862   0.000000  -0.069220
   48  H  5  S    0.128463  -0.142056   0.118001   0.000000  -0.183354
   49  H  5  S    0.054299  -0.084211   0.091709   0.000000  -0.171051
   50  H  6  S   -0.085345   0.053584   0.194425   0.000000   0.196252
   51  H  6  S   -0.040104   0.028383   0.120771   0.000000   0.174852
   52  H  7  S   -0.102533   0.183086   0.002514   0.000000  -0.233456
   53  H  7  S   -0.049606   0.122356   0.002396   0.000000  -0.228499

                     11         12         13         14         15
                   -0.3612    -0.2247     0.0452     0.0762     0.1311
                     A'         A''        A''        A'         A'  
    1  C  1  S    0.027986   0.000000   0.000000   0.034652   0.008854
    2  C  1  S   -0.053793   0.000000   0.000000  -0.072537  -0.021461
    3  C  1  X    0.257672   0.000000   0.000000  -0.037861  -0.163148
    4  C  1  Y   -0.054125   0.000000   0.000000   0.078416  -0.192793
    5  C  1  Z    0.000000   0.411926  -0.378747   0.000000   0.000000
    6  C  1  S   -0.145682   0.000000   0.000000  -0.213939  -0.157979
    7  C  1  X    0.098196   0.000000   0.000000  -0.337137  -0.467340
    8  C  1  Y   -0.056333   0.000000   0.000000   0.220939  -0.395837
    9  C  1  Z    0.000000   0.333441  -0.613032   0.000000   0.000000
   10  C  1 XX   -0.001119   0.000000   0.000000   0.008473   0.016367
   11  C  1 YY    0.002621   0.000000   0.000000  -0.010042  -0.015213
   12  C  1 ZZ   -0.001502   0.000000   0.000000   0.001569  -0.001154
   13  C  1 XY    0.008364   0.000000   0.000000   0.012414   0.017015
   14  C  1 XZ    0.000000  -0.011367  -0.023269   0.000000   0.000000
   15  C  1 YZ    0.000000   0.006980   0.014935   0.000000   0.000000
   16  C  2  S   -0.006144   0.000000   0.000000  -0.009567   0.055515
   17  C  2  S    0.013727   0.000000   0.000000   0.023558  -0.093654
   18  C  2  X   -0.238623   0.000000   0.000000  -0.088629  -0.053825
   19  C  2  Y    0.153706   0.000000   0.000000  -0.041223  -0.315498
   20  C  2  Z    0.000000   0.294199   0.488337   0.000000   0.000000
   21  C  2  S    0.026801   0.000000   0.000000  -0.175484  -0.977536
   22  C  2  X    0.025558   0.000000   0.000000  -0.277087  -0.130900
   23  C  2  Y    0.027935   0.000000   0.000000   0.083032  -0.705489
   24  C  2  Z    0.000000   0.183522   0.643290   0.000000   0.000000
   25  C  2 XX   -0.012468   0.000000   0.000000  -0.000400  -0.020946
   26  C  2 YY    0.017333   0.000000   0.000000  -0.005221   0.018915
   27  C  2 ZZ   -0.004865   0.000000   0.000000   0.005621   0.002031
   28  C  2 XY    0.017707   0.000000   0.000000  -0.009662  -0.012213
   29  C  2 XZ    0.000000   0.030009  -0.011295   0.000000   0.000000
   30  C  2 YZ    0.000000  -0.002084   0.019249   0.000000   0.000000
   31  O  3  S    0.061358   0.000000   0.000000   0.075974   0.007237
   32  O  3  S   -0.141344   0.000000   0.000000  -0.144255  -0.030137
   33  O  3  X    0.393224   0.000000   0.000000  -0.081046  -0.088331
   34  O  3  Y   -0.267962   0.000000   0.000000   0.292390  -0.028488
   35  O  3  Z    0.000000  -0.359499  -0.219126   0.000000   0.000000
   36  O  3  S   -0.230163   0.000000   0.000000  -0.898593  -0.031572
   37  O  3  X    0.280100   0.000000   0.000000  -0.108864  -0.128860
   38  O  3  Y   -0.156805   0.000000   0.000000   0.466326  -0.011710
   39  O  3  Z    0.000000  -0.297480  -0.258101   0.000000   0.000000
   40  O  3 XX    0.007549   0.000000   0.000000   0.001938   0.005265
   41  O  3 YY    0.005341   0.000000   0.000000  -0.009434  -0.004543
   42  O  3 ZZ   -0.012889   0.000000   0.000000   0.007496  -0.000722
   43  O  3 XY   -0.016444   0.000000   0.000000   0.010364  -0.008721
   44  O  3 XZ    0.000000  -0.005080   0.008921   0.000000   0.000000
   45  O  3 YZ    0.000000   0.011951   0.018632   0.000000   0.000000
   46  H  4  S    0.149271   0.000000   0.000000   0.141256  -0.034888
   47  H  4  S    0.102477   0.000000   0.000000   1.348435  -0.198230
   48  H  5  S    0.132533   0.000000   0.000000  -0.049857   0.088671
   49  H  5  S    0.134373   0.000000   0.000000  -0.153119   1.508279
   50  H  6  S    0.105269   0.000000   0.000000   0.065268   0.073754
   51  H  6  S    0.124588   0.000000   0.000000   0.390338   1.029903
   52  H  7  S    0.023941   0.000000   0.000000  -0.044264  -0.063665
   53  H  7  S    0.037129   0.000000   0.000000   0.352352  -0.624721

                     16         17         18         19         20
                    0.1471     0.1896     0.2892     0.3670     0.5091
                     A'         A'         A'         A'         A'  
    1  C  1  S   -0.110835   0.074007   0.041743  -0.071008   0.002705
    2  C  1  S    0.141323  -0.113103  -0.072978  -0.017180  -0.263534
    3  C  1  X    0.152746  -0.110121   0.158008  -0.045781   0.494876
    4  C  1  Y   -0.182860  -0.197493   0.229081   0.087719  -0.265874
    5  C  1  Z    0.000000   0.000000   0.000000   0.000000   0.000000
    6  C  1  S    1.972243  -1.074156  -0.500593   3.031970  -0.652909
    7  C  1  X    0.308089  -0.301311   1.173036  -2.632995  -0.435530
    8  C  1  Y   -0.558642  -0.976875   1.061318   1.520956   0.213394
    9  C  1  Z    0.000000   0.000000   0.000000   0.000000   0.000000
   10  C  1 XX    0.012076   0.007941   0.030490  -0.010817  -0.015050
   11  C  1 YY   -0.012503  -0.011471  -0.037907   0.018800   0.006717
   12  C  1 ZZ    0.000427   0.003530   0.007417  -0.007983   0.008333
   13  C  1 XY    0.004147  -0.002068   0.006169   0.034869   0.041464
   14  C  1 XZ    0.000000   0.000000   0.000000   0.000000   0.000000
   15  C  1 YZ    0.000000   0.000000   0.000000   0.000000   0.000000
   16  C  2  S   -0.022554  -0.116971  -0.078390   0.057852  -0.046433
   17  C  2  S    0.042442   0.181861   0.070838  -0.084729  -0.042072
   18  C  2  X   -0.159540  -0.116346  -0.171529  -0.258677  -0.573154
   19  C  2  Y    0.006656   0.088165  -0.300167   0.207314  -0.090370
   20  C  2  Z    0.000000   0.000000   0.000000   0.000000   0.000000
   21  C  2  S    0.365870   1.867995   1.445087  -2.858983  -0.069476
   22  C  2  X   -0.486634   0.022393  -1.059786  -2.605249   1.614366
   23  C  2  Y    0.192071   0.587891  -1.444309   1.255546  -0.200581
   24  C  2  Z    0.000000   0.000000   0.000000   0.000000   0.000000
   25  C  2 XX   -0.008507  -0.028567  -0.007586  -0.004388  -0.083744
   26  C  2 YY    0.003408   0.018483  -0.007449  -0.001420   0.017407
   27  C  2 ZZ    0.005099   0.010084   0.015035   0.005809   0.066337
   28  C  2 XY   -0.017701  -0.017718  -0.000020  -0.009269   0.024219
   29  C  2 XZ    0.000000   0.000000   0.000000   0.000000   0.000000
   30  C  2 YZ    0.000000   0.000000   0.000000   0.000000   0.000000
   31  O  3  S    0.044689   0.023523   0.062442   0.011865  -0.004121
   32  O  3  S   -0.088629  -0.076267  -0.094947  -0.019259  -0.077542
   33  O  3  X   -0.080139  -0.202046  -0.225748  -0.012337  -0.260388
   34  O  3  Y    0.000643  -0.152697  -0.213779  -0.173201  -0.001626
   35  O  3  Z    0.000000   0.000000   0.000000   0.000000   0.000000
   36  O  3  S   -0.541386  -0.107743  -1.108846  -0.310165   0.696465
   37  O  3  X   -0.189105  -0.246360  -0.759635  -0.041853   0.131092
   38  O  3  Y   -0.041637  -0.299856  -0.418509  -0.499717   0.142861
   39  O  3  Z    0.000000   0.000000   0.000000   0.000000   0.000000
   40  O  3 XX   -0.006218   0.002198  -0.011105  -0.013759   0.076102
   41  O  3 YY    0.005405  -0.000086  -0.004496   0.021152  -0.053234
   42  O  3 ZZ    0.000813  -0.002113   0.015601  -0.007394  -0.022869
   43  O  3 XY    0.006825   0.010776  -0.005909  -0.014167   0.051473
   44  O  3 XZ    0.000000   0.000000   0.000000   0.000000   0.000000
   45  O  3 YZ    0.000000   0.000000   0.000000   0.000000   0.000000
   46  H  4  S    0.065761  -0.040364  -0.064550   0.010913  -0.203976
   47  H  4  S    0.333867  -0.330188  -0.530053  -0.579263   0.185323
   48  H  5  S    0.016546  -0.021758  -0.036699  -0.006867  -0.059105
   49  H  5  S   -0.330296  -1.453743   0.726737  -0.700302   0.217902
   50  H  6  S   -0.009294   0.060914   0.071560   0.137183   0.022777
   51  H  6  S   -0.823225   1.474734  -1.224178   0.411602  -0.084103
   52  H  7  S   -0.108241  -0.007584  -0.095574   0.077991   0.065806
   53  H  7  S   -1.688081  -0.505456   1.277874   0.678442   0.090593

                     21         22         23         24         25
                    0.5493     0.6200     0.6289     0.6410     0.6828
                     A''        A'         A'         A''        A'  
    1  C  1  S    0.000000   0.010378  -0.004060   0.000000  -0.076290
    2  C  1  S    0.000000  -0.563158  -0.113168   0.000000  -0.370602
    3  C  1  X    0.000000   0.307491  -0.242035   0.000000  -0.451567
    4  C  1  Y    0.000000  -0.191437  -0.308553   0.000000   0.281874
    5  C  1  Z   -0.707689   0.000000   0.000000  -0.805816   0.000000
    6  C  1  S    0.000000   0.194619   0.693810   0.000000   0.676936
    7  C  1  X    0.000000   0.176169   0.416549   0.000000   0.694370
    8  C  1  Y    0.000000   0.217022   0.943631   0.000000  -0.485416
    9  C  1  Z    0.558662   0.000000   0.000000   1.209128   0.000000
   10  C  1 XX    0.000000  -0.041896  -0.065971   0.000000  -0.075326
   11  C  1 YY    0.000000  -0.009014   0.042513   0.000000  -0.082336
   12  C  1 ZZ    0.000000   0.050910   0.023458   0.000000   0.157661
   13  C  1 XY    0.000000  -0.033531  -0.067203   0.000000   0.040947
   14  C  1 XZ    0.043069   0.000000   0.000000  -0.005956   0.000000
   15  C  1 YZ   -0.021214   0.000000   0.000000  -0.000893   0.000000
   16  C  2  S    0.000000  -0.013426  -0.023856   0.000000   0.043369
   17  C  2  S    0.000000  -0.976352  -0.154168   0.000000  -0.292716
   18  C  2  X    0.000000   0.467963  -0.177587   0.000000  -0.582393
   19  C  2  Y    0.000000   0.426687  -0.357521   0.000000   0.244104
   20  C  2  Z   -0.732978   0.000000   0.000000   0.724682   0.000000
   21  C  2  S    0.000000   1.705759   0.490535   0.000000   0.283953
   22  C  2  X    0.000000  -0.531882  -0.637866   0.000000   0.678410
   23  C  2  Y    0.000000  -1.017338   0.669393   0.000000  -0.282513
   24  C  2  Z    0.771241   0.000000   0.000000  -1.205611   0.000000
   25  C  2 XX    0.000000  -0.008529   0.046126   0.000000   0.039456
   26  C  2 YY    0.000000  -0.052643  -0.105006   0.000000  -0.008454
   27  C  2 ZZ    0.000000   0.061171   0.058880   0.000000  -0.031002
   28  C  2 XY    0.000000   0.093866   0.010334   0.000000  -0.094319
   29  C  2 XZ   -0.030164   0.000000   0.000000  -0.043555   0.000000
   30  C  2 YZ    0.038915   0.000000   0.000000  -0.006720   0.000000
   31  O  3  S    0.000000  -0.002244   0.042473   0.000000  -0.005095
   32  O  3  S    0.000000   0.040755  -0.149342   0.000000   0.030719
   33  O  3  X    0.000000   0.142876   0.139657   0.000000  -0.094953
   34  O  3  Y    0.000000   0.013038  -0.115457   0.000000   0.002575
   35  O  3  Z   -0.118908   0.000000   0.000000   0.086441   0.000000
   36  O  3  S    0.000000  -0.635178  -0.357771   0.000000   0.193789
   37  O  3  X    0.000000  -0.267951  -0.314904   0.000000   0.074980
   38  O  3  Y    0.000000  -0.054071  -0.139003   0.000000   0.055372
   39  O  3  Z   -0.050468   0.000000   0.000000   0.111230   0.000000
   40  O  3 XX    0.000000  -0.077808  -0.028630   0.000000  -0.002283
   41  O  3 YY    0.000000  -0.013882   0.033225   0.000000   0.032664
   42  O  3 ZZ    0.000000   0.091690  -0.004595   0.000000  -0.030381
   43  O  3 XY    0.000000  -0.106482   0.041837   0.000000   0.042816
   44  O  3 XZ   -0.024590   0.000000   0.000000   0.044591   0.000000
   45  O  3 YZ   -0.015307   0.000000   0.000000   0.002696   0.000000
   46  H  4  S    0.000000  -0.080437   0.184539   0.000000   0.091753
   47  H  4  S    0.000000  -0.287801   0.019126   0.000000  -0.116109
   48  H  5  S    0.000000  -0.253950  -0.596001   0.000000   0.086610
   49  H  5  S    0.000000   0.253163  -0.143691   0.000000   0.105113
   50  H  6  S    0.000000  -0.191926  -0.416541   0.000000  -0.448385
   51  H  6  S    0.000000  -0.027812  -0.249845   0.000000  -0.159260
   52  H  7  S    0.000000  -0.171070   0.272600   0.000000  -0.580512
   53  H  7  S    0.000000  -0.026405   0.207284   0.000000  -0.067273

                     26         27         28         29         30
                    0.7917     0.8638     0.8768     0.9384     0.9425
                     A'         A'         A'         A'         A'' 
    1  C  1  S    0.016125   0.005304  -0.008261   0.042038   0.000000
    2  C  1  S   -0.080460   0.148278  -0.282776  -0.903134   0.000000
    3  C  1  X    0.216747  -0.496503   0.142042  -0.552356   0.000000
    4  C  1  Y    0.109213  -0.969103  -0.154984   0.305624   0.000000
    5  C  1  Z    0.000000   0.000000   0.000000   0.000000   0.017030
    6  C  1  S   -0.200393  -0.737252   1.423415   0.832631   0.000000
    7  C  1  X   -0.257710   1.497966  -0.898117   1.291266   0.000000
    8  C  1  Y   -0.382733   2.419092   0.049039  -0.601976   0.000000
    9  C  1  Z    0.000000   0.000000   0.000000   0.000000   0.167920
   10  C  1 XX    0.011809   0.076426   0.073402  -0.049886   0.000000
   11  C  1 YY    0.007383  -0.067391  -0.091285   0.107746   0.000000
   12  C  1 ZZ   -0.019192  -0.009035   0.017883  -0.057860   0.000000
   13  C  1 XY   -0.020398   0.078410   0.001126   0.131345   0.000000
   14  C  1 XZ    0.000000   0.000000   0.000000   0.000000   0.004823
   15  C  1 YZ    0.000000   0.000000   0.000000   0.000000  -0.040377
   16  C  2  S   -0.042327  -0.004988   0.021936   0.002821   0.000000
   17  C  2  S    0.184951   0.079311  -0.784784  -0.655001   0.000000
   18  C  2  X    0.076686   0.040949   0.200736  -0.214119   0.000000
   19  C  2  Y    0.137019   0.305437  -0.879725   0.028626   0.000000
   20  C  2  Z    0.000000   0.000000   0.000000   0.000000   0.137685
   21  C  2  S   -0.603114   0.075622   0.718419   1.990178   0.000000
   22  C  2  X    0.360552  -0.207609  -0.681549   0.561635   0.000000
   23  C  2  Y   -0.257277  -1.648943   2.540536  -0.445759   0.000000
   24  C  2  Z    0.000000   0.000000   0.000000   0.000000  -0.590554
   25  C  2 XX   -0.018928  -0.045534  -0.107501   0.031064   0.000000
   26  C  2 YY   -0.058268   0.062238   0.118237  -0.017000   0.000000
   27  C  2 ZZ    0.077196  -0.016704  -0.010737  -0.014064   0.000000
   28  C  2 XY   -0.075601  -0.048693  -0.002111   0.001892   0.000000
   29  C  2 XZ    0.000000   0.000000   0.000000   0.000000  -0.004416
   30  C  2 YZ    0.000000   0.000000   0.000000   0.000000  -0.041044
   31  O  3  S    0.010654   0.000248  -0.010891   0.011778   0.000000
   32  O  3  S   -0.105020   0.040995   0.024391  -0.088134   0.000000
   33  O  3  X   -0.504927   0.004908  -0.143492   0.075063   0.000000
   34  O  3  Y    0.327321   0.079121   0.176224   0.228966   0.000000
   35  O  3  Z    0.000000   0.000000   0.000000   0.000000  -0.941714
   36  O  3  S    0.445206  -0.375380   0.159698  -0.061070   0.000000
   37  O  3  X    0.636811  -0.101009   0.418577  -0.263360   0.000000
   38  O  3  Y    0.138509   0.079719  -0.290096  -0.291182   0.000000
   39  O  3  Z    0.000000   0.000000   0.000000   0.000000   1.214031
   40  O  3 XX   -0.050688  -0.041405   0.010590  -0.025638   0.000000
   41  O  3 YY    0.142433   0.033910   0.008889   0.004741   0.000000
   42  O  3 ZZ   -0.091745   0.007494  -0.019479   0.020897   0.000000
   43  O  3 XY   -0.007519   0.004415  -0.065068  -0.004556   0.000000
   44  O  3 XZ    0.000000   0.000000   0.000000   0.000000  -0.020759
   45  O  3 YZ    0.000000   0.000000   0.000000   0.000000  -0.040016
   46  H  4  S    0.884072   0.159487   0.185378   0.063079   0.000000
   47  H  4  S   -0.773052  -0.171098  -0.086477  -0.206957   0.000000
   48  H  5  S   -0.319483   0.049743   0.590748   0.093263   0.000000
   49  H  5  S    0.638347   0.760394  -2.415109  -0.111383   0.000000
   50  H  6  S    0.032422   0.474392  -0.035758   0.590820   0.000000
   51  H  6  S    0.239343  -1.846539   0.127622  -1.256701   0.000000
   52  H  7  S    0.063434  -0.375184  -0.239408   0.648067   0.000000
   53  H  7  S   -0.195718   1.894534   0.230633  -1.217417   0.000000

                     31         32         33         34         35
                    1.0257     1.0830     1.1455     1.2454     1.3905
                     A'         A'         A'         A'         A'' 
    1  C  1  S    0.004729  -0.009145  -0.015439  -0.016015   0.000000
    2  C  1  S   -0.274736  -1.661282  -0.460038  -0.464718   0.000000
    3  C  1  X   -0.258040   0.116743  -0.110650   0.025696   0.000000
    4  C  1  Y    0.040981  -0.066935  -0.176339  -0.078073   0.000000
    5  C  1  Z    0.000000   0.000000   0.000000   0.000000  -0.164403
    6  C  1  S    1.295653   5.065657   2.141744   3.371544   0.000000
    7  C  1  X    0.064492  -1.507842   0.563917  -1.535324   0.000000
    8  C  1  Y   -0.463565   0.229706   2.673332   0.488766   0.000000
    9  C  1  Z    0.000000   0.000000   0.000000   0.000000   0.042900
   10  C  1 XX    0.038074   0.065775  -0.112263   0.025293   0.000000
   11  C  1 YY    0.005549  -0.082585   0.103834  -0.072849   0.000000
   12  C  1 ZZ   -0.043623   0.016810   0.008429   0.047556   0.000000
   13  C  1 XY    0.010572  -0.060879  -0.124697  -0.054862   0.000000
   14  C  1 XZ    0.000000   0.000000   0.000000   0.000000  -0.355350
   15  C  1 YZ    0.000000   0.000000   0.000000   0.000000   0.286928
   16  C  2  S   -0.007610   0.011842   0.024254   0.019228   0.000000
   17  C  2  S   -0.118628   1.162211   0.564301   0.536270   0.000000
   18  C  2  X    0.134828   0.232278   0.150139   0.193293   0.000000
   19  C  2  Y   -0.059621  -0.126917   0.195039  -0.088017   0.000000
   20  C  2  Z    0.000000   0.000000   0.000000   0.000000  -0.008038
   21  C  2  S   -0.807575  -4.375087  -2.516915  -2.084286   0.000000
   22  C  2  X    0.207225  -1.043430  -1.842806  -2.463268   0.000000
   23  C  2  Y    1.267111   1.212666  -1.631389   1.715262   0.000000
   24  C  2  Z    0.000000   0.000000   0.000000   0.000000  -0.046004
   25  C  2 XX   -0.063307  -0.076977  -0.059760   0.101084   0.000000
   26  C  2 YY   -0.029690   0.081105   0.119631  -0.139896   0.000000
   27  C  2 ZZ    0.092997  -0.004128  -0.059871   0.038812   0.000000
   28  C  2 XY   -0.093338   0.092928   0.008183   0.062323   0.000000
   29  C  2 XZ    0.000000   0.000000   0.000000   0.000000   0.575610
   30  C  2 YZ    0.000000   0.000000   0.000000   0.000000  -0.074301
   31  O  3  S   -0.063815  -0.003404   0.012470  -0.025953   0.000000
   32  O  3  S    0.495919   0.019793  -0.148429   0.362387   0.000000
   33  O  3  X   -0.558098   0.187451  -0.304797  -0.007181   0.000000
   34  O  3  Y   -0.455123  -0.250249   0.129365   0.673312   0.000000
   35  O  3  Z    0.000000   0.000000   0.000000   0.000000   0.019116
   36  O  3  S   -0.131692   0.392939  -0.427867  -0.539737   0.000000
   37  O  3  X    1.271139   0.078961   0.241897  -0.054771   0.000000
   38  O  3  Y    0.601406   0.518357  -0.258030  -1.917239   0.000000
   39  O  3  Z    0.000000   0.000000   0.000000   0.000000   0.122868
   40  O  3 XX   -0.013098   0.103053   0.010610  -0.022242   0.000000
   41  O  3 YY   -0.059582   0.042980  -0.085016  -0.055408   0.000000
   42  O  3 ZZ    0.072680  -0.146033   0.074406   0.077649   0.000000
   43  O  3 XY    0.043979  -0.030410  -0.061434   0.234752   0.000000
   44  O  3 XZ    0.000000   0.000000   0.000000   0.000000  -0.306449
   45  O  3 YZ    0.000000   0.000000   0.000000   0.000000  -0.302851
   46  H  4  S   -0.512384   0.179167  -0.169065  -0.471808   0.000000
   47  H  4  S    1.199064   0.229411  -0.080061  -0.505607   0.000000
   48  H  5  S   -0.313917  -0.007003   0.586286  -0.310848   0.000000
   49  H  5  S   -0.341918   0.057792   0.823480  -0.409468   0.000000
   50  H  6  S    0.203905   0.138979  -0.675524   0.035870   0.000000
   51  H  6  S   -0.392505  -0.443485  -0.859271   0.133725   0.000000
   52  H  7  S    0.035048  -0.200679   0.541367  -0.254362   0.000000
   53  H  7  S   -0.635109  -0.640890   0.638047   0.094854   0.000000

                     36         37         38         39         40
                    1.4780     1.6803     1.7171     1.7645     1.7847
                     A''        A'         A''        A''        A'  
    1  C  1  S    0.000000  -0.021509   0.000000   0.000000  -0.020901
    2  C  1  S    0.000000  -0.217929   0.000000   0.000000   0.201771
    3  C  1  X    0.000000  -0.021551   0.000000   0.000000  -0.234774
    4  C  1  Y    0.000000   0.123553   0.000000   0.000000   0.057122
    5  C  1  Z    0.049959   0.000000   0.016382  -0.058432   0.000000
    6  C  1  S    0.000000   1.559332   0.000000   0.000000   1.058551
    7  C  1  X    0.000000  -1.188122   0.000000   0.000000  -0.218666
    8  C  1  Y    0.000000  -1.256298   0.000000   0.000000  -0.162086
    9  C  1  Z    0.035185   0.000000  -0.025867   0.130410   0.000000
   10  C  1 XX    0.000000   0.114097   0.000000   0.000000  -0.050672
   11  C  1 YY    0.000000  -0.009771   0.000000   0.000000   0.263423
   12  C  1 ZZ    0.000000  -0.104326   0.000000   0.000000  -0.212752
   13  C  1 XY    0.000000   0.077914   0.000000   0.000000   0.117985
   14  C  1 XZ    0.406572   0.000000   0.399472  -0.134704   0.000000
   15  C  1 YZ    0.227887   0.000000   0.703212   0.505885   0.000000
   16  C  2  S    0.000000   0.019675   0.000000   0.000000  -0.010198
   17  C  2  S    0.000000   0.296142   0.000000   0.000000  -0.111715
   18  C  2  X    0.000000   0.087584   0.000000   0.000000  -0.015914
   19  C  2  Y    0.000000  -0.055580   0.000000   0.000000   0.064989
   20  C  2  Z    0.156193   0.000000  -0.048980  -0.106271   0.000000
   21  C  2  S    0.000000  -2.445663   0.000000   0.000000   0.276811
   22  C  2  X    0.000000   0.906781   0.000000   0.000000  -1.078622
   23  C  2  Y    0.000000   2.424433   0.000000   0.000000   1.213898
   24  C  2  Z   -0.107216   0.000000   0.000674  -0.143436   0.000000
   25  C  2 XX    0.000000  -0.062259   0.000000   0.000000  -0.011705
   26  C  2 YY    0.000000   0.162780   0.000000   0.000000   0.389913
   27  C  2 ZZ    0.000000  -0.100521   0.000000   0.000000  -0.378208
   28  C  2 XY    0.000000  -0.036856   0.000000   0.000000   0.363247
   29  C  2 XZ    0.074653   0.000000  -0.038200   0.002750   0.000000
   30  C  2 YZ    0.684951   0.000000  -0.142353  -0.222822   0.000000
   31  O  3  S    0.000000   0.024144   0.000000   0.000000   0.010154
   32  O  3  S    0.000000  -1.550516   0.000000   0.000000   0.042315
   33  O  3  X    0.000000  -0.177282   0.000000   0.000000  -0.201999
   34  O  3  Y    0.000000   0.017039   0.000000   0.000000   0.149398
   35  O  3  Z   -0.008490   0.000000  -0.040125  -0.048257   0.000000
   36  O  3  S    0.000000   3.620790   0.000000   0.000000  -0.409027
   37  O  3  X    0.000000   1.265280   0.000000   0.000000   0.080499
   38  O  3  Y    0.000000  -0.143886   0.000000   0.000000  -0.650862
   39  O  3  Z    0.127747   0.000000   0.016051   0.115720   0.000000
   40  O  3 XX    0.000000  -0.220526   0.000000   0.000000   0.491967
   41  O  3 YY    0.000000  -0.158565   0.000000   0.000000  -0.141477
   42  O  3 ZZ    0.000000   0.379090   0.000000   0.000000  -0.350490
   43  O  3 XY    0.000000  -0.016782   0.000000   0.000000  -0.421977
   44  O  3 XZ   -0.374298   0.000000   0.438072  -0.075331   0.000000
   45  O  3 YZ    0.104931   0.000000  -0.361781   0.825126   0.000000
   46  H  4  S    0.000000  -0.318814   0.000000   0.000000  -0.107070
   47  H  4  S    0.000000  -0.211504   0.000000   0.000000  -0.087284
   48  H  5  S    0.000000  -0.345797   0.000000   0.000000  -0.600423
   49  H  5  S    0.000000  -0.649876   0.000000   0.000000  -0.554327
   50  H  6  S    0.000000   0.124479   0.000000   0.000000  -0.075986
   51  H  6  S    0.000000   0.428548   0.000000   0.000000   0.018174
   52  H  7  S    0.000000  -0.346978   0.000000   0.000000  -0.296080
   53  H  7  S    0.000000  -0.604439   0.000000   0.000000  -0.051345

                     41         42         43         44         45
                    1.9151     1.9640     2.1586     2.2437     2.3201
                     A'         A'         A'         A''        A'  
    1  C  1  S   -0.009363   0.001516   0.014417   0.000000  -0.051495
    2  C  1  S   -0.410712   0.061061  -0.082381   0.000000  -0.403299
    3  C  1  X    0.291313  -0.110861   0.003830   0.000000  -0.026243
    4  C  1  Y   -0.160142  -0.193331  -0.058942   0.000000  -0.007540
    5  C  1  Z    0.000000   0.000000   0.000000   0.045058   0.000000
    6  C  1  S   -0.193489  -0.376091  -0.210819   0.000000   2.194808
    7  C  1  X    0.450144   0.005009  -0.536985   0.000000  -0.979013
    8  C  1  Y    0.337061  -0.375655  -0.130845   0.000000   0.109067
    9  C  1  Z    0.000000   0.000000   0.000000   0.267431   0.000000
   10  C  1 XX    0.305751  -0.501056   0.073861   0.000000   0.219566
   11  C  1 YY    0.285751   0.485103  -0.414192   0.000000   0.499196
   12  C  1 ZZ   -0.591502   0.015953   0.340331   0.000000  -0.718762
   13  C  1 XY    0.029486  -0.277972  -0.746195   0.000000  -0.308983
   14  C  1 XZ    0.000000   0.000000   0.000000  -0.669809   0.000000
   15  C  1 YZ    0.000000   0.000000   0.000000   0.149781   0.000000
   16  C  2  S   -0.026669  -0.000248  -0.005075   0.000000   0.032087
   17  C  2  S   -0.519868  -0.115034  -0.488666   0.000000   0.250613
   18  C  2  X    0.026375   0.026584  -0.175232   0.000000  -0.458179
   19  C  2  Y    0.082599  -0.168239   0.143309   0.000000  -0.021389
   20  C  2  Z    0.000000   0.000000   0.000000  -0.155513   0.000000
   21  C  2  S    1.168518   0.206624   0.101318   0.000000  -1.614958
   22  C  2  X    0.120505   0.155589   0.353287   0.000000  -0.639916
   23  C  2  Y   -0.960696  -0.357536   0.540496   0.000000   0.899870
   24  C  2  Z    0.000000   0.000000   0.000000  -0.422273   0.000000
   25  C  2 XX    0.378586   0.434844   0.262363   0.000000  -0.063034
   26  C  2 YY    0.182069  -0.480199  -0.021576   0.000000  -0.338396
   27  C  2 ZZ   -0.560654   0.045355  -0.240787   0.000000   0.401429
   28  C  2 XY   -0.142879   0.424747  -0.294190   0.000000  -0.338643
   29  C  2 XZ    0.000000   0.000000   0.000000  -0.017968   0.000000
   30  C  2 YZ    0.000000   0.000000   0.000000   0.743825   0.000000
   31  O  3  S    0.007569   0.032282  -0.002186   0.000000  -0.012486
   32  O  3  S    0.014698  -0.253303  -0.390256   0.000000   0.214292
   33  O  3  X   -0.024486  -0.235920  -0.079338   0.000000   0.159003
   34  O  3  Y   -0.098326  -0.176596   0.036504   0.000000   0.137044
   35  O  3  Z    0.000000   0.000000   0.000000  -0.085841   0.000000
   36  O  3  S   -0.380593   0.028870   0.920108   0.000000  -0.044332
   37  O  3  X   -0.251388   0.042680   0.342834   0.000000  -0.117470
   38  O  3  Y    0.002960   0.325066  -0.376378   0.000000  -0.402049
   39  O  3  Z    0.000000   0.000000   0.000000   0.309959   0.000000
   40  O  3 XX   -0.180829   0.017601   0.225976   0.000000   0.090738
   41  O  3 YY    0.386777  -0.064747   0.102196   0.000000  -0.295113
   42  O  3 ZZ   -0.205949   0.047146  -0.328172   0.000000   0.204374
   43  O  3 XY    0.378038   0.156891  -0.254973   0.000000  -0.499397
   44  O  3 XZ    0.000000   0.000000   0.000000   0.632298   0.000000
   45  O  3 YZ    0.000000   0.000000   0.000000   0.066722   0.000000
   46  H  4  S   -0.197356   0.203884  -0.418155   0.000000   0.076606
   47  H  4  S   -0.100846  -0.069323  -0.079481   0.000000  -0.137296
   48  H  5  S    0.021007   0.523694  -0.119123   0.000000   0.133759
   49  H  5  S    0.208377  -0.016607  -0.279392   0.000000  -0.304828
   50  H  6  S   -0.310656   0.468813   0.571791   0.000000  -0.077760
   51  H  6  S   -0.233586  -0.003430   0.063939   0.000000   0.061136
   52  H  7  S   -0.117853  -0.510034   0.221590   0.000000  -0.492617
   53  H  7  S    0.097110   0.048470  -0.046479   0.000000  -0.045438

                     46         47         48         49         50
                    2.4374     2.5322     2.6565     2.8065     2.9654
                     A'         A''        A'         A'         A'  
    1  C  1  S    0.013926   0.000000   0.036651  -0.044145  -0.024663
    2  C  1  S   -0.008727   0.000000   0.045204   0.336907   0.164998
    3  C  1  X    0.106948   0.000000   0.239966  -0.575898  -0.252508
    4  C  1  Y   -0.086681   0.000000  -0.079704   0.288456   0.243633
    5  C  1  Z    0.000000  -0.119228   0.000000   0.000000   0.000000
    6  C  1  S    0.036902   0.000000  -1.612354   1.498420   0.440621
    7  C  1  X    0.113448   0.000000   0.635533  -0.717195  -0.398322
    8  C  1  Y   -0.355386   0.000000  -0.249472   0.604682  -0.349225
    9  C  1  Z    0.000000  -0.112452   0.000000   0.000000   0.000000
   10  C  1 XX   -0.461223   0.000000  -0.743212   0.590269  -0.206935
   11  C  1 YY    0.335246   0.000000   0.444641  -0.227615   0.391623
   12  C  1 ZZ    0.125976   0.000000   0.298571  -0.362654  -0.184689
   13  C  1 XY    0.321568   0.000000  -0.202305  -0.565946  -0.600821
   14  C  1 XZ    0.000000   0.495614   0.000000   0.000000   0.000000
   15  C  1 YZ    0.000000  -0.379694   0.000000   0.000000   0.000000
   16  C  2  S    0.011753   0.000000  -0.062072   0.038393   0.055130
   17  C  2  S    0.401473   0.000000   0.362804   0.077574  -0.537242
   18  C  2  X    0.354196   0.000000  -0.373936  -0.810058   0.320124
   19  C  2  Y   -0.197948   0.000000  -0.344940   0.106725   0.320019
   20  C  2  Z    0.000000   0.005967   0.000000   0.000000   0.000000
   21  C  2  S   -0.622040   0.000000   2.357272  -1.228363  -1.655604
   22  C  2  X    0.338464   0.000000   0.120555  -1.186186   0.722491
   23  C  2  Y    0.653524   0.000000  -0.976638   0.235159   0.536912
   24  C  2  Z    0.000000  -0.023165   0.000000   0.000000   0.000000
   25  C  2 XX   -0.096293   0.000000   0.059155  -0.397523  -1.187230
   26  C  2 YY   -0.184516   0.000000   0.581818   0.107268   0.682621
   27  C  2 ZZ    0.280808   0.000000  -0.640974   0.290255   0.504609
   28  C  2 XY   -0.366784   0.000000  -0.121959   1.010208  -0.266037
   29  C  2 XZ    0.000000   0.983592   0.000000   0.000000   0.000000
   30  C  2 YZ    0.000000  -0.007566   0.000000   0.000000   0.000000
   31  O  3  S   -0.027963   0.000000   0.015851   0.013089  -0.046105
   32  O  3  S   -0.539992   0.000000   0.755002   0.138175  -0.421977
   33  O  3  X    0.031108   0.000000   0.128747  -0.064036   0.150256
   34  O  3  Y    0.099066   0.000000   0.039365   0.033931   0.020710
   35  O  3  Z    0.000000  -0.023794   0.000000   0.000000   0.000000
   36  O  3  S    1.657099   0.000000  -1.915002  -0.618730   1.824228
   37  O  3  X    0.548022   0.000000  -1.129828  -0.433054   0.998529
   38  O  3  Y   -0.692807   0.000000  -0.191914  -0.525216   0.782346
   39  O  3  Z    0.000000   0.248658   0.000000   0.000000   0.000000
   40  O  3 XX   -0.172159   0.000000  -0.683528  -0.700520   0.494224
   41  O  3 YY    0.834670   0.000000   0.174405   0.683476  -0.147623
   42  O  3 ZZ   -0.662511   0.000000   0.509122   0.017044  -0.346601
   43  O  3 XY   -0.215751   0.000000  -0.243823  -0.179398   0.790718
   44  O  3 XZ    0.000000   0.565771   0.000000   0.000000   0.000000
   45  O  3 YZ    0.000000   0.340825   0.000000   0.000000   0.000000
   46  H  4  S   -1.135319   0.000000   0.140532  -0.474849   0.148655
   47  H  4  S    0.052380   0.000000  -0.056547  -0.029091   0.149962
   48  H  5  S    0.079549   0.000000  -0.384927   0.041702  -0.243707
   49  H  5  S   -0.180464   0.000000   0.344276  -0.013885   0.126597
   50  H  6  S    0.008141   0.000000   0.364140  -0.021357   0.283788
   51  H  6  S   -0.001882   0.000000  -0.077164   0.022800   0.027209
   52  H  7  S   -0.238188   0.000000  -0.185733   0.073178  -0.277011
   53  H  7  S   -0.061278   0.000000   0.135719   0.124664  -0.127097
 ...... END OF RHF CALCULATION ......
 STEP CPU TIME =     6.16 TOTAL CPU TIME =          6.2 (      0.1 MIN)
 TOTAL WALL CLOCK TIME=          6.3 SECONDS, CPU UTILIZATION IS    98.10%

     ---------------------------------------------------------------------
     PROPERTIES FOR THE B3LYP    DFT FUNCTIONAL (RHF  TYPE) DENSITY MATRIX
     ---------------------------------------------------------------------

          -----------------
          ENERGY COMPONENTS
          -----------------

         WAVEFUNCTION NORMALIZATION =       1.0000000000

                ONE ELECTRON ENERGY =    -347.0064074508
                TWO ELECTRON ENERGY =     123.1904218949
           NUCLEAR REPULSION ENERGY =      70.1017160314
                                      ------------------
                       TOTAL ENERGY =    -153.7142695246

 ELECTRON-ELECTRON POTENTIAL ENERGY =     123.1904218949
  NUCLEUS-ELECTRON POTENTIAL ENERGY =    -499.8425973877
   NUCLEUS-NUCLEUS POTENTIAL ENERGY =      70.1017160314
                                      ------------------
             TOTAL POTENTIAL ENERGY =    -306.5504594614
               TOTAL KINETIC ENERGY =     152.8361899369
                 VIRIAL RATIO (V/T) =       2.0057452334

          ---------------------------------------
          MULLIKEN AND LOWDIN POPULATION ANALYSES
          ---------------------------------------

     ATOMIC MULLIKEN POPULATION IN EACH MOLECULAR ORBITAL

                      1          2          3          4          5

                  2.000000   2.000000   2.000000   2.000000   2.000000

    1            -0.000098   0.001796   1.996459   0.028149   0.865660
    2             0.001947   1.998911   0.001741   0.224968   0.733903
    3             1.997736  -0.001663  -0.000002   1.637281   0.177689
    4             0.000369   0.000003   0.000002   0.108382   0.029836
    5             0.000041   0.000923   0.000008   0.000783   0.057106
    6            -0.000001  -0.000009   0.000885   0.000886   0.077449
    7             0.000005   0.000039   0.000907  -0.000449   0.058358

                      6          7          8          9         10

                  2.000000   2.000000   2.000000   2.000000   2.000000

    1             0.326167   0.526593   0.589046   0.119115   0.634773
    2             0.488799   0.484841   0.430589   0.536900   0.229381
    3             0.684759   0.417662   0.547189   1.343985   0.134919
    4             0.202812   0.116537   0.006162   0.000000   0.027890
    5             0.133477   0.156762   0.122210   0.000000   0.254341
    6             0.065559   0.022664   0.304726   0.000000   0.285641
    7             0.098428   0.274942   0.000077   0.000000   0.433054

                     11         12

                  2.000000   2.000000

    1             0.272552   1.041589
    2             0.257899   0.449229
    3             1.137876   0.509182
    4             0.099479   0.000000
    5             0.125057   0.000000
    6             0.097865   0.000000
    7             0.009271   0.000000

               ----- POPULATIONS IN EACH AO -----
                             MULLIKEN      LOWDIN
              1  C  1  S      1.99634     1.98057
              2  C  1  S      0.67286     0.36008
              3  C  1  X      0.74208     0.65490
              4  C  1  Y      0.72122     0.63471
              5  C  1  Z      0.62787     0.59134
              6  C  1  S      0.56631     0.33539
              7  C  1  X      0.26651     0.39044
              8  C  1  Y      0.25258     0.43852
              9  C  1  Z      0.52814     0.55705
             10  C  1 XX      0.00401     0.18159
             11  C  1 YY      0.01056     0.17342
             12  C  1 ZZ      0.00861     0.10392
             13  C  1 XY      0.00367     0.01820
             14  C  1 XZ      0.00103     0.00659
             15  C  1 YZ      0.00000     0.00187
             16  C  2  S      1.99610     1.97834
             17  C  2  S      0.69206     0.35707
             18  C  2  X      0.68354     0.59408
             19  C  2  Y      0.74020     0.65090
             20  C  2  Z      0.57466     0.51508
             21  C  2  S      0.41133     0.29517
             22  C  2  X      0.08497     0.26590
             23  C  2  Y      0.19734     0.37491
             24  C  2  Z      0.39200     0.44451
             25  C  2 XX      0.00510     0.19352
             26  C  2 YY      0.02510     0.18042
             27  C  2 ZZ      0.01724     0.10070
             28  C  2 XY      0.01746     0.03564
             29  C  2 XZ      0.00202     0.03857
             30  C  2 YZ      0.00000     0.00356
             31  O  3  S      1.99717     1.97727
             32  O  3  S      0.90928     0.71405
             33  O  3  X      0.94473     0.88806
             34  O  3  Y      0.86988     0.80225
             35  O  3  Z      1.11217     1.08054
             36  O  3  S      0.95348     0.44979
             37  O  3  X      0.57076     0.60712
             38  O  3  Y      0.46531     0.55020
             39  O  3  Z      0.73546     0.75086
             40  O  3 XX      0.00467     0.17680
             41  O  3 YY      0.01388     0.19998
             42  O  3 ZZ      0.00429     0.15935
             43  O  3 XY      0.00508     0.00888
             44  O  3 XZ      0.00046     0.00853
             45  O  3 YZ      0.00000     0.00152
             46  H  4  S      0.47414     0.43387
             47  H  4  S      0.11733     0.21282
             48  H  5  S      0.53416     0.49200
             49  H  5  S      0.31655     0.35037
             50  H  6  S      0.52490     0.47483
             51  H  6  S      0.33076     0.35503
             52  H  7  S      0.52623     0.47951
             53  H  7  S      0.34841     0.36944

          ----- MULLIKEN ATOMIC OVERLAP POPULATIONS -----
          (OFF-DIAGONAL ELEMENTS NEED TO BE MULTIPLIED BY 2)

             1           2           3           4           5

    1    5.1356658
    2    0.6511179   4.5641864
    3   -0.0512653   0.3287684   8.1084612
    4   -0.0045722  -0.0400041   0.2484156   0.3743163
    5   -0.0584076   0.3838872  -0.0446191   0.0070764   0.5616437
    6    0.3600183  -0.0125322   0.0030288  -0.0000282  -0.0035231
    7    0.3692438  -0.0363164  -0.0061769   0.0062686   0.0046509

             6           7

    6    0.5450669
    7   -0.0363653   0.5733286

          TOTAL MULLIKEN AND LOWDIN ATOMIC POPULATIONS
       ATOM         MULL.POP.    CHARGE          LOW.POP.     CHARGE
    1 C             6.401801   -0.401801         6.428588   -0.428588
    2 C             5.839107    0.160893         6.028363   -0.028363
    3 O             8.586613   -0.586613         8.375179   -0.375179
    4 H             0.591472    0.408528         0.646690    0.353310
    5 H             0.850708    0.149292         0.842366    0.157634
    6 H             0.855665    0.144335         0.829861    0.170139
    7 H             0.874633    0.125367         0.848953    0.151047

          MULLIKEN SPHERICAL HARMONIC POPULATIONS
       ATOM           S       P       D      F      G      H      I    TOTAL
    1 C             3.24    3.14    0.03   0.00   0.00   0.00   0.00    6.40
    2 C             3.10    2.67    0.07   0.00   0.00   0.00   0.00    5.84
    3 O             3.86    4.70    0.03   0.00   0.00   0.00   0.00    8.59
    4 H             0.59    0.00    0.00   0.00   0.00   0.00   0.00    0.59
    5 H             0.85    0.00    0.00   0.00   0.00   0.00   0.00    0.85
    6 H             0.86    0.00    0.00   0.00   0.00   0.00   0.00    0.86
    7 H             0.87    0.00    0.00   0.00   0.00   0.00   0.00    0.87

          -------------------------------
          BOND ORDER AND VALENCE ANALYSIS     BOND ORDER THRESHOLD=0.050
          -------------------------------

                   BOND                       BOND                       BOND
  ATOM PAIR DIST  ORDER      ATOM PAIR DIST  ORDER      ATOM PAIR DIST  ORDER
    1   2  1.335  1.893        1   3  2.417  0.101        1   6  1.084  0.934
    1   7  1.088  0.940        2   3  1.363  1.051        2   5  1.087  0.937
    3   4  0.972  0.777

                       TOTAL       BONDED        FREE
      ATOM            VALENCE     VALENCE     VALENCE
    1 C                 3.860       3.860       0.000
    2 C                 3.884       3.884      -0.000
    3 O                 1.938       1.938       0.000
    4 H                 0.802       0.802       0.000
    5 H                 0.937       0.937       0.000
    6 H                 0.947       0.947       0.000
    7 H                 0.947       0.947       0.000

          ---------------------
          ELECTROSTATIC MOMENTS
          ---------------------

 POINT   1           X           Y           Z (BOHR)    CHARGE
                 0.000000   -0.000000    0.000000        0.00 (A.U.)
         DX          DY          DZ         /D/  (DEBYE)
     0.439094   -0.893734    0.000000    0.995774
 ...... END OF PROPERTY EVALUATION ......
 STEP CPU TIME =     0.00 TOTAL CPU TIME =          6.2 (      0.1 MIN)
 TOTAL WALL CLOCK TIME=          6.3 SECONDS, CPU UTILIZATION IS    98.10%

 BEGINNING ONE ELECTRON GRADIENT...
 ..... END OF 1-ELECTRON GRADIENT ......
 STEP CPU TIME =     0.01 TOTAL CPU TIME =          6.2 (      0.1 MIN)
 TOTAL WALL CLOCK TIME=          6.3 SECONDS, CPU UTILIZATION IS    98.10%

          ----------------------
          GRADIENT OF THE ENERGY
          ----------------------
 MEMORY FOR GRID POINT CONTRIBUTIONS TO THE DFT GRADIENT=    269593 WORDS.
 STEP CPU TIME =     1.09 TOTAL CPU TIME =          7.3 (      0.1 MIN)
 TOTAL WALL CLOCK TIME=          7.4 SECONDS, CPU UTILIZATION IS    98.38%

 THE MINIMUM MEMORY REQUIRED FOR THIS RUN IS      88877 WORDS.
 USING     991233 WORDS FOR 2E- DERIVATIVE INTEGRAL CONTRIBUTIONS.
 THE COARSE/FINE SCHWARZ SCREENINGS SKIPPED          652/        1447 BLOCKS.
 THE NUMBER OF GRADIENT INTEGRAL BLOCKS COMPUTED WAS     19867
 ...... END OF 2-ELECTRON GRADIENT ......
 STEP CPU TIME =     0.18 TOTAL CPU TIME =          7.5 (      0.1 MIN)
 TOTAL WALL CLOCK TIME=          7.6 SECONDS, CPU UTILIZATION IS    98.29%
 THE VIB 0 GRADIENT RMS = 2.04602318E-04

 THE VIB 0 GEOMETRY GRADIENT IS

 UNITS ARE HARTREE/BOHR    E'X               E'Y               E'Z 
    1 C               -0.000314683       0.000086918       0.000000000
    2 C                0.000705220       0.000046424       0.000000000
    3 O               -0.000434372      -0.000235231       0.000000000
    4 H                0.000085286       0.000109386       0.000000000
    5 H                0.000029129      -0.000061741       0.000000000
    6 H               -0.000058329       0.000034150       0.000000000
    7 H               -0.000012251       0.000020095       0.000000000
  $VIB   
          IVIB=   0 IATOM=   0 ICOORD=   0 E=     -153.7142695246
 -3.146826096E-04 8.691811425E-05 0.000000000E+00 7.052195623E-04 4.642372601E-05
  0.000000000E+00-4.343718062E-04-2.352313065E-04 0.000000000E+00 8.528608474E-05
  1.093861988E-04 0.000000000E+00 2.912944329E-05-6.174114990E-05 0.000000000E+00
 -5.832918888E-05 3.414979084E-05 0.000000000E+00-1.225148563E-05 2.009462650E-05
  0.000000000E+00
  4.390944924E-01-8.937342909E-01 0.000000000E+00
1   ATOM  1
                                        -------------------
   COORD  1                             NUCLEAR COORDINATES
                                        -------------------
     VIB  1

                       ATOM             X              Y              Z

                 1  C                2.384057      -0.391849       0.000000
                 2  C                0.156932       0.809945       0.000000
                 3  O               -2.190764      -0.251271       0.000000
                 4  H               -2.008910      -2.078719       0.000000
                 5  H                0.005043       2.857811       0.000000
                 6  H                4.122924       0.674008       0.000000
                 7  H                2.513893      -2.443443       0.000000
 ...... END OF ONE-ELECTRON INTEGRALS ......
 STEP CPU TIME =     0.00 TOTAL CPU TIME =          7.5 (      0.1 MIN)
 TOTAL WALL CLOCK TIME=          7.6 SECONDS, CPU UTILIZATION IS    98.29%
  ...... END OF TWO-ELECTRON INTEGRALS .....
 STEP CPU TIME =     0.01 TOTAL CPU TIME =          7.5 (      0.1 MIN)
 TOTAL WALL CLOCK TIME=          7.6 SECONDS, CPU UTILIZATION IS    98.42%

          --------------------------
             R-B3LYP SCF CALCULATION
          --------------------------
         DENSITY MATRIX CONVERGENCE THRESHOLD=  2.00E-05
     COARSE -> FINE DFT GRID SWITCH THRESHOLD=  3.00E-04 (SWITCH IN $DFT)
                   HF -> DFT SWITCH THRESHOLD=  5.00E-03 (SWOFF IN $DFT)

 DIRECT SCF CALCULATION, SCHWRZ=T   FDIFF=T,  DIRTHR=  0.00E+00 NITDIR=10

                                                                                   NONZERO     BLOCKS
 ITER EX DEM     TOTAL ENERGY        E CHANGE  DENSITY CHANGE    DIIS ERROR      INTEGRALS    SKIPPED
          * * *   INITIATING DIIS PROCEDURE   * * *
   1  0  0     -153.7142198885  -153.7142198885   0.001579188   0.000951753         549226        573
   2  1  0     -153.7142304607    -0.0000105722   0.001098486   0.000668585         542946       1619
   3  2  0     -153.7142305971    -0.0000001364   0.000686545   0.000600641         538398       2058
   4  3  0     -153.7142316158    -0.0000010187   0.000165567   0.000115155         535882       2293
   5  4  0     -153.7142316512    -0.0000000354   0.000044864   0.000039982         530167       2782
   6  5  0     -153.7142316591    -0.0000000080   0.000010004   0.000009484         525321       3237
   7  6  0     -153.7142316596    -0.0000000004   0.000001741   0.000001363         516577       3924

          -----------------
          DENSITY CONVERGED
          -----------------
     TIME TO FORM FOCK OPERATORS=       4.3 SECONDS (       0.6 SEC/ITER)
     FOCK TIME ON FIRST ITERATION=       0.6, LAST ITERATION=       0.6
     TIME TO SOLVE SCF EQUATIONS=       0.0 SECONDS (       0.0 SEC/ITER)

 FINAL R-B3LYP ENERGY IS     -153.7142316596 AFTER   7 ITERATIONS
 DFT EXCHANGE + CORRELATION ENERGY =       -16.8369666129
 TOTAL ELECTRON NUMBER             =        23.9999879552
 ...... END OF RHF CALCULATION ......
 STEP CPU TIME =     4.40 TOTAL CPU TIME =         11.9 (      0.2 MIN)
 TOTAL WALL CLOCK TIME=         12.0 SECONDS, CPU UTILIZATION IS    98.67%
 ..... END OF 1-ELECTRON GRADIENT ......
 STEP CPU TIME =     0.01 TOTAL CPU TIME =         11.9 (      0.2 MIN)
 TOTAL WALL CLOCK TIME=         12.0 SECONDS, CPU UTILIZATION IS    98.67%
 MEMORY FOR GRID POINT CONTRIBUTIONS TO THE DFT GRADIENT=    269593 WORDS.
 STEP CPU TIME =     1.06 TOTAL CPU TIME =         12.9 (      0.2 MIN)
 TOTAL WALL CLOCK TIME=         13.1 SECONDS, CPU UTILIZATION IS    98.85%
 ...... END OF 2-ELECTRON GRADIENT ......
 STEP CPU TIME =     0.17 TOTAL CPU TIME =         13.1 (      0.2 MIN)
 TOTAL WALL CLOCK TIME=         13.3 SECONDS, CPU UTILIZATION IS    98.79%

 UNITS ARE HARTREE/BOHR    E'X               E'Y               E'Z 
    1 C                0.007877210      -0.000653831       0.000000000
    2 C               -0.003649898       0.001895259       0.000000000
    3 O               -0.001008723      -0.000181535       0.000000000
    4 H                0.000101830       0.000151764       0.000000000
    5 H                0.000059910      -0.000064110       0.000000000
    6 H               -0.002776547      -0.001350099       0.000000000
    7 H               -0.000603781       0.000202553       0.000000000
  $VIB   
          IVIB=   1 IATOM=   1 ICOORD=   1 E=     -153.7142316596
  7.877209778E-03-6.538314524E-04 0.000000000E+00-3.649898240E-03 1.895259027E-03
[...]
                   Y-0.022277 0.357410 0.000000
                   Z-0.000000 0.000000 0.018573

          ------------------------          ----------------
          DIPOLE DERIVATIVE TENSOR          (DEBYE/ANGSTROM)
          ------------------------          ----------------

        ATOM                 MU-X           MU-Y           MU-Z
     C          D/DX    -1.967113537    0.186315155    0.000000000
                D/DY     1.094537744   -0.063769293    0.000000000
                D/DZ     0.000000000    0.000000000   -2.169034917
     C          D/DX     6.263335604    0.240513290    0.000000000
                D/DY     1.378574695    1.812033176    0.000000000
                D/DZ     0.000000000    0.000000000    0.218024264
     O          D/DX    -5.902974351   -0.620611548    0.000000000
                D/DY    -2.447112913   -1.396402520    0.000000000
                D/DZ    -0.000000000    0.000000000   -1.939956022
     H          D/DX     1.385278967    0.491207861    0.000000000
                D/DY     0.338328030    0.586197740    0.000000000
                D/DZ    -0.000000000   -0.000000000    1.705449635
     H          D/DX     0.151582939    0.111300108    0.000000000
                D/DY     0.006903883   -0.404522266    0.000000000
                D/DZ    -0.000000000    0.000000000    0.630482390
     H          D/DX    -0.118802373   -0.217381951    0.000000000
                D/DY    -0.334316343    0.030667386    0.000000000
                D/DZ    -0.000000000    0.000000000    0.750119784
     H          D/DX     0.190881991   -0.190060989    0.000000000
                D/DY    -0.035576243   -0.564018215    0.000000000
                D/DZ    -0.000000000   -0.000000000    0.805277217

          --------------------------------------------------------
          NORMAL COORDINATE ANALYSIS IN THE HARMONIC APPROXIMATION
          --------------------------------------------------------

     *******************************************************
     * THIS IS NOT A STATIONARY POINT ON THE MOLECULAR PES *
     *     THE VIBRATIONAL ANALYSIS IS NOT VALID !!!       *
     *******************************************************

          ATOMIC WEIGHTS (AMU)

    1     C                12.00000
    2     C                12.00000
    3     O                15.99491
    4     H                 1.00782
    5     H                 1.00782
    6     H                 1.00782
    7     H                 1.00782

 MODES    1 TO    6 ARE TAKEN AS ROTATIONS AND TRANSLATIONS.

 ANALYZING SYMMETRY OF NORMAL MODES...

 --- SYMMETRY FOR NORMAL MODES ---
 INCLUDING TRANSLATION AND ROTATION
   14*A'     7*A'' 
 EXCLUDING TRANSLATION AND ROTATION (SAYVETZ < 0.01)
    9*A'     3*A'' 

     FREQUENCIES IN CM**-1, IR INTENSITIES IN DEBYE**2/AMU-ANGSTROM**2,
     REDUCED MASSES IN AMU.

     *******************************************************
     * THIS IS NOT A STATIONARY POINT ON THE MOLECULAR PES *
     *     THE VIBRATIONAL ANALYSIS IS NOT VALID !!!       *
     *******************************************************

                            1           2           3           4           5
       FREQUENCY:        20.70        9.32        0.04        0.01        0.02  
        SYMMETRY:         A''         A'          A'          A''         A'  
    REDUCED MASS:      1.87446     3.49365     6.30729     6.29025     6.28143
    IR INTENSITY:      0.08736     0.01735     0.00000     0.00000     0.00000

  1   C            X  0.00000000 -0.02865828  0.09418811 -0.00000023  0.11744639
                   Y  0.00000000 -0.16720921  0.11674598  0.00000016 -0.09495429
                   Z  0.15668438  0.00000000  0.00000003  0.15065989  0.00000028
  2   C            X -0.00000000  0.05610858  0.09459144 -0.00000023  0.11776943
                   Y -0.00000000 -0.01089940  0.11750224  0.00000016 -0.09435882
                   Z -0.11945302 -0.00000000  0.00000003  0.15106014  0.00000028
  3   O            X -0.00000000 -0.01836290  0.09422294 -0.00000023  0.11747685
                   Y -0.00000000  0.15373357  0.11828892  0.00000015 -0.09372866
                   Z -0.04876131 -0.00000000  0.00000003  0.15049591  0.00000028
  4   H            X -0.00000000 -0.14676036  0.09362312 -0.00000023  0.11699242
                   Y -0.00000000  0.14098444  0.11822539  0.00000015 -0.09377920
                   Z  0.24207974 -0.00000000  0.00000003  0.14977961  0.00000028
  5   H            X -0.00000000  0.19929303  0.09527772 -0.00000024  0.11831458
                   Y -0.00000000 -0.00029624  0.11755230  0.00000015 -0.09431956
                   Z -0.44454090 -0.00000000  0.00000003  0.15189873  0.00000028
  6   H            X  0.00000000  0.04707246  0.09454612 -0.00000023  0.11772925
                   Y  0.00000000 -0.29158828  0.11614209  0.00000016 -0.09542662
                   Z  0.06158020  0.00000000  0.00000003  0.15119125  0.00000028
  7   H            X  0.00000000 -0.17445801  0.09347104 -0.00000023  0.11689031
                   Y  0.00000000 -0.17721986  0.11669356  0.00000016 -0.09499612
                   Z  0.48195202  0.00000000  0.00000003  0.14981197  0.00000028

 TRANS. SAYVETZ    X  0.00000000 -0.03974791  4.15230941 -0.00001031  5.17522527
                   Y  0.00000000 -0.00903618  5.17527945  0.00000682 -4.15242229
                   Z  0.01058343 -0.00000000  0.00000113  6.63520644  0.00001231
               TOTAL  0.01058343  0.04076210  6.63514814  6.63520644  6.63517652

   ROT. SAYVETZ    X -4.63430450 -0.00000000  0.00000000  0.01241039  0.00000002
                   Y -6.93198093 -0.00000000 -0.00000000 -0.00834787 -0.00000002
                   Z  0.00000000-14.21407448 -0.06838647  0.00000011 -0.05430118
               TOTAL  8.33841339 14.21407448  0.06838647  0.01495676  0.05430118

                            6           7           8           9          10
       FREQUENCY:        12.09      481.22      490.29      714.61      813.78  
        SYMMETRY:         A''         A''         A'          A''         A'' 
    REDUCED MASS:      2.84492     1.11616     2.06274     1.53256     1.37559
    IR INTENSITY:      0.01269     2.87142     0.31254     0.00096     1.52928

  1   C            X  0.00000000  0.00000000 -0.10530476  0.00000000  0.00000000
                   Y -0.00000000  0.00000000 -0.02410642 -0.00000000 -0.00000000
                   Z -0.11549149 -0.02550385 -0.00000000  0.02485922 -0.14593974
  2   C            X  0.00000000  0.00000000 -0.00729086  0.00000000 -0.00000000
                   Y -0.00000000 -0.00000000  0.13310893 -0.00000000  0.00000000
                   Z -0.08808856  0.04136270  0.00000000 -0.15348215  0.05474671
  3   O            X -0.00000000 -0.00000000  0.09211176 -0.00000000 -0.00000000
                   Y  0.00000000  0.00000000 -0.06360469  0.00000000  0.00000000
                   Z  0.16617065 -0.06887842 -0.00000000  0.07151794 -0.00440277
  4   H            X -0.00000000 -0.00000000  0.32233055  0.00000000  0.00000000
                   Y  0.00000000  0.00000000 -0.03987391  0.00000000  0.00000000
                   Z  0.33274435  0.88495686  0.00000000 -0.06900375 -0.00490899
  5   H            X  0.00000000  0.00000000 -0.06372546  0.00000000  0.00000000
                   Y -0.00000000 -0.00000000  0.12740319  0.00000000 -0.00000000
                   Z -0.27674581  0.10756031  0.00000000  0.13897001 -0.02172488
  6   H            X  0.00000000 -0.00000000  0.07227770 -0.00000000  0.00000000
                   Y -0.00000000  0.00000000 -0.32368404  0.00000000 -0.00000000
                   Z -0.33169913  0.16814103  0.00000000  0.68569793  0.55081203
  7   H            X  0.00000000  0.00000000 -0.45200365  0.00000000  0.00000000
                   Y -0.00000000  0.00000000 -0.05232735  0.00000000 -0.00000000
                   Z  0.07390756 -0.25658569 -0.00000000 -0.35910929  0.63147010

 TRANS. SAYVETZ    X -0.00000000 -0.00000000  0.00010333 -0.00000000 -0.00000000
                   Y  0.00000000  0.00000000 -0.00006060 -0.00000000 -0.00000000
                   Z  0.01155206 -0.00025097  0.00000000  0.00010577 -0.00004691
               TOTAL  0.01155206  0.00025097  0.00011979  0.00010577  0.00004691

   ROT. SAYVETZ    X -2.88244005  0.00066333 -0.00000000 -0.00114216  0.00286756
                   Y 11.14499776 -0.02231388  0.00000000  0.00710373  0.00183056
                   Z -0.00000000 -0.00000000  0.03905605 -0.00000000 -0.00000000
               TOTAL 11.51170864  0.02232373  0.03905605  0.00719497  0.00340204

                           11          12          13          14          15
       FREQUENCY:       967.74      998.62     1136.69     1341.89     1374.45  
        SYMMETRY:         A'          A''         A'          A'          A'  
    REDUCED MASS:      1.69221     1.13796     2.12772     1.40451     1.32208
    IR INTENSITY:      0.20407     0.61175     4.31597     0.16321     0.03725

  1   C            X  0.12364631  0.00000000 -0.03689686 -0.00943126  0.04571167
                   Y  0.06581079  0.00000000  0.06486474  0.09071670 -0.01580559
                   Z -0.00000000  0.01340968 -0.00000000 -0.00000000  0.00000000
  2   C            X  0.04005257  0.00000000 -0.05167749 -0.03397922 -0.09540898
                   Y  0.01261331 -0.00000000 -0.11265849 -0.12335974 -0.05807027
                   Z  0.00000000 -0.10109751  0.00000000 -0.00000000 -0.00000000
  3   O            X -0.10161791 -0.00000000  0.13375866 -0.01338794  0.01050562
                   Y -0.03124385 -0.00000000  0.04331228  0.02360001  0.06988787
                   Z  0.00000000 -0.00144291  0.00000000 -0.00000000 -0.00000000
  4   H            X -0.21582269 -0.00000000 -0.48376516  0.42829354  0.55693190
                   Y -0.04602996 -0.00000000 -0.00881418  0.05536335  0.11179652
                   Z -0.00000000  0.11200967  0.00000000 -0.00000000  0.00000000
  5   H            X -0.16019289 -0.00000000 -0.27458720  0.60386136 -0.52396796
                   Y -0.00141953 -0.00000000 -0.13053294 -0.08560935 -0.08928861
                   Z -0.00000000  0.81461882 -0.00000000  0.00000000  0.00000000
  6   H            X  0.41538558  0.00000000  0.00609900  0.04598299  0.18262090
                   Y -0.41179687 -0.00000000 -0.02675486 -0.01865345 -0.23188312
                   Z  0.00000000 -0.23176190  0.00000000 -0.00000000 -0.00000000
  7   H            X -0.37593039 -0.00000000 -0.31575335 -0.34878495  0.20942838
                   Y  0.02122217  0.00000000  0.04787235  0.06302980 -0.02017639
                   Z -0.00000000  0.37215838 -0.00000000  0.00000000 -0.00000000

 TRANS. SAYVETZ    X -0.00017665 -0.00000000  0.00020170 -0.00000445  0.00000774
                   Y -0.00010503 -0.00000000  0.00009627  0.00000441 -0.00000803
                   Z -0.00000000  0.00004127  0.00000000 -0.00000000 -0.00000000
               TOTAL  0.00020552  0.00004127  0.00022350  0.00000627  0.00001115

   ROT. SAYVETZ    X  0.00000000 -0.00216794 -0.00000000  0.00000000  0.00000000
                   Y -0.00000000  0.00056467 -0.00000000  0.00000000  0.00000000
                   Z  0.01433137  0.00000000  0.00737629 -0.00521878  0.00202257
               TOTAL  0.01433137  0.00224027  0.00737629  0.00521878  0.00202257

                           16          17          18          19          20
       FREQUENCY:      1472.32     1730.90     3166.95     3214.69     3263.63  
        SYMMETRY:         A'          A'          A'          A'          A'  
    REDUCED MASS:      1.16845     4.34284     1.06340     1.09401     1.11243
    IR INTENSITY:      0.40702     3.60544     0.17251     0.19302     0.28719

  1   C            X -0.05032569 -0.14818011  0.04496361  0.00372856 -0.05834279
                   Y  0.03956046  0.07520844 -0.05168454  0.02095837 -0.06925222
                   Z  0.00000000  0.00000000  0.00000000 -0.00000000 -0.00000000
  2   C            X -0.07895781  0.19065387 -0.00713311  0.01174729  0.00282794
                   Y  0.01455324 -0.06473656 -0.00327344 -0.08104986 -0.01858556
                   Z -0.00000000 -0.00000000  0.00000000  0.00000000  0.00000000
  3   O            X  0.03546147 -0.03519502  0.00001766 -0.00115660  0.00056419
                   Y -0.01348137  0.00379643 -0.00012177  0.00190502  0.00066225
                   Z -0.00000000  0.00000000 -0.00000000  0.00000000 -0.00000000
  4   H            X -0.22665229  0.11235275  0.00392269  0.00860168  0.00601422
                   Y -0.03109207  0.01031122  0.00377327 -0.02632911 -0.00248131
                   Z  0.00000000 -0.00000000 -0.00000000  0.00000000  0.00000000
  5   H            X  0.36072922 -0.22280122 -0.00148835 -0.07136879 -0.01588717
                   Y  0.05034943 -0.12673718  0.07223334  0.92819520  0.18707383
                   Z  0.00000000 -0.00000000  0.00000000 -0.00000000 -0.00000000
  6   H            X  0.30065481 -0.01048558 -0.39835063 -0.11472151  0.70114029
                   Y -0.51950573 -0.19198607 -0.25772515 -0.07128403  0.42093482
                   Z -0.00000000 -0.00000000  0.00000000  0.00000000 -0.00000000
  7   H            X  0.54192481  0.17377918 -0.05480544  0.01157211 -0.03915377
                   Y  0.06992360  0.12352160  0.83801225 -0.14531985  0.42985393
                   Z -0.00000000  0.00000000 -0.00000000  0.00000000  0.00000000

 TRANS. SAYVETZ    X  0.00009998  0.00000256 -0.00000029 -0.00000438  0.00006228
                   Y  0.00003902  0.00004896 -0.00001429 -0.00000287  0.00002243
                   Z -0.00000000  0.00000000  0.00000000  0.00000000  0.00000000
               TOTAL  0.00010733  0.00004903  0.00001429  0.00000524  0.00006620

   ROT. SAYVETZ    X -0.00000000 -0.00000000  0.00000000 -0.00000000 -0.00000000
                   Y  0.00000000 -0.00000000 -0.00000000 -0.00000000  0.00000000
                   Z -0.00164940  0.00223539 -0.00037039  0.00004785 -0.00090113
               TOTAL  0.00164940  0.00223539  0.00037039  0.00004785  0.00090113

                           21
       FREQUENCY:      3719.90  
        SYMMETRY:         A'  
    REDUCED MASS:      1.06530
    IR INTENSITY:      0.47196

  1   C            X  0.00025422
                   Y  0.00132919
                   Z  0.00000000
  2   C            X  0.00157558
                   Y -0.00418748
                   Z  0.00000000
  3   O            X  0.00378144
                   Y -0.05974398
                   Z  0.00000000
  4   H            X -0.07753088
                   Y  0.96356150
                   Z  0.00000000
  5   H            X -0.00400041
                   Y  0.02427174
                   Z  0.00000000
  6   H            X  0.00207409
                   Y -0.00077244
                   Z  0.00000000
  7   H            X -0.00231918
                   Y -0.00483862
                   Z  0.00000000

 TRANS. SAYVETZ    X  0.00002508
                   Y  0.00000902
                   Z  0.00000000
               TOTAL  0.00002665

   ROT. SAYVETZ    X  0.00000000
                   Y -0.00000000
                   Z  0.00032904
               TOTAL  0.00032904

 REFERENCE ON SAYVETZ CONDITIONS - A. SAYVETZ, J.CHEM.PHYS., 7, 383-389(1939).

 NOTE - THE MODES J,K ARE ORTHONORMALIZED ACCORDING TO
 SUM ON I   M(I) * (X(I,J)*X(I,K) + Y(I,J)*Y(I,K) + Z(I,J)*Z(I,K)) = DELTA(J,K)

  MODE FREQ(CM**-1)  SYMMETRY  RED. MASS  IR INTENS.
     1      20.696    A''      1.874464    0.087364
     2       9.323    A'       3.493652    0.017351
     3       0.038    A'       6.307291    0.000000
     4       0.011    A''      6.290251    0.000000
     5       0.015    A'       6.281432    0.000000
     6      12.091    A''      2.844916    0.012686
     7     481.217    A''      1.116157    2.871416
     8     490.286    A'       2.062741    0.312541
     9     714.614    A''      1.532556    0.000962
    10     813.777    A''      1.375593    1.529278
    11     967.738    A'       1.692211    0.204070
    12     998.622    A''      1.137957    0.611747
    13    1136.693    A'       2.127718    4.315971
    14    1341.887    A'       1.404512    0.163208
    15    1374.454    A'       1.322081    0.037253
    16    1472.318    A'       1.168452    0.407016
    17    1730.898    A'       4.342841    3.605438
    18    3166.949    A'       1.063402    0.172511
    19    3214.693    A'       1.094012    0.193020
    20    3263.626    A'       1.112426    0.287186
    21    3719.897    A'       1.065296    0.471962

     -------------------------------
     THERMOCHEMISTRY AT T=  298.15 K
     -------------------------------

 USING IDEAL GAS, RIGID ROTOR, HARMONIC NORMAL MODE APPROXIMATIONS.
 P=  1.01325E+05 PASCAL.
 ALL FREQUENCIES ARE SCALED BY   1.00000
 THE MOMENTS OF INERTIA ARE (IN AMU*BOHR**2)
     29.78541   172.26396   202.04936
 THE ROTATIONAL SYMMETRY NUMBER IS  1.0
 THE ROTATIONAL CONSTANTS ARE (IN GHZ)
     60.53596    10.46701     8.92400
      7 -     21 VIBRATIONAL MODES ARE USED IN THERMOCHEMISTRY.
 THE HARMONIC ZERO POINT ENERGY IS (SCALED BY   1.000)
        0.056698 HARTREE/MOLECULE    12443.835629 CM**-1/MOLECULE 
       35.578747 KCAL/MOL              148.861478 KJ/MOL

               Q               LN Q
 ELEC.     1.00000E+00       0.000000
 TRANS.    1.14821E+07      16.256298
 ROT.      1.15257E+04       9.352339
 VIB.      1.32255E+00       0.279564
 TOT.      1.75026E+11      25.888202

              E         H         G         CV        CP        S
           KJ/MOL    KJ/MOL    KJ/MOL   J/MOL-K   J/MOL-K   J/MOL-K
 ELEC.      0.000     0.000     0.000     0.000     0.000     0.000
 TRANS.     3.718     6.197   -40.298    12.472    20.786   155.948
 ROT.       3.718     3.718   -23.184    12.472    12.472    90.231
 VIB.     150.900   150.900   148.168    22.574    22.574     9.163
 TOTAL    158.337   160.816    84.686    47.517    55.832   255.341
 VIB. THERMAL CORRECTION E(T)-E(0) = H(T)-H(0) =  2038.915 J/MOL

              E         H         G         CV        CP        S
         KCAL/MOL  KCAL/MOL  KCAL/MOL CAL/MOL-K CAL/MOL-K CAL/MOL-K
 ELEC.      0.000     0.000     0.000     0.000     0.000     0.000
 TRANS.     0.889     1.481    -9.632     2.981     4.968    37.272
 ROT.       0.889     0.889    -5.541     2.981     2.981    21.566
 VIB.      36.066    36.066    35.413     5.395     5.395     2.190
 TOTAL     37.844    38.436    20.240    11.357    13.344    61.028
 VIB. THERMAL CORRECTION E(T)-E(0) = H(T)-H(0) =   487.312 CAL/MOL

     *******************************************************
     * THIS IS NOT A STATIONARY POINT ON THE MOLECULAR PES *
     *     THE VIBRATIONAL ANALYSIS IS NOT VALID !!!       *
     *******************************************************
 ......END OF NORMAL COORDINATE ANALYSIS......
 STEP CPU TIME =     0.02 TOTAL CPU TIME =        225.6 (      3.8 MIN)
 TOTAL WALL CLOCK TIME=        229.4 SECONDS, CPU UTILIZATION IS    98.36%
                994878  WORDS OF DYNAMIC MEMORY USED
 EXECUTION OF GAMESS TERMINATED NORMALLY Thu Oct 17 19:26:32 2019
 DDI: 263640 bytes (0.3 MB / 0 MWords) used by master data server.

 ----------------------------------------
 CPU timing information for all processes
 ========================================
 0: 222.622 + 3.24 = 225.646
 ----------------------------------------
 ddikick.x: exited gracefully.
----- accounting info -----
Files used on the master node crcfe01.crc.nd.edu were:
-rw-r--r-- 1 cdrisko campus     474 Oct 17 19:22 /afs/crc.nd.edu/user/c/cdrisko/vinylAlcohol_vib2.F05
-rw-r--r-- 1 cdrisko campus   66748 Oct 17 19:26 /afs/crc.nd.edu/user/c/cdrisko/vinylAlcohol_vib2.F07
-rw-r--r-- 1 cdrisko campus 1799600 Oct 17 19:26 /afs/crc.nd.edu/user/c/cdrisko/vinylAlcohol_vib2.F10
-rw-r--r-- 1 cdrisko campus 2039576 Oct 17 19:26 /afs/crc.nd.edu/user/c/cdrisko/vinylAlcohol_vib2.F22
Thu Oct 17 19:26:35 EDT 2019
0.261u 0.140s 3:52.80 0.1%	0+0k 104+152io 1pf+0w
