----- GAMESS execution script 'rungms' -----
This job is running on host crcfe02.crc.nd.edu
under operating system Linux at Sun Sep 29 10:54:00 EDT 2019
Available scratch disk space (Kbyte units) at beginning of the job is
Filesystem      1K-blocks  Used  Available Use% Mounted on
AFS            2147483647     0 2147483647   0% /afs
GAMESS temporary binary files will be written to /afs/crc.nd.edu/user/c/cdrisko
GAMESS supplementary output files will be written to /afs/crc.nd.edu/user/c/cdrisko/scr
Copying input file SO2.inp to your run's scratch directory...

 Distributed Data Interface kickoff program.
 Initiating 1 compute processes on 1 nodes to run the following command:
 /afs/crc.nd.edu/x86_64_linux/g/gamess/nov-2017/gamess/gamess.00.x SO2 

          ******************************************************
          *         GAMESS VERSION = 11 NOV 2017 (R3)         *
          *             FROM IOWA STATE UNIVERSITY             *
          * M.W.SCHMIDT, K.K.BALDRIDGE, J.A.BOATZ, S.T.ELBERT, *
          *   M.S.GORDON, J.H.JENSEN, S.KOSEKI, N.MATSUNAGA,   *
          *          K.A.NGUYEN, S.J.SU, T.L.WINDUS,           *
          *       TOGETHER WITH M.DUPUIS, J.A.MONTGOMERY       *
          *         J.COMPUT.CHEM.  14, 1347-1363(1993)        *
          **************** 64 BIT INTEL VERSION ****************

  SINCE 1993, STUDENTS AND POSTDOCS WORKING AT IOWA STATE UNIVERSITY
  AND ALSO IN THEIR VARIOUS JOBS AFTER LEAVING ISU HAVE MADE IMPORTANT
  CONTRIBUTIONS TO THE CODE:
     IVANA ADAMOVIC, CHRISTINE AIKENS, YURI ALEXEEV, POOJA ARORA,
     ANDREY ASADCHEV, ROB BELL, PRADIPTA BANDYOPADHYAY, JONATHAN BENTZ,
     BRETT BODE, KURT BRORSEN, CALEB CARLIN, GALINA CHABAN, WEI CHEN,
     CHEOL HO CHOI, PAUL DAY, ALBERT DEFUSCO, NUWAN DESILVA, TIM DUDLEY,
     DMITRI FEDOROV, ALEX FINDLATER, GRAHAM FLETCHER, MARK FREITAG,
     KURT GLAESEMANN, ANASTASIA GUININA,
     DAN KEMP, GRANT MERRILL, NORIYUKI MINEZAWA, JONATHAN MULLIN,
     TAKESHI NAGATA, SEAN NEDD, HEATHER NETZLOFF, BOSILJKA NJEGIC, RYAN OLSON,
     MIKE PAK, BUU PHAM,
     SPENCER PRUITT, LUKE ROSKOP, JIM SHOEMAKER, LYUDMILA SLIPCHENKO,
     TONY SMITH, SAROM SOK LEANG, JIE SONG, TETSUYA TAKETSUGU, SIMON WEBB,
     PENG XU, SOOHAENG YOO, FEDERICO ZAHARIEV

  ADDITIONAL CODE HAS BEEN PROVIDED BY COLLABORATORS IN OTHER GROUPS:
     IOWA STATE UNIVERSITY:
          JOE IVANIC, AARON WEST, LAIMUTIS BYTAUTAS, KLAUS RUEDENBERG
     UNIVERSITY OF TOKYO: KIMIHIKO HIRAO, TAKAHITO NAKAJIMA,
          TAKAO TSUNEDA, MUNEAKI KAMIYA, SUSUMU YANAGISAWA,
          KIYOSHI YAGI, MAHITO CHIBA, SEIKEN TOKURA, NAOAKI KAWAKAMI
     UNIVERSITY OF AARHUS: FRANK JENSEN
     UNIVERSITY OF IOWA: VISVALDAS KAIRYS, HUI LI
     NATIONAL INST. OF STANDARDS AND TECHNOLOGY: WALT STEVENS, DAVID GARMER
     UNIVERSITY OF PISA: BENEDETTA MENNUCCI, JACOPO TOMASI
     UNIVERSITY OF MEMPHIS: HENRY KURTZ, PRAKASHAN KORAMBATH
     UNIVERSITY OF ALBERTA: TOBY ZENG, MARIUSZ KLOBUKOWSKI
     UNIVERSITY OF NEW ENGLAND: MARK SPACKMAN
     MIE UNIVERSITY: HIROAKI UMEDA
     NAT. INST. OF ADVANCED INDUSTRIAL SCIENCE AND TECHNOLOGY: KAZUO KITAURA
     MICHIGAN STATE UNIVERSITY:
          KAROL KOWALSKI, MARTA WLOCH, JEFFREY GOUR, JESSE LUTZ,
          WEI LI, PIOTR PIECUCH
     UNIVERSITY OF SILESIA: MONIKA MUSIAL, STANISLAW KUCHARSKI
     FACULTES UNIVERSITAIRES NOTRE-DAME DE LA PAIX:
          OLIVIER QUINET, BENOIT CHAMPAGNE
     UNIVERSITY OF CALIFORNIA - SANTA BARBARA: BERNARD KIRTMAN
     INSTITUTE FOR MOLECULAR SCIENCE:
          KAZUYA ISHIMURA, MICHIO KATOUDA, AND SHIGERU NAGASE
     UNIVERSITY OF NOTRE DAME: ANNA POMOGAEVA, DAN CHIPMAN
     KYUSHU UNIVERSITY:
          HARUYUKI NAKANO,
          FENG LONG GU, JACEK KORCHOWIEC, MARCIN MAKOWSKI, AND YURIKO AOKI,
          HIROTOSHI MORI AND EISAKU MIYOSHI
     PENNSYLVANIA STATE UNIVERSITY:
          TZVETELIN IORDANOV, CHET SWALINA, JONATHAN SKONE,
          SHARON HAMMES-SCHIFFER
     WASEDA UNIVERSITY:
          MASATO KOBAYASHI, TOMOKO AKAMA, TSUGUKI TOUMA,
          TAKESHI YOSHIKAWA, YASUHIRO IKABATA, JUNJI SEINO,
          YUYA NAKAJIMA, HIROMI NAKAI
     NANJING UNIVERSITY: SHUHUA LI
     UNIVERSITY OF NEBRASKA:
          PEIFENG SU, DEJUN SI, NANDUN THELLAMUREGE, YALI WANG, HUI LI
     UNIVERSITY OF ZURICH: ROBERTO PEVERATI, KIM BALDRIDGE
     N. COPERNICUS UNIVERSITY AND JACKSON STATE UNIVERSITY:
          MARIA BARYSZ
     UNIVERSITY OF COPENHAGEN: Jimmy Kromann, CASPER STEINMANN
     TOKYO INSTITUTE OF TECHNOLOGY: HIROYA NAKATA
     NAGOYA UNIVERSITY: YOSHIO NISHIMOTO, STEPHAN IRLE
     MOSCOW STATE UNIVERSITY: VLADIMIR MIRONOV

 EXECUTION OF GAMESS BEGUN Sun Sep 29 10:54:00 2019

            ECHO OF THE FIRST FEW INPUT CARDS -
 INPUT CARD> $BASIS GBASIS=PCSEG-1 $END                                                     
 INPUT CARD> $CONTRL COORD=ZMT ISPHER=1 RUNTYP=ENERGY DFTTYP=PBE MULT=1 $END                
 INPUT CARD>                                                                                
 INPUT CARD> $DATA                                                                          
 INPUT CARD>Title SO2 single-point calculation template with Z-Matrix                       
 INPUT CARD>C1                                                                              
 INPUT CARD>S                                                                               
 INPUT CARD>O 1 1.70                                                                        
 INPUT CARD>O 1 1.70 2 110                                                                  
 INPUT CARD> $END                                                                           
    1000000 WORDS OF MEMORY AVAILABLE

     BASIS OPTIONS
     -------------
     GBASIS=PCSEG-1      IGAUSS=       0      POLAR=NONE    
     NDFUNC=       0     NFFUNC=       0     DIFFSP=       F
     NPFUNC=       0      DIFFS=       F     BASNAM=        


     RUN TITLE
     ---------
 Title SO2 single-point calculation template with Z-Matrix                       

 THE POINT GROUP OF THE MOLECULE IS C1      
 THE ORDER OF THE PRINCIPAL AXIS IS     0

 YOUR FULLY SUBSTITUTED Z-MATRIX IS
 S   
 O      1   1.7000000
 O      1   1.7000000  2  110.0000

 THE MOMENTS OF INERTIA ARE (AMU-ANGSTROM**2)
 IXX=    15.203   IYY=    62.035   IZZ=    77.239

 ATOM      ATOMIC                      COORDINATES (BOHR)
           CHARGE         X                   Y                   Z
 S          16.0     0.0000000000       -0.9215726268        0.0000000000
 O           8.0     2.6315539402        0.9210612793        0.0000000000
 O           8.0    -2.6315539402        0.9210612793        0.0000000000

          INTERNUCLEAR DISTANCES (ANGS.)
          ------------------------------

                1 S          2 O          3 O     

   1 S       0.0000000    1.7000000 *  1.7000000 *
   2 O       1.7000000 *  0.0000000    2.7851170 *
   3 O       1.7000000 *  2.7851170 *  0.0000000  

  * ... LESS THAN  3.000


     ATOMIC BASIS SET
     ----------------
 THE CONTRACTED PRIMITIVE FUNCTIONS HAVE BEEN UNNORMALIZED
 THE CONTRACTED BASIS FUNCTIONS ARE NOW NORMALIZED TO UNITY

  SHELL TYPE  PRIMITIVE        EXPONENT          CONTRACTION COEFFICIENT(S)

 S         

      1   S       1         49299.4000000    0.000677492991
      1   S       2          7395.8400000    0.005232317766
      1   S       3          1683.3000000    0.026769459077
      1   S       4           476.1440000    0.102869580705
      1   S       5           154.3290000    0.286438127414
      1   S       6            55.0288000    0.454278639081
      1   S       7            20.5029000    0.271743121997

      2   S       8            45.9596000   -0.088421914560
      2   S       9             4.9274000    0.564350486135
      2   S      10             1.9179900    0.505415953466

      3   S      11             0.3684980    1.000000000000

      4   S      12             0.1291650    1.000000000000

      5   P      13           451.6620000    0.003707705453
      5   P      14           106.0980000    0.029219352245
      5   P      15            33.6996000    0.124444551509
      5   P      16            12.3054000    0.321808587656
      5   P      17             4.7141200    0.462822172957
      5   P      18             1.7810500    0.266513371364

      6   P      19             0.8722350    0.349265132972
      6   P      20             0.3102780    0.717115018770

      7   P      21             0.1001940    1.000000000000

      8   D      22             0.5500000    1.000000000000

 O         

      9   S      23          2288.6400000    0.005451138222
      9   S      24           344.4160000    0.040718922842
      9   S      25            78.2538000    0.181369420873
      9   S      26            21.7195000    0.465536820246
      9   S      27             6.5590700    0.451211321214

     10   S      28            10.4656000   -0.150211201174
     10   S      29             0.9643510    1.052867983385

     11   S      30             0.2851270    1.000000000000

     12   P      31            17.0590000    0.068749256972
     12   P      32             3.6899900    0.351671941499
     12   P      33             0.9929960    0.724532099722

     13   P      34             0.2449240    1.000000000000

     14   D      35             1.0000000    1.000000000000

 O         

     15   S      36          2288.6400000    0.005451138222
     15   S      37           344.4160000    0.040718922842
     15   S      38            78.2538000    0.181369420873
     15   S      39            21.7195000    0.465536820246
     15   S      40             6.5590700    0.451211321214

     16   S      41            10.4656000   -0.150211201174
     16   S      42             0.9643510    1.052867983385

     17   S      43             0.2851270    1.000000000000

     18   P      44            17.0590000    0.068749256972
     18   P      45             3.6899900    0.351671941499
     18   P      46             0.9929960    0.724532099722

     19   P      47             0.2449240    1.000000000000

     20   D      48             1.0000000    1.000000000000

 TOTAL NUMBER OF BASIS SET SHELLS             =   20
 NUMBER OF CARTESIAN GAUSSIAN BASIS FUNCTIONS =   49
 NOTE: THIS RUN WILL RESTRICT THE MO VARIATION SPACE TO SPHERICAL HARMONICS.
 THE NUMBER OF ORBITALS KEPT IN THE VARIATIONAL SPACE WILL BE PRINTED LATER.
 NUMBER OF ELECTRONS                          =   32
 CHARGE OF MOLECULE                           =    0
 SPIN MULTIPLICITY                            =    1
 NUMBER OF OCCUPIED ORBITALS (ALPHA)          =   16
 NUMBER OF OCCUPIED ORBITALS (BETA )          =   16
 TOTAL NUMBER OF ATOMS                        =    3
 THE NUCLEAR REPULSION ENERGY IS       91.8479836752

     LEBEDEV GRID-BASED DFT OPTIONS
     ------------------------------
     DFTTYP=PBE     
     NRAD  =      96     NLEB  =     302
     NRAD0 =      24     NLEB0 =     110
     SWOFF =    5.00E-03 (PURE SCF -> DFT)
     SWITCH=    3.00E-04 (COARSE -> TIGHT GRID)
     THRESH=    0.00E+00 GTHRE=    1.00E+00

 GRIMME'S EMPIRICAL DISPERSION CORRECTION= F

     $CONTRL OPTIONS
     ---------------
 SCFTYP=RHF          RUNTYP=ENERGY       EXETYP=RUN     
 MPLEVL=       0     CITYP =NONE         CCTYP =NONE         VBTYP =NONE    
 DFTTYP=PBE          TDDFT =NONE    
 MULT  =       1     ICHARG=       0     NZVAR =       0     COORD =ZMT     
 PP    =NONE         RELWFN=NONE         LOCAL =NONE         NUMGRD=       F
 ISPHER=       1     NOSYM =       0     MAXIT =      30     UNITS =ANGS    
 PLTORB=       F     MOLPLT=       F     AIMPAC=       F     FRIEND=        
 NPRINT=       7     IREST =       0     GEOM  =INPUT   
 NORMF =       0     NORMP =       0     ITOL  =      20     ICUT  =       9
 INTTYP=BEST         GRDTYP=BEST         QMTTOL= 1.0E-06

     $SYSTEM OPTIONS
     ---------------
  REPLICATED MEMORY=     1000000 WORDS (ON EVERY NODE).
 DISTRIBUTED MEMDDI=           0 MILLION WORDS IN AGGREGATE,
 MEMDDI DISTRIBUTED OVER   1 PROCESSORS IS           0 WORDS/PROCESSOR.
 TOTAL MEMORY REQUESTED ON EACH PROCESSOR=     1000000 WORDS.
 TIMLIM=      525600.00 MINUTES, OR     365.0 DAYS.
 PARALL= F  BALTYP=  DLB     KDIAG=    0  COREFL= F
 MXSEQ2=     300 MXSEQ3=     150  mem10=         0

          ----------------
          PROPERTIES INPUT
          ----------------

     MOMENTS            FIELD           POTENTIAL          DENSITY
 IEMOM =       1   IEFLD =       0   IEPOT =       0   IEDEN =       0
 WHERE =COMASS     WHERE =NUCLEI     WHERE =NUCLEI     WHERE =NUCLEI  
 OUTPUT=BOTH       OUTPUT=BOTH       OUTPUT=BOTH       OUTPUT=BOTH    
 IEMINT=       0   IEFINT=       0                     IEDINT=       0
                                                       MORB  =       0
          EXTRAPOLATION IN EFFECT
          DIIS IN EFFECT
 ORBITAL PRINTING OPTION: NPREO=     1    49     2     1

     -------------------------------
     INTEGRAL TRANSFORMATION OPTIONS
     -------------------------------
     NWORD  =            0
     CUTOFF = 1.0E-09     MPTRAN =       0
     DIRTRF =       F     AOINTS =DUP     

          ----------------------
          INTEGRAL INPUT OPTIONS
          ----------------------
 NOPK  =       1 NORDER=       0 SCHWRZ=       F

   --- ENCODED Z MATRIX ---
 COORD  TYPE   I   J   K   L   M   N
    1      1    2   1
    2      1    3   1
    3      2    3   1   2

 THE DETERMINANT OF THE G MATRIX IS 10**(    -4)

 THE DETERMINANT OF THE G MATRIX IS 10**(    -4)
 * * * WARNING * * *
 YOUR B MATRIX HAS A SMALL DETERMINANT.
 THIS SUGGESTS YOU MAY HAVE BADLY CHOSEN COORDINATES.

     ------------------------------------------
     THE POINT GROUP IS C1 , NAXIS= 0, ORDER= 1
     ------------------------------------------

 -- VARIATIONAL SPACE WILL BE RESTRICTED TO PURE SPHERICAL HARMONICS ONLY --
 AFTER EXCLUDING CONTAMINANT COMBINATIONS FROM THE CARTESIAN GAUSSIAN BASIS
 SET, THE NUMBER OF SPHERICAL HARMONICS KEPT IN THE VARIATION SPACE IS   46

     DIMENSIONS OF THE SYMMETRY SUBSPACES ARE
 A   =   46

 ..... DONE SETTING UP THE RUN .....
 STEP CPU TIME =     0.03 TOTAL CPU TIME =          0.0 (      0.0 MIN)
 TOTAL WALL CLOCK TIME=          0.0 SECONDS, CPU UTILIZATION IS   100.00%

          ********************
          1 ELECTRON INTEGRALS
          ********************
 ...... END OF ONE-ELECTRON INTEGRALS ......
 STEP CPU TIME =     0.00 TOTAL CPU TIME =          0.0 (      0.0 MIN)
 TOTAL WALL CLOCK TIME=          0.0 SECONDS, CPU UTILIZATION IS   100.00%

          -------------
          GUESS OPTIONS
          -------------
          GUESS =HUCKEL            NORB  =       0          NORDER=       0
          MIX   =       F          PRTMO =       F          PUNMO =       F
          TOLZ  = 1.0E-08          TOLE  = 1.0E-05
          SYMDEN=       F          PURIFY=       F

 INITIAL GUESS ORBITALS GENERATED BY HUCKEL   ROUTINE.
 HUCKEL GUESS REQUIRES     21634 WORDS.

 STATISTICS FOR GENERATION OF SYMMETRY ORBITAL -Q- MATRIX
 NUMBER OF CARTESIAN ATOMIC ORBITALS=         49
 NUMBER OF SPHERICAL CONTAMINANTS DROPPED=     3
 NUMBER OF LINEARLY DEPENDENT MOS DROPPED=     0
 TOTAL NUMBER OF MOS IN VARIATION SPACE=      46

 SYMMETRIES FOR INITIAL GUESS ORBITALS FOLLOW.   BOTH SET(S).
    16 ORBITALS ARE OCCUPIED (    7 CORE ORBITALS).
     8=A        9=A       10=A       11=A       12=A       13=A       14=A   
    15=A       16=A       17=A       18=A       19=A       20=A       21=A   
    22=A       23=A       24=A       25=A       26=A   
 ...... END OF INITIAL ORBITAL SELECTION ......
 STEP CPU TIME =     0.01 TOTAL CPU TIME =          0.0 (      0.0 MIN)
 TOTAL WALL CLOCK TIME=          0.0 SECONDS, CPU UTILIZATION IS   100.00%

                    ----------------------
                    AO INTEGRAL TECHNOLOGY
                    ----------------------
     S,P,L SHELL ROTATED AXIS INTEGRALS, REPROGRAMMED BY
        KAZUYA ISHIMURA (IMS) AND JOSE SIERRA (SYNSTAR).
     S,P,D,L SHELL ROTATED AXIS INTEGRALS PROGRAMMED BY
        KAZUYA ISHIMURA (INSTITUTE FOR MOLECULAR SCIENCE).
     S,P,D,F,G SHELL TO TOTAL QUARTET ANGULAR MOMENTUM SUM 5,
        ERIC PROGRAM BY GRAHAM FLETCHER (ELORET AND NASA ADVANCED
        SUPERCOMPUTING DIVISION, AMES RESEARCH CENTER).
     S,P,D,F,G,L SHELL GENERAL RYS QUADRATURE PROGRAMMED BY
        MICHEL DUPUIS (PACIFIC NORTHWEST NATIONAL LABORATORY).

          --------------------
          2 ELECTRON INTEGRALS
          --------------------

 THE -PK- OPTION IS OFF, THE INTEGRALS ARE NOT IN SUPERMATRIX FORM.
 STORING   15000 INTEGRALS/RECORD ON DISK, USING 12 BYTES/INTEGRAL.
 TWO ELECTRON INTEGRAL EVALUATION REQUIRES   90606 WORDS OF MEMORY.
 II,JST,KST,LST =  1  1  1  1 NREC =         1 INTLOC =    1
 II,JST,KST,LST =  2  1  1  1 NREC =         1 INTLOC =    2
 II,JST,KST,LST =  3  1  1  1 NREC =         1 INTLOC =    7
 II,JST,KST,LST =  4  1  1  1 NREC =         1 INTLOC =   22
 II,JST,KST,LST =  5  1  1  1 NREC =         1 INTLOC =   56
 II,JST,KST,LST =  6  1  1  1 NREC =         1 INTLOC =  125
 II,JST,KST,LST =  7  1  1  1 NREC =         1 INTLOC =  329
 II,JST,KST,LST =  8  1  1  1 NREC =         1 INTLOC =  776
 II,JST,KST,LST =  9  1  1  1 NREC =         1 INTLOC = 2864
 II,JST,KST,LST = 10  1  1  1 NREC =         1 INTLOC = 4842
 II,JST,KST,LST = 11  1  1  1 NREC =         1 INTLOC = 7492
 II,JST,KST,LST = 12  1  1  1 NREC =         1 INTLOC =10599
 II,JST,KST,LST = 13  1  1  1 NREC =         2 INTLOC = 6440
 II,JST,KST,LST = 14  1  1  1 NREC =         3 INTLOC = 6664
 II,JST,KST,LST = 15  1  1  1 NREC =         6 INTLOC = 8472
 II,JST,KST,LST = 16  1  1  1 NREC =         7 INTLOC =  320
 II,JST,KST,LST = 17  1  1  1 NREC =         7 INTLOC =11579
 II,JST,KST,LST = 18  1  1  1 NREC =         8 INTLOC = 9900
 II,JST,KST,LST = 19  1  1  1 NREC =        11 INTLOC = 3461
 II,JST,KST,LST = 20  1  1  1 NREC =        14 INTLOC =10169
 TOTAL NUMBER OF NONZERO TWO-ELECTRON INTEGRALS =              333273
         23 INTEGRAL RECORDS WERE STORED ON DISK FILE  8.
  ...... END OF TWO-ELECTRON INTEGRALS .....
 STEP CPU TIME =     0.10 TOTAL CPU TIME =          0.2 (      0.0 MIN)
 TOTAL WALL CLOCK TIME=          0.2 SECONDS, CPU UTILIZATION IS    93.75%

          --------------------------
               R-PBE SCF CALCULATION
          --------------------------

     NUCLEAR ENERGY =        91.8479836752
     MAXIT =   30     NPUNCH=    2
     EXTRAP=T  DAMP=F  SHIFT=F  RSTRCT=F  DIIS=T  DEM=F  SOSCF=F
         DENSITY MATRIX CONVERGENCE THRESHOLD=  1.00E-05
     COARSE -> FINE DFT GRID SWITCH THRESHOLD=  3.00E-04 (SWITCH IN $DFT)
                   HF -> DFT SWITCH THRESHOLD=  5.00E-03 (SWOFF IN $DFT)
     MEMORY REQUIRED FOR RHF ITERS=    183108 WORDS.

 DFT CODE IS SWITCHING FROM THE FINE GRID NRAD= 96,  NLEB=  302
                      TO THE COARSE GRID NRAD0= 24, NLEB0=  110

     EXCHANGE FUNCTIONAL   =PBE       
     CORRELATION FUNCTIONAL=PBE       
     DFT THRESHOLD         =.460E-07
     GRID CHANGE THRESHOLD =.300E-03
 FOR AN EULER-MACLAURIN QUADRATURE USING  96 RADIAL POINTS:
 SMALLEST GAUSSIAN PRIMITIVE EXPONENT=        0.1001940000 OF TYPE -P-
 ON ATOM NUMBER   1 HAS RADIAL NORMALIZATION=  1.000000
  LARGEST GAUSSIAN PRIMITIVE EXPONENT=    49299.4000000000 OF TYPE -S-
 ON ATOM NUMBER   1 HAS RADIAL NORMALIZATION=  1.000000
 DFT IS SWITCHED OFF, PERFORMING PURE SCF UNTIL SWOFF THRESHOLD IS REACHED.

 ITER EX DEM     TOTAL ENERGY        E CHANGE  DENSITY CHANGE    DIIS ERROR
   1  0  0     -545.9661042307  -545.9661042307   0.740306671   0.889093173
          * * *   INITIATING DIIS PROCEDURE   * * *
   2  1  0     -546.4008458113    -0.4347415805   0.836010747   0.374086021
   3  2  0     -546.3365811555     0.0642646557   0.348787497   0.412365515
   4  3  0     -546.9711485908    -0.6345674353   0.035301344   0.010356769
   5  4  0     -546.9724589795    -0.0013103887   0.010166023   0.008911528
   6  5  0     -546.9727596644    -0.0003006850   0.005457985   0.002977612
   7  6  0     -546.9728401592    -0.0000804947   0.003584636   0.000842461
 CONVERGED TO SWOFF, SO DFT CALCULATION IS NOW SWITCHED ON.
          * * *   INITIATING DIIS PROCEDURE   * * *
   8  7  0     -548.1382776020    -1.1654374428   0.512604246   0.101918242
   9  8  0     -548.1093884258     0.0288891762   0.458051477   0.159286551
  10  9  0     -548.1250971837    -0.0157087578   0.140694947   0.151348819
  11 10  0     -548.1847457484    -0.0596485648   0.031727855   0.014610254
  12 11  0     -548.1855302707    -0.0007845223   0.002035154   0.001413918
  13 12  0     -548.1855372322    -0.0000069615   0.000795817   0.000534339
  14 13  0     -548.1855375274    -0.0000002952   0.000446219   0.000568278
  15 14  0     -548.1855379717    -0.0000004443   0.000122455   0.000172556
 DFT CODE IS SWITCHING BACK TO THE FINE GRID
          * * *   INITIATING DIIS PROCEDURE   * * *
  16 15  0     -548.1929880569    -0.0074500852   0.023711016   0.014804430
  17 16  0     -548.1930815373    -0.0000934804   0.032114415   0.009075670
  18 17  0     -548.1926763977     0.0004051396   0.021207176   0.016069786
  19 18  0     -548.1933309234    -0.0006545258   0.000487969   0.000500004
  20 19  0     -548.1933313012    -0.0000003778   0.000826075   0.000360514
  21 20  0     -548.1933299897     0.0000013115   0.000617908   0.001013569
  22 21  0     -548.1933315380    -0.0000015484   0.000049529   0.000013654
  23 22  0     -548.1933315389    -0.0000000009   0.000009844   0.000006054
  24 23  0     -548.1933315390    -0.0000000001   0.000000341   0.000000254

          -----------------
          DENSITY CONVERGED
          -----------------
     TIME TO FORM FOCK OPERATORS=       2.4 SECONDS (       0.1 SEC/ITER)
     TIME TO SOLVE SCF EQUATIONS=       0.0 SECONDS (       0.0 SEC/ITER)

 FINAL R-PBE ENERGY IS     -548.1933315390 AFTER  24 ITERATIONS
 DFT EXCHANGE + CORRELATION ENERGY =       -42.2536431832
 TOTAL ELECTRON NUMBER             =        31.9999771304

          ------------
          EIGENVECTORS
          ------------

                      1          2          3          4          5
                  -88.2314   -18.8208   -18.8208    -7.8460    -5.8721
                     A          A          A          A          A   
    1  S  1  S    0.997764  -0.000001  -0.000000  -0.308402  -0.000000
    2  S  1  S    0.008203  -0.000052  -0.000000   1.031826   0.000000
    3  S  1  S   -0.002842  -0.001155  -0.000002   0.027604   0.000000
    4  S  1  S    0.001071   0.007627   0.000015  -0.005948  -0.000000
    5  S  1  X   -0.000000   0.000000  -0.000135  -0.000000   0.994718
    6  S  1  Y    0.000108  -0.000190  -0.000000   0.008495  -0.000001
    7  S  1  Z    0.000000   0.000000   0.000000   0.000000   0.000000
    8  S  1  X    0.000000  -0.000003   0.001449  -0.000000   0.016976
    9  S  1  Y   -0.000231   0.001460   0.000003   0.000838  -0.000000
   10  S  1  Z    0.000000   0.000000   0.000000   0.000000   0.000000
   11  S  1  X    0.000000  -0.000006   0.003224  -0.000000  -0.002649
   12  S  1  Y    0.000047   0.003376   0.000007  -0.000157   0.000000
   13  S  1  Z    0.000000   0.000000   0.000000   0.000000   0.000000
   14  S  1 XX   -0.000101   0.000758   0.000002   0.000467  -0.000000
   15  S  1 YY    0.000007   0.000205   0.000000  -0.000120  -0.000000
   16  S  1 ZZ    0.000094  -0.000963  -0.000002  -0.000348   0.000000
   17  S  1 XY    0.000000  -0.000002   0.000791  -0.000000   0.001139
   18  S  1 XZ    0.000000   0.000000   0.000000   0.000000   0.000000
   19  S  1 YZ    0.000000   0.000000   0.000000   0.000000   0.000000
   20  O  2  S   -0.000006   0.700967   0.703701   0.000023  -0.000061
   21  O  2  S   -0.000093   0.023760   0.023275   0.000009  -0.000057
   22  O  2  S    0.000115  -0.011665  -0.009941  -0.000167  -0.000659
   23  O  2  X    0.000007  -0.000781  -0.000677   0.000168   0.000059
   24  O  2  Y    0.000012  -0.000438  -0.000568   0.000099   0.000080
   25  O  2  Z    0.000000   0.000000   0.000000   0.000000   0.000000
   26  O  2  X   -0.000214   0.002747   0.001440   0.000621   0.000880
   27  O  2  Y   -0.000170   0.001157   0.001538   0.000502   0.000686
   28  O  2  Z    0.000000   0.000000   0.000000   0.000000   0.000000
   29  O  2 XX    0.000092  -0.000253  -0.000100  -0.000198   0.000130
   30  O  2 YY    0.000000   0.000071  -0.000064  -0.000009  -0.000077
   31  O  2 ZZ   -0.000093   0.000182   0.000163   0.000207  -0.000052
   32  O  2 XY    0.000151  -0.000253  -0.000226  -0.000338   0.000047
   33  O  2 XZ    0.000000   0.000000   0.000000   0.000000   0.000000
   34  O  2 YZ    0.000000   0.000000   0.000000   0.000000   0.000000
   35  O  3  S   -0.000006   0.703715  -0.700953   0.000023   0.000061
   36  O  3  S   -0.000093   0.023851  -0.023181   0.000009   0.000057
   37  O  3  S    0.000115  -0.011704   0.009895  -0.000167   0.000659
   38  O  3  X   -0.000007   0.000784  -0.000674  -0.000168   0.000059
   39  O  3  Y    0.000012  -0.000440   0.000567   0.000099  -0.000080
   40  O  3  Z    0.000000   0.000000   0.000000   0.000000   0.000000
   41  O  3  X    0.000214  -0.002753   0.001430  -0.000621   0.000880
   42  O  3  Y   -0.000170   0.001163  -0.001534   0.000502  -0.000686
   43  O  3  Z    0.000000   0.000000   0.000000   0.000000   0.000000
   44  O  3 XX    0.000092  -0.000253   0.000099  -0.000198  -0.000130
   45  O  3 YY    0.000000   0.000071   0.000064  -0.000009   0.000077
   46  O  3 ZZ   -0.000093   0.000182  -0.000163   0.000207   0.000052
   47  O  3 XY   -0.000151   0.000253  -0.000225   0.000338   0.000047
   48  O  3 XZ    0.000000   0.000000   0.000000   0.000000   0.000000
   49  O  3 YZ    0.000000   0.000000   0.000000   0.000000   0.000000

                      6          7          8          9         10
                   -5.8701    -5.8675    -0.9547    -0.8946    -0.6376
                     A          A          A          A          A   
    1  S  1  S    0.000000   0.002627   0.044997  -0.000000   0.073286
    2  S  1  S    0.000000  -0.008996  -0.278622   0.000001  -0.467602
    3  S  1  S    0.000000  -0.000485   0.397075  -0.000002   0.712069
    4  S  1  S    0.000000   0.001421   0.083598   0.000005   0.267190
    5  S  1  X    0.000000   0.000001   0.000000   0.087179   0.000000
    6  S  1  Y    0.000000   0.994880  -0.049431  -0.000000   0.033913
    7  S  1  Z    0.994988   0.000000   0.000000   0.000000   0.000000
    8  S  1  X    0.000000   0.000000   0.000000  -0.199007   0.000000
    9  S  1  Y    0.000000   0.016180   0.110267   0.000000  -0.079968
   10  S  1  Z    0.015843   0.000000   0.000000   0.000000   0.000000
   11  S  1  X    0.000000  -0.000000   0.000003   0.000907  -0.000002
   12  S  1  Y    0.000000  -0.002653  -0.011788   0.000003  -0.035978
   13  S  1  Z   -0.003137   0.000000   0.000000   0.000000   0.000000
   14  S  1 XX    0.000000   0.000016   0.027403   0.000000  -0.008450
   15  S  1 YY    0.000000   0.000532  -0.001010   0.000000  -0.004155
   16  S  1 ZZ    0.000000  -0.000548  -0.026393  -0.000001   0.012605
   17  S  1 XY    0.000000   0.000000   0.000000  -0.056147  -0.000000
   18  S  1 XZ   -0.000000   0.000000   0.000000   0.000000   0.000000
   19  S  1 YZ    0.000419   0.000000   0.000000   0.000000   0.000000
   20  O  2  S    0.000000  -0.000047  -0.141446   0.167894   0.106709
   21  O  2  S    0.000000   0.000018   0.289247  -0.349757  -0.227891
   22  O  2  S    0.000000  -0.000621   0.284367  -0.343753  -0.276860
   23  O  2  X    0.000000   0.000036  -0.075014   0.060077  -0.084239
   24  O  2  Y    0.000000  -0.000012  -0.049849   0.048463  -0.067218
   25  O  2  Z   -0.000061   0.000000   0.000000   0.000000   0.000000
   26  O  2  X    0.000000   0.000722  -0.034648   0.022949  -0.039664
   27  O  2  Y    0.000000   0.000304  -0.022674   0.020275  -0.028297
   28  O  2  Z   -0.000054   0.000000   0.000000   0.000000   0.000000
   29  O  2 XX    0.000000  -0.000075   0.005845  -0.002844   0.002456
   30  O  2 YY    0.000000   0.000153  -0.001593   0.000919   0.001489
   31  O  2 ZZ    0.000000  -0.000079  -0.004252   0.001925  -0.003945
   32  O  2 XY    0.000000   0.000202   0.009993  -0.007945   0.004292
   33  O  2 XZ    0.000168   0.000000   0.000000   0.000000   0.000000
   34  O  2 YZ    0.000112   0.000000   0.000000   0.000000   0.000000
   35  O  3  S    0.000000  -0.000047  -0.141447  -0.167893   0.106709
   36  O  3  S    0.000000   0.000018   0.289247   0.349758  -0.227892
   37  O  3  S    0.000000  -0.000621   0.284373   0.343745  -0.276862
   38  O  3  X    0.000000  -0.000036   0.075014   0.060077   0.084239
   39  O  3  Y    0.000000  -0.000012  -0.049849  -0.048463  -0.067218
   40  O  3  Z   -0.000061   0.000000   0.000000   0.000000   0.000000
   41  O  3  X    0.000000  -0.000722   0.034649   0.022946   0.039664
   42  O  3  Y    0.000000   0.000304  -0.022676  -0.020274  -0.028297
   43  O  3  Z   -0.000054   0.000000   0.000000   0.000000   0.000000
   44  O  3 XX    0.000000  -0.000075   0.005846   0.002844   0.002456
   45  O  3 YY    0.000000   0.000153  -0.001593  -0.000918   0.001489
   46  O  3 ZZ    0.000000  -0.000079  -0.004252  -0.001925  -0.003945
   47  O  3 XY    0.000000  -0.000202  -0.009993  -0.007945  -0.004292
   48  O  3 XZ   -0.000168   0.000000   0.000000   0.000000   0.000000
   49  O  3 YZ    0.000112   0.000000   0.000000   0.000000   0.000000

                     11         12         13         14         15
                   -0.4296    -0.4068    -0.3985    -0.3060    -0.2911
                     A          A          A          A          A   
    1  S  1  S    0.000000  -0.011205   0.000000   0.000000   0.014956
    2  S  1  S   -0.000000   0.071097   0.000000   0.000000  -0.097082
    3  S  1  S    0.000000  -0.079363   0.000000   0.000000   0.124130
    4  S  1  S    0.000000  -0.199388   0.000000   0.000000   0.253179
    5  S  1  X   -0.192333  -0.000000   0.000000   0.000000  -0.000000
    6  S  1  Y    0.000000  -0.218687   0.000000   0.000000   0.063791
    7  S  1  Z    0.000000   0.000000  -0.223469  -0.000000   0.000000
    8  S  1  X    0.519328   0.000001   0.000000   0.000000   0.000001
    9  S  1  Y   -0.000001   0.590628   0.000000   0.000000  -0.175819
   10  S  1  Z    0.000000   0.000000   0.609053   0.000001   0.000000
   11  S  1  X    0.044938   0.000001   0.000000   0.000000   0.000003
   12  S  1  Y   -0.000000   0.118064   0.000000   0.000000   0.007637
   13  S  1  Z    0.000000   0.000000   0.185723   0.000000   0.000000
   14  S  1 XX   -0.000000  -0.011018   0.000000   0.000000  -0.108277
   15  S  1 YY    0.000000   0.033686   0.000000   0.000000   0.071159
   16  S  1 ZZ    0.000000  -0.022667   0.000000   0.000000   0.037119
   17  S  1 XY    0.046562   0.000000   0.000000   0.000000  -0.000001
   18  S  1 XZ    0.000000   0.000000  -0.000000   0.085531   0.000000
   19  S  1 YZ    0.000000   0.000000   0.035762  -0.000000   0.000000
   20  O  2  S    0.061943   0.033313   0.000000   0.000000  -0.001929
   21  O  2  S   -0.131445  -0.072853   0.000000   0.000000   0.007517
   22  O  2  S   -0.201200  -0.101781   0.000000   0.000000  -0.028199
   23  O  2  X   -0.245060  -0.301296   0.000000   0.000000  -0.041074
   24  O  2  Y   -0.253969   0.017669   0.000000   0.000000   0.455371
   25  O  2  Z    0.000000   0.000000   0.283545   0.473363   0.000000
   26  O  2  X   -0.131635  -0.187854   0.000000   0.000000  -0.030105
   27  O  2  Y   -0.144750   0.016133   0.000000   0.000000   0.330200
   28  O  2  Z    0.000000   0.000000   0.176394   0.336323   0.000000
   29  O  2 XX    0.002199   0.014830   0.000000   0.000000   0.007052
   30  O  2 YY    0.004922  -0.009121   0.000000   0.000000  -0.010548
   31  O  2 ZZ   -0.007121  -0.005709   0.000000   0.000000   0.003496
   32  O  2 XY    0.011623   0.003866   0.000000   0.000000  -0.009843
   33  O  2 XZ    0.000000   0.000000  -0.013316  -0.012159   0.000000
   34  O  2 YZ    0.000000   0.000000  -0.009150  -0.009948   0.000000
   35  O  3  S   -0.061942   0.033314   0.000000   0.000000  -0.001928
   36  O  3  S    0.131444  -0.072853   0.000000   0.000000   0.007516
   37  O  3  S    0.201201  -0.101780   0.000000   0.000000  -0.028196
   38  O  3  X   -0.245060   0.301296   0.000000   0.000000   0.041088
   39  O  3  Y    0.253970   0.017670   0.000000   0.000000   0.455381
   40  O  3  Z    0.000000   0.000000   0.283546  -0.473363   0.000000
   41  O  3  X   -0.131634   0.187855   0.000000   0.000000   0.030114
   42  O  3  Y    0.144750   0.016133   0.000000   0.000000   0.330207
   43  O  3  Z    0.000000   0.000000   0.176395  -0.336322   0.000000
   44  O  3 XX   -0.002199   0.014830   0.000000   0.000000   0.007053
   45  O  3 YY   -0.004922  -0.009121   0.000000   0.000000  -0.010548
   46  O  3 ZZ    0.007121  -0.005709   0.000000   0.000000   0.003496
   47  O  3 XY    0.011623  -0.003867   0.000000   0.000000   0.009843
   48  O  3 XZ    0.000000   0.000000   0.013316  -0.012159   0.000000
   49  O  3 YZ    0.000000   0.000000  -0.009150   0.009948   0.000000

                     16         17         18         19         20
                   -0.2837    -0.2192    -0.0796    -0.0740     0.2147
                     A          A          A          A          A   
    1  S  1  S   -0.000000   0.000000   0.031006   0.000002   0.000000
    2  S  1  S    0.000002   0.000000  -0.208951  -0.000014   0.000000
    3  S  1  S   -0.000004   0.000000   0.356965   0.000023   0.000000
    4  S  1  S   -0.000001   0.000000   0.401412   0.000024   0.000000
    5  S  1  X   -0.018475   0.000000   0.000014  -0.222454   0.000000
    6  S  1  Y   -0.000001   0.000000  -0.199565  -0.000013   0.000000
    7  S  1  Z    0.000000  -0.213351   0.000000   0.000000   0.251327
    8  S  1  X    0.049778   0.000000  -0.000041   0.677532   0.000000
    9  S  1  Y    0.000003   0.000000   0.613279   0.000039   0.000000
   10  S  1  Z    0.000000   0.621791   0.000000   0.000000  -0.995088
   11  S  1  X    0.123283   0.000000  -0.000046   0.637356   0.000000
   12  S  1  Y    0.000002   0.000000   0.504026   0.000032   0.000000
   13  S  1  Z    0.000000   0.244637   0.000000   0.000000   1.304423
   14  S  1 XX    0.000002   0.000000  -0.090677  -0.000007   0.000000
   15  S  1 YY   -0.000001   0.000000  -0.045058  -0.000003   0.000000
   16  S  1 ZZ   -0.000001   0.000000   0.135735   0.000010   0.000000
   17  S  1 XY   -0.077444   0.000000   0.000012  -0.175134   0.000000
   18  S  1 XZ    0.000000  -0.000000   0.000000   0.000000   0.000000
   19  S  1 YZ    0.000000  -0.053113   0.000000   0.000000  -0.093422
   20  O  2  S    0.002859   0.000000   0.044217   0.042253   0.000000
   21  O  2  S   -0.004746   0.000000  -0.091027  -0.083945   0.000000
   22  O  2  S   -0.043332   0.000000  -0.304386  -0.333785   0.000000
   23  O  2  X    0.377246   0.000000   0.381518   0.127211   0.000000
   24  O  2  Y   -0.293916   0.000000   0.061143   0.313140   0.000000
   25  O  2  Z    0.000000  -0.396683   0.000000   0.000000  -0.055856
   26  O  2  X    0.257574   0.000000   0.354743   0.125065   0.000000
   27  O  2  Y   -0.199760   0.000000   0.050377   0.274159   0.000000
   28  O  2  Z    0.000000  -0.304386   0.000000   0.000000  -0.130972
   29  O  2 XX   -0.012285   0.000000   0.003129  -0.002730   0.000000
   30  O  2 YY    0.012060   0.000000  -0.005054   0.004913   0.000000
   31  O  2 ZZ    0.000225   0.000000   0.001925  -0.002182   0.000000
   32  O  2 XY    0.001489   0.000000  -0.001202   0.002359   0.000000
   33  O  2 XZ    0.000000   0.002719   0.000000   0.000000   0.011773
   34  O  2 YZ    0.000000   0.001261   0.000000   0.000000   0.006450
   35  O  3  S   -0.002859   0.000000   0.044223  -0.042247   0.000000
   36  O  3  S    0.004745   0.000000  -0.091042   0.083928   0.000000
   37  O  3  S    0.043331   0.000000  -0.304430   0.333751   0.000000
   38  O  3  X    0.377244   0.000000  -0.381535   0.127159   0.000000
   39  O  3  Y    0.293900   0.000000   0.061184  -0.313132   0.000000
   40  O  3  Z    0.000000  -0.396683   0.000000   0.000000  -0.055856
   41  O  3  X    0.257571   0.000000  -0.354758   0.125021   0.000000
   42  O  3  Y    0.199749   0.000000   0.050414  -0.274154   0.000000
   43  O  3  Z    0.000000  -0.304385   0.000000   0.000000  -0.130972
   44  O  3 XX    0.012284   0.000000   0.003128   0.002731   0.000000
   45  O  3 YY   -0.012060   0.000000  -0.005053  -0.004914   0.000000
   46  O  3 ZZ   -0.000225   0.000000   0.001925   0.002183   0.000000
   47  O  3 XY    0.001488   0.000000   0.001202   0.002359   0.000000
   48  O  3 XZ    0.000000  -0.002719   0.000000   0.000000  -0.011773
   49  O  3 YZ    0.000000   0.001261   0.000000   0.000000   0.006450

                     21         22         23         24         25
                    0.2179     0.2327     0.2459     0.4805     0.4881
                     A          A          A          A          A   
    1  S  1  S    0.020871   0.000003  -0.061543   0.000000  -0.000410
    2  S  1  S   -0.153065  -0.000021   0.455804   0.000000   0.003203
    3  S  1  S    0.527347   0.000083  -1.831284   0.000000  -0.005695
    4  S  1  S   -0.460505  -0.000104   2.209333   0.000000  -0.034463
    5  S  1  X   -0.000003   0.262568   0.000010   0.000000  -0.000000
    6  S  1  Y    0.251210   0.000001   0.042190   0.000000   0.036118
    7  S  1  Z    0.000000   0.000000   0.000000  -0.000000   0.000000
    8  S  1  X    0.000013  -1.024811  -0.000039   0.000000   0.000001
    9  S  1  Y   -0.984001  -0.000006  -0.166115   0.000000  -0.151213
   10  S  1  Z    0.000000   0.000000   0.000000   0.000000   0.000000
   11  S  1  X   -0.000017   1.469879   0.000062   0.000000  -0.000001
   12  S  1  Y    1.266894  -0.000015   0.672490   0.000000   0.092616
   13  S  1  Z    0.000000   0.000000   0.000000  -0.000000   0.000000
   14  S  1 XX    0.111907   0.000002  -0.067044   0.000000  -0.466454
   15  S  1 YY   -0.096184   0.000001  -0.068648   0.000000   0.850612
   16  S  1 ZZ   -0.015723  -0.000003   0.135692   0.000000  -0.384158
   17  S  1 XY    0.000001   0.036210   0.000004   0.000000   0.000000
   18  S  1 XZ    0.000000   0.000000   0.000000   0.885852   0.000000
   19  S  1 YZ    0.000000   0.000000   0.000000  -0.000003   0.000000
   20  O  2  S    0.001649   0.010743   0.030119   0.000000  -0.001302
   21  O  2  S    0.032167   0.028651  -0.039450   0.000000  -0.004751
   22  O  2  S   -0.188274  -0.415261  -0.497119   0.000000   0.014357
   23  O  2  X   -0.081858  -0.201467  -0.087949   0.000000   0.186945
   24  O  2  Y   -0.062031  -0.073466  -0.116171   0.000000  -0.286451
   25  O  2  Z    0.000000   0.000000   0.000000  -0.307156   0.000000
   26  O  2  X    0.036179  -0.057031   0.203763   0.000000  -0.127462
   27  O  2  Y   -0.109525   0.062435   0.058515   0.000000   0.120524
   28  O  2  Z    0.000000   0.000000   0.000000   0.149565   0.000000
   29  O  2 XX   -0.016937  -0.009944  -0.021130   0.000000   0.043065
   30  O  2 YY    0.011709  -0.005242  -0.001599   0.000000  -0.036189
   31  O  2 ZZ    0.005228   0.015187   0.022729   0.000000  -0.006876
   32  O  2 XY   -0.001539  -0.026366  -0.030014   0.000000  -0.026821
   33  O  2 XZ    0.000000   0.000000   0.000000  -0.037691   0.000000
   34  O  2 YZ    0.000000   0.000000   0.000000  -0.039696   0.000000
   35  O  3  S    0.001650  -0.010744   0.030119   0.000000  -0.001302
   36  O  3  S    0.032164  -0.028658  -0.039463   0.000000  -0.004752
   37  O  3  S   -0.188279   0.415312  -0.497072   0.000000   0.014357
   38  O  3  X    0.081861  -0.201478   0.087928   0.000000  -0.186944
   39  O  3  Y   -0.062033   0.073473  -0.116165   0.000000  -0.286451
   40  O  3  Z    0.000000   0.000000   0.000000   0.307157   0.000000
   41  O  3  X   -0.036175  -0.057007  -0.203760   0.000000   0.127462
   42  O  3  Y   -0.109524  -0.062445   0.058507   0.000000   0.120524
   43  O  3  Z    0.000000   0.000000   0.000000  -0.149566   0.000000
   44  O  3 XX   -0.016937   0.009946  -0.021129   0.000000   0.043065
   45  O  3 YY    0.011709   0.005243  -0.001598   0.000000  -0.036189
   46  O  3 ZZ    0.005228  -0.015189   0.022727   0.000000  -0.006876
   47  O  3 XY    0.001539  -0.026368   0.030012   0.000000   0.026821
   48  O  3 XZ    0.000000   0.000000   0.000000  -0.037691   0.000000
   49  O  3 YZ    0.000000   0.000000   0.000000   0.039696   0.000000

                     26         27         28         29         30
                    0.4902     0.6168     0.6676     0.7925     0.8034
                     A          A          A          A          A   
    1  S  1  S    0.000000   0.001540   0.000000   0.012975   0.000000
    2  S  1  S    0.000000  -0.014523   0.000000  -0.107944   0.000000
    3  S  1  S    0.000000   0.231791   0.000001   0.463636   0.000000
    4  S  1  S    0.000000  -0.860509  -0.000006   0.030407   0.000000
    5  S  1  X    0.000000   0.000000  -0.090633   0.000000   0.000000
    6  S  1  Y    0.000000   0.058555   0.000000  -0.027383   0.000000
    7  S  1  Z    0.025428   0.000000   0.000000   0.000000  -0.000000
    8  S  1  X    0.000000  -0.000001   0.431253   0.000000   0.000000
    9  S  1  Y    0.000000  -0.253173  -0.000001   0.215447   0.000000
   10  S  1  Z   -0.104553   0.000000   0.000000   0.000000   0.000000
   11  S  1  X    0.000000  -0.000003   0.297939   0.000001   0.000000
   12  S  1  Y    0.000000  -0.262004  -0.000002   0.140958   0.000000
   13  S  1  Z    0.068924   0.000000   0.000000   0.000000  -0.000000
   14  S  1 XX    0.000000  -0.735977  -0.000000  -0.450335   0.000000
   15  S  1 YY    0.000000  -0.157579  -0.000001   0.277142   0.000000
   16  S  1 ZZ    0.000000   0.893556   0.000001   0.173193   0.000000
   17  S  1 XY    0.000000  -0.000002   0.904115   0.000002   0.000000
   18  S  1 XZ    0.000003   0.000000   0.000000   0.000000   0.478707
   19  S  1 YZ    0.922462   0.000000   0.000000   0.000000  -0.000000
   20  O  2  S    0.000000  -0.066902   0.073546   0.013977   0.000000
   21  O  2  S    0.000000   0.281384  -0.313170  -0.092545   0.000000
   22  O  2  S    0.000000   0.171188  -0.114659   0.026489   0.000000
   23  O  2  X    0.000000   0.087011  -0.040010  -0.579260   0.000000
   24  O  2  Y    0.000000  -0.071591  -0.146018  -0.045308   0.000000
   25  O  2  Z   -0.249175   0.000000   0.000000   0.000000   0.573582
   26  O  2  X    0.000000  -0.458104   0.482434   0.762585   0.000000
   27  O  2  Y    0.000000  -0.191083   0.452988   0.005557   0.000000
   28  O  2  Z    0.130615   0.000000   0.000000   0.000000  -0.756607
   29  O  2 XX    0.000000   0.004931   0.036599   0.043612   0.000000
   30  O  2 YY    0.000000  -0.025282  -0.020996  -0.041013   0.000000
   31  O  2 ZZ    0.000000   0.020350  -0.015603  -0.002598   0.000000
   32  O  2 XY    0.000000  -0.012054   0.030899   0.007262   0.000000
   33  O  2 XZ   -0.040287   0.000000   0.000000   0.000000  -0.038116
   34  O  2 YZ   -0.008488   0.000000   0.000000   0.000000  -0.032060
   35  O  3  S    0.000000  -0.066902  -0.073545   0.013977   0.000000
   36  O  3  S    0.000000   0.281390   0.313167  -0.092541   0.000000
   37  O  3  S    0.000000   0.171178   0.114666   0.026487   0.000000
   38  O  3  X    0.000000  -0.087007  -0.040014   0.579255   0.000000
   39  O  3  Y    0.000000  -0.071591   0.146019  -0.045310   0.000000
   40  O  3  Z   -0.249173   0.000000   0.000000   0.000000  -0.573582
   41  O  3  X    0.000000   0.458096   0.482442  -0.762577   0.000000
   42  O  3  Y    0.000000  -0.191081  -0.452991   0.005558   0.000000
   43  O  3  Z    0.130615   0.000000   0.000000   0.000000   0.756607
   44  O  3 XX    0.000000   0.004931  -0.036599   0.043611   0.000000
   45  O  3 YY    0.000000  -0.025282   0.020996  -0.041013   0.000000
   46  O  3 ZZ    0.000000   0.020350   0.015603  -0.002598   0.000000
   47  O  3 XY    0.000000   0.012054   0.030899  -0.007262   0.000000
   48  O  3 XZ    0.040287   0.000000   0.000000   0.000000  -0.038116
   49  O  3 YZ   -0.008488   0.000000   0.000000   0.000000   0.032060

                     31         32         33         34         35
                    0.8296     0.8367     0.8429     0.8854     1.3709
                     A          A          A          A          A   
    1  S  1  S    0.011329   0.000000   0.000000   0.000000  -0.000000
    2  S  1  S   -0.094194  -0.000001   0.000000  -0.000001   0.000001
    3  S  1  S    0.415171   0.000004   0.000000   0.000001  -0.000004
    4  S  1  S   -0.018194  -0.000001   0.000000   0.000003  -0.000003
    5  S  1  X   -0.000000   0.019552   0.000000  -0.038173   0.066838
    6  S  1  Y   -0.033211  -0.000000   0.000000  -0.000000   0.000001
    7  S  1  Z    0.000000   0.000000  -0.003129   0.000000   0.000000
    8  S  1  X    0.000000  -0.185756   0.000000   0.311361  -0.403806
    9  S  1  Y    0.229351   0.000002   0.000000   0.000002  -0.000004
   10  S  1  Z    0.000000   0.000000   0.021492   0.000000   0.000000
   11  S  1  X    0.000001  -0.062012   0.000000  -0.482366  -0.797527
   12  S  1  Y   -0.423698  -0.000004   0.000000  -0.000001   0.000000
   13  S  1  Z    0.000000   0.000000  -0.513734   0.000000   0.000000
   14  S  1 XX    0.269011   0.000002   0.000000   0.000003  -0.000000
   15  S  1 YY   -0.418144  -0.000004   0.000000  -0.000002  -0.000000
   16  S  1 ZZ    0.149133   0.000001   0.000000  -0.000000   0.000000
   17  S  1 XY   -0.000003   0.461407   0.000000  -0.244266  -0.379213
   18  S  1 XZ    0.000000   0.000000  -0.000000   0.000000   0.000000
   19  S  1 YZ    0.000000   0.000000  -0.390151   0.000000   0.000000
   20  O  2  S    0.007077  -0.001566   0.000000  -0.000856   0.079162
   21  O  2  S   -0.030524   0.059676   0.000000  -0.044582  -1.177538
   22  O  2  S    0.060721  -0.080003   0.000000   0.189008   1.672588
   23  O  2  X   -0.028317   0.071963   0.000000  -0.634528   0.058535
   24  O  2  Y   -0.573430   0.604550   0.000000   0.094051   0.101129
   25  O  2  Z    0.000000   0.000000  -0.594642   0.000000   0.000000
   26  O  2  X    0.057471   0.018362   0.000000   0.798805  -0.363391
   27  O  2  Y    0.843174  -0.714523   0.000000  -0.164576  -0.430214
   28  O  2  Z    0.000000   0.000000   0.858832   0.000000   0.000000
   29  O  2 XX   -0.018319   0.026734   0.000000   0.022250  -0.070534
   30  O  2 YY    0.035484  -0.026530   0.000000   0.000877  -0.011047
   31  O  2 ZZ   -0.017165  -0.000203   0.000000  -0.023127   0.081582
   32  O  2 XY    0.049223  -0.004082   0.000000   0.008694  -0.125848
   33  O  2 XZ    0.000000   0.000000   0.039607   0.000000   0.000000
   34  O  2 YZ    0.000000   0.000000   0.020150   0.000000   0.000000
   35  O  3  S    0.007077   0.001566   0.000000   0.000855  -0.079161
   36  O  3  S   -0.030519  -0.059673   0.000000   0.044599   1.177518
   37  O  3  S    0.060716   0.080002   0.000000  -0.189027  -1.672565
   38  O  3  X    0.028321   0.071962   0.000000  -0.634531   0.058534
   39  O  3  Y   -0.573419  -0.604559   0.000000  -0.094055  -0.101128
   40  O  3  Z    0.000000   0.000000  -0.594642   0.000000   0.000000
   41  O  3  X   -0.057477   0.018364   0.000000   0.798806  -0.363384
   42  O  3  Y    0.843163   0.714537   0.000000   0.164583   0.430209
   43  O  3  Z    0.000000   0.000000   0.858832   0.000000   0.000000
   44  O  3 XX   -0.018318  -0.026734   0.000000  -0.022251   0.070533
   45  O  3 YY    0.035483   0.026531   0.000000  -0.000877   0.011048
   46  O  3 ZZ   -0.017165   0.000203   0.000000   0.023127  -0.081581
   47  O  3 XY   -0.049223  -0.004083   0.000000   0.008694  -0.125845
   48  O  3 XZ    0.000000   0.000000  -0.039608   0.000000   0.000000
   49  O  3 YZ    0.000000   0.000000   0.020150   0.000000   0.000000

                     36         37         38         39         40
                    1.5096     2.0845     2.0867     2.0881     2.0917
                     A          A          A          A          A   
    1  S  1  S    0.000707   0.000000   0.000000   0.000000   0.000000
    2  S  1  S   -0.003637  -0.000000   0.000000   0.000000  -0.000000
    3  S  1  S    0.415482   0.000000   0.000000   0.000000   0.000001
    4  S  1  S   -1.808500  -0.000001   0.000000   0.000000   0.000000
    5  S  1  X   -0.000001   0.021574   0.000000   0.000000  -0.017814
    6  S  1  Y    0.057697  -0.000000   0.000000   0.000000  -0.000000
    7  S  1  Z    0.000000   0.000000  -0.000001  -0.010433   0.000000
    8  S  1  X    0.000006  -0.069936   0.000000   0.000000   0.072739
    9  S  1  Y   -0.326829   0.000000   0.000000   0.000000   0.000000
   10  S  1  Z    0.000000   0.000000   0.000002   0.032272   0.000000
   11  S  1  X   -0.000004  -0.073991   0.000000   0.000000   0.028919
   12  S  1  Y   -0.784488  -0.000000   0.000000   0.000000   0.000000
   13  S  1  Z    0.000000   0.000000   0.000001   0.020262   0.000000
   14  S  1 XX   -0.284379   0.000000   0.000000   0.000000  -0.000001
   15  S  1 YY   -0.072093  -0.000000   0.000000   0.000000  -0.000001
   16  S  1 ZZ    0.356472   0.000000   0.000000   0.000000   0.000002
   17  S  1 XY   -0.000000   0.073996   0.000000   0.000000  -0.044111
   18  S  1 XZ    0.000000   0.000000   0.031817  -0.000002   0.000000
   19  S  1 YZ    0.000000   0.000000   0.000000   0.006896   0.000000
   20  O  2  S    0.071908   0.002396   0.000000   0.000000  -0.002439
   21  O  2  S   -1.225593  -0.037747   0.000000   0.000000   0.045101
   22  O  2  S    1.946377   0.067028   0.000000   0.000000  -0.068388
   23  O  2  X    0.101985  -0.024357   0.000000   0.000000  -0.008735
   24  O  2  Y    0.010396   0.038597   0.000000   0.000000  -0.019426
   25  O  2  Z    0.000000   0.000000   0.009657   0.013865   0.000000
   26  O  2  X   -0.638950   0.033135   0.000000   0.000000   0.023408
   27  O  2  Y   -0.228637  -0.061681   0.000000   0.000000   0.035758
   28  O  2  Z    0.000000   0.000000  -0.014665  -0.023044   0.000000
   29  O  2 XX   -0.116384  -0.606596   0.000000   0.000000   0.049124
   30  O  2 YY    0.031324   0.347824   0.000000   0.000000  -0.616772
   31  O  2 ZZ    0.085060   0.258772   0.000000   0.000000   0.567648
   32  O  2 XY   -0.130899   0.363806   0.000000   0.000000   0.174418
   33  O  2 XZ    0.000000   0.000000   0.532134  -0.231422   0.000000
   34  O  2 YZ    0.000000   0.000000  -0.465829   0.668598   0.000000
   35  O  3  S    0.071910  -0.002396   0.000000   0.000000   0.002439
   36  O  3  S   -1.225610   0.037747   0.000000   0.000000  -0.045099
   37  O  3  S    1.946395  -0.067027   0.000000   0.000000   0.068387
   38  O  3  X   -0.101991  -0.024357   0.000000   0.000000  -0.008734
   39  O  3  Y    0.010396  -0.038597   0.000000   0.000000   0.019426
   40  O  3  Z    0.000000   0.000000  -0.009656   0.013866   0.000000
   41  O  3  X    0.638962   0.033135   0.000000   0.000000   0.023406
   42  O  3  Y   -0.228637   0.061681   0.000000   0.000000  -0.035758
   43  O  3  Z    0.000000   0.000000   0.014662  -0.023045   0.000000
   44  O  3 XX   -0.116387   0.606598   0.000000   0.000000  -0.049107
   45  O  3 YY    0.031324  -0.347820   0.000000   0.000000   0.616810
   46  O  3 ZZ    0.085063  -0.258779   0.000000   0.000000  -0.567703
   47  O  3 XY    0.130902   0.363811   0.000000   0.000000   0.174448
   48  O  3 XZ    0.000000   0.000000   0.532162   0.231358   0.000000
   49  O  3 YZ    0.000000   0.000000   0.465908   0.668544   0.000000

                     41         42         43         44         45
                    2.0935     2.1434     2.1512     2.2364     2.4561
                     A          A          A          A          A   
    1  S  1  S   -0.000325   0.000000   0.000000  -0.000197  -0.025237
    2  S  1  S    0.002710   0.000000   0.000000   0.001236   0.188889
    3  S  1  S   -0.007461   0.000000   0.000000   0.046747  -0.339717
    4  S  1  S   -0.013606   0.000000   0.000000  -0.197965  -0.729146
    5  S  1  X   -0.000001   0.000000   0.000000   0.000000   0.000000
    6  S  1  Y    0.001648   0.000000   0.000000   0.037787   0.115044
    7  S  1  Z    0.000000   0.036444  -0.000000   0.000000   0.000000
    8  S  1  X    0.000003   0.000000   0.000000   0.000000  -0.000000
    9  S  1  Y   -0.009164   0.000000   0.000000  -0.129176  -0.534592
   10  S  1  Z    0.000000  -0.111541   0.000001   0.000000   0.000000
   11  S  1  X    0.000001   0.000000   0.000000  -0.000001  -0.000003
   12  S  1  Y   -0.009732   0.000000   0.000000  -0.171444  -0.168488
   13  S  1  Z    0.000000  -0.088130   0.000001   0.000000   0.000000
   14  S  1 XX    0.022120   0.000000   0.000000   0.254133  -0.371611
   15  S  1 YY    0.027876   0.000000   0.000000  -0.298405   0.001502
   16  S  1 ZZ   -0.049996   0.000000   0.000000   0.044271   0.370109
   17  S  1 XY   -0.000002   0.000000   0.000000  -0.000000  -0.000001
   18  S  1 XZ    0.000000   0.000002   0.279319   0.000000   0.000000
   19  S  1 YZ    0.000000  -0.211461   0.000002   0.000000   0.000000
   20  O  2  S    0.002224   0.000000   0.000000   0.005246   0.014351
   21  O  2  S   -0.018858   0.000000   0.000000  -0.109334  -0.481375
   22  O  2  S    0.019364   0.000000   0.000000   0.203471   0.873019
   23  O  2  X    0.014091   0.000000   0.000000   0.037580   0.074858
   24  O  2  Y    0.000900   0.000000   0.000000  -0.030384   0.052951
   25  O  2  Z    0.000000  -0.048019   0.036335   0.000000   0.000000
   26  O  2  X   -0.019635   0.000000   0.000000  -0.126526  -0.450418
   27  O  2  Y    0.000952   0.000000   0.000000   0.070476  -0.291845
   28  O  2  Z    0.000000   0.101499  -0.072080   0.000000   0.000000
   29  O  2 XX   -0.192361   0.000000   0.000000   0.591382   0.362580
   30  O  2 YY   -0.416970   0.000000   0.000000  -0.580303   0.014458
   31  O  2 ZZ    0.609331   0.000000   0.000000  -0.011078  -0.377038
   32  O  2 XY    0.334413   0.000000   0.000000  -0.242913   0.603727
   33  O  2 XZ    0.000000  -0.674241   0.471375   0.000000   0.000000
   34  O  2 YZ    0.000000  -0.236949   0.535332   0.000000   0.000000
   35  O  3  S    0.002224   0.000000   0.000000   0.005246   0.014351
   36  O  3  S   -0.018862   0.000000   0.000000  -0.109335  -0.481374
   37  O  3  S    0.019369   0.000000   0.000000   0.203471   0.873015
   38  O  3  X   -0.014093   0.000000   0.000000  -0.037581  -0.074858
   39  O  3  Y    0.000901   0.000000   0.000000  -0.030384   0.052951
   40  O  3  Z    0.000000  -0.048020  -0.036334   0.000000   0.000000
   41  O  3  X    0.019637   0.000000   0.000000   0.126526   0.450418
   42  O  3  Y    0.000949   0.000000   0.000000   0.070476  -0.291843
   43  O  3  Z    0.000000   0.101500   0.072078   0.000000   0.000000
   44  O  3 XX   -0.192359   0.000000   0.000000   0.591381   0.362579
   45  O  3 YY   -0.416918   0.000000   0.000000  -0.580303   0.014458
   46  O  3 ZZ    0.609277   0.000000   0.000000  -0.011078  -0.377037
   47  O  3 XY   -0.334393   0.000000   0.000000   0.242913  -0.603725
   48  O  3 XZ    0.000000   0.674248   0.471364   0.000000   0.000000
   49  O  3 YZ    0.000000  -0.236959  -0.535327   0.000000   0.000000

                     46
                    2.5840
                     A   
    1  S  1  S    0.000000
    2  S  1  S   -0.000000
    3  S  1  S    0.000002
    4  S  1  S   -0.000006
    5  S  1  X   -0.167813
    6  S  1  Y    0.000000
    7  S  1  Z    0.000000
    8  S  1  X    0.772518
    9  S  1  Y   -0.000001
   10  S  1  Z    0.000000
   11  S  1  X    0.159736
   12  S  1  Y   -0.000003
   13  S  1  Z    0.000000
   14  S  1 XX   -0.000001
   15  S  1 YY   -0.000000
   16  S  1 ZZ    0.000001
   17  S  1 XY    0.591096
   18  S  1 XZ    0.000000
   19  S  1 YZ    0.000000
   20  O  2  S   -0.007382
   21  O  2  S    0.411123
   22  O  2  S   -0.759013
   23  O  2  X   -0.049398
   24  O  2  Y   -0.030328
   25  O  2  Z    0.000000
   26  O  2  X    0.423919
   27  O  2  Y    0.306142
   28  O  2  Z    0.000000
   29  O  2 XX   -0.396120
   30  O  2 YY    0.034511
   31  O  2 ZZ    0.361610
   32  O  2 XY   -0.630404
   33  O  2 XZ    0.000000
   34  O  2 YZ    0.000000
   35  O  3  S    0.007382
   36  O  3  S   -0.411127
   37  O  3  S    0.759021
   38  O  3  X   -0.049399
   39  O  3  Y    0.030328
   40  O  3  Z    0.000000
   41  O  3  X    0.423922
   42  O  3  Y   -0.306143
   43  O  3  Z    0.000000
   44  O  3 XX    0.396122
   45  O  3 YY   -0.034511
   46  O  3 ZZ   -0.361610
   47  O  3 XY   -0.630405
   48  O  3 XZ    0.000000
   49  O  3 YZ    0.000000
 ...... END OF RHF CALCULATION ......
 STEP CPU TIME =     2.49 TOTAL CPU TIME =          2.6 (      0.0 MIN)
 TOTAL WALL CLOCK TIME=          2.7 SECONDS, CPU UTILIZATION IS    98.51%

     ---------------------------------------------------------------------
     PROPERTIES FOR THE PBE      DFT FUNCTIONAL (RHF  TYPE) DENSITY MATRIX
     ---------------------------------------------------------------------

          -----------------
          ENERGY COMPONENTS
          -----------------

         WAVEFUNCTION NORMALIZATION =       1.0000000000

                ONE ELECTRON ENERGY =    -938.2045384414
                TWO ELECTRON ENERGY =     298.1632232272
           NUCLEAR REPULSION ENERGY =      91.8479836752
                                      ------------------
                       TOTAL ENERGY =    -548.1933315390

 ELECTRON-ELECTRON POTENTIAL ENERGY =     298.1632232272
  NUCLEUS-ELECTRON POTENTIAL ENERGY =   -1484.9453730406
   NUCLEUS-NUCLEUS POTENTIAL ENERGY =      91.8479836752
                                      ------------------
             TOTAL POTENTIAL ENERGY =   -1094.9341661383
               TOTAL KINETIC ENERGY =     546.7408345993
                 VIRIAL RATIO (V/T) =       2.0026566462

          ---------------------------------------
          MULLIKEN AND LOWDIN POPULATION ANALYSES
          ---------------------------------------

     ATOMIC MULLIKEN POPULATION IN EACH MOLECULAR ORBITAL

                      1          2          3          4          5

                  2.000000   2.000000   2.000000   2.000000   2.000000

    1             1.999982   0.001033   0.000586   2.000439   2.000290
    2             0.000009   0.995572   1.003619  -0.000219  -0.000145
    3             0.000009   1.003395   0.995796  -0.000219  -0.000145

                      6          7          8          9         10

                  2.000000   2.000000   2.000000   2.000000   2.000000

    1             2.000006   2.000152   0.587568   0.217198   1.233757
    2            -0.000003  -0.000076   0.706211   0.891408   0.383120
    3            -0.000003  -0.000076   0.706222   0.891394   0.383123

                     11         12         13         14         15

                  2.000000   2.000000   2.000000   2.000000   2.000000

    1             0.631887   1.046732   1.177430   0.042358   0.220219
    2             0.684057   0.476633   0.411284   0.978821   0.889868
    3             0.684056   0.476635   0.411286   0.978821   0.889913

                     16

                  2.000000

    1             0.103168
    2             0.948441
    3             0.948391

               ----- POPULATIONS IN EACH AO -----
                             MULLIKEN      LOWDIN
              1  S  1  S      1.99984     1.99927
              2  S  1  S      1.99258     1.88849
              3  S  1  S      1.36402     0.70053
              4  S  1  S      0.52521     0.46406
              5  S  1  X      1.99345     1.95714
              6  S  1  Y      1.99451     1.96437
              7  S  1  Z      1.99402     1.96205
              8  S  1  X      0.80687     0.69725
              9  S  1  Y      0.98597     0.90094
             10  S  1  Z      0.91229     0.82668
             11  S  1  X      0.07703     0.21881
             12  S  1  Y      0.13656     0.28974
             13  S  1  Z      0.26406     0.36978
             14  S  1 XX      0.02083     0.29146
             15  S  1 YY      0.07035     0.29126
             16  S  1 ZZ      0.07578     0.28900
             17  S  1 XY      0.04236     0.09044
             18  S  1 XZ      0.00707     0.04924
             19  S  1 YZ      0.00000     0.00688
             20  O  2  S      1.99570     1.97302
             21  O  2  S      0.96763     0.71181
             22  O  2  S      0.98686     0.55881
             23  O  2  X      0.87334     0.83364
             24  O  2  Y      1.00782     0.97581
             25  O  2  Z      0.82984     0.79871
             26  O  2  X      0.51422     0.60481
             27  O  2  Y      0.62438     0.68735
             28  O  2  Z      0.55712     0.58979
             29  O  2 XX      0.00146     0.20954
             30  O  2 YY      0.00295     0.20573
             31  O  2 ZZ      0.00412     0.21057
             32  O  2 XY      0.00206     0.00752
             33  O  2 XZ      0.00108     0.00278
             34  O  2 YZ      0.00000     0.00140
             35  O  3  S      1.99570     1.97302
             36  O  3  S      0.96763     0.71181
             37  O  3  S      0.98686     0.55881
             38  O  3  X      0.87334     0.83364
             39  O  3  Y      1.00782     0.97581
             40  O  3  Z      0.82984     0.79871
             41  O  3  X      0.51422     0.60481
             42  O  3  Y      0.62438     0.68735
             43  O  3  Z      0.55712     0.58979
             44  O  3 XX      0.00146     0.20954
             45  O  3 YY      0.00295     0.20573
             46  O  3 ZZ      0.00412     0.21057
             47  O  3 XY      0.00206     0.00752
             48  O  3 XZ      0.00108     0.00278
             49  O  3 YZ      0.00000     0.00140

          ----- MULLIKEN ATOMIC OVERLAP POPULATIONS -----
          (OFF-DIAGONAL ELEMENTS NEED TO BE MULTIPLIED BY 2)

             1           2           3

    1   14.7085451
    2    0.2771271   8.1208528
    3    0.2771309  -0.0293803   8.1208466

          TOTAL MULLIKEN AND LOWDIN ATOMIC POPULATIONS
       ATOM         MULL.POP.    CHARGE          LOW.POP.     CHARGE
    1 S            15.262803    0.737197        15.257417    0.742583
    2 O             8.368600   -0.368600         8.371292   -0.371292
    3 O             8.368597   -0.368597         8.371291   -0.371291

          MULLIKEN SPHERICAL HARMONIC POPULATIONS
       ATOM           S       P       D      F      G      H      I    TOTAL
    1 S             5.88    9.16    0.22   0.00   0.00   0.00   0.00   15.26
    2 O             3.95    4.41    0.01   0.00   0.00   0.00   0.00    8.37
    3 O             3.95    4.41    0.01   0.00   0.00   0.00   0.00    8.37

          -------------------------------
          BOND ORDER AND VALENCE ANALYSIS     BOND ORDER THRESHOLD=0.050
          -------------------------------

                   BOND                       BOND                       BOND
  ATOM PAIR DIST  ORDER      ATOM PAIR DIST  ORDER      ATOM PAIR DIST  ORDER
    1   2  1.700  1.662        1   3  1.700  1.662        2   3  2.785  0.447

                       TOTAL       BONDED        FREE
      ATOM            VALENCE     VALENCE     VALENCE
    1 S                 3.325       3.325       0.000
    2 O                 2.109       2.109       0.000
    3 O                 2.109       2.109      -0.000

          ---------------------
          ELECTROSTATIC MOMENTS
          ---------------------

 POINT   1           X           Y           Z (BOHR)    CHARGE
                -0.000000   -0.000000    0.000000        0.00 (A.U.)
         DX          DY          DZ         /D/  (DEBYE)
    -0.000002   -2.490101    0.000000    2.490101
 ...... END OF PROPERTY EVALUATION ......
 STEP CPU TIME =     0.00 TOTAL CPU TIME =          2.6 (      0.0 MIN)
 TOTAL WALL CLOCK TIME=          2.7 SECONDS, CPU UTILIZATION IS    98.51%
                580000  WORDS OF DYNAMIC MEMORY USED
 EXECUTION OF GAMESS TERMINATED NORMALLY Sun Sep 29 10:54:03 2019
 DDI: 263640 bytes (0.3 MB / 0 MWords) used by master data server.

 ----------------------------------------
 CPU timing information for all processes
 ========================================
 0: 2.576 + 0.74 = 2.650
 ----------------------------------------
 ddikick.x: exited gracefully.
----- accounting info -----
Files used on the master node crcfe02.crc.nd.edu were:
-rw-r--r-- 1 cdrisko campus     208 Sep 29 10:54 /afs/crc.nd.edu/user/c/cdrisko/SO2.F05
-rw-r--r-- 1 cdrisko campus   37566 Sep 29 10:54 /afs/crc.nd.edu/user/c/cdrisko/SO2.F07
-rw-r--r-- 1 cdrisko campus 4140368 Sep 29 10:54 /afs/crc.nd.edu/user/c/cdrisko/SO2.F08
-rw-r--r-- 1 cdrisko campus 1766880 Sep 29 10:54 /afs/crc.nd.edu/user/c/cdrisko/SO2.F10
Sun Sep 29 10:54:06 EDT 2019
0.450u 0.235s 0:06.33 10.7%	0+0k 0+24io 0pf+0w
