----- GAMESS execution script 'rungms' -----
This job is running on host crcfe01.crc.nd.edu
under operating system Linux at Thu Oct 17 23:39:06 EDT 2019
Available scratch disk space (Kbyte units) at beginning of the job is
Filesystem      1K-blocks  Used  Available Use% Mounted on
AFS            2147483647     0 2147483647   0% /afs
GAMESS temporary binary files will be written to /afs/crc.nd.edu/user/c/cdrisko
GAMESS supplementary output files will be written to /afs/crc.nd.edu/user/c/cdrisko/scr
Copying input file acetaldehyde.inp to your run's scratch directory...

 Distributed Data Interface kickoff program.
 Initiating 1 compute processes on 1 nodes to run the following command:
 /afs/crc.nd.edu/x86_64_linux/g/gamess/nov-2017/gamess/gamess.00.x acetaldehyde 

          ******************************************************
          *         GAMESS VERSION = 11 NOV 2017 (R3)         *
          *             FROM IOWA STATE UNIVERSITY             *
          * M.W.SCHMIDT, K.K.BALDRIDGE, J.A.BOATZ, S.T.ELBERT, *
          *   M.S.GORDON, J.H.JENSEN, S.KOSEKI, N.MATSUNAGA,   *
          *          K.A.NGUYEN, S.J.SU, T.L.WINDUS,           *
          *       TOGETHER WITH M.DUPUIS, J.A.MONTGOMERY       *
          *         J.COMPUT.CHEM.  14, 1347-1363(1993)        *
          **************** 64 BIT INTEL VERSION ****************

  SINCE 1993, STUDENTS AND POSTDOCS WORKING AT IOWA STATE UNIVERSITY
  AND ALSO IN THEIR VARIOUS JOBS AFTER LEAVING ISU HAVE MADE IMPORTANT
  CONTRIBUTIONS TO THE CODE:
     IVANA ADAMOVIC, CHRISTINE AIKENS, YURI ALEXEEV, POOJA ARORA,
     ANDREY ASADCHEV, ROB BELL, PRADIPTA BANDYOPADHYAY, JONATHAN BENTZ,
     BRETT BODE, KURT BRORSEN, CALEB CARLIN, GALINA CHABAN, WEI CHEN,
     CHEOL HO CHOI, PAUL DAY, ALBERT DEFUSCO, NUWAN DESILVA, TIM DUDLEY,
     DMITRI FEDOROV, ALEX FINDLATER, GRAHAM FLETCHER, MARK FREITAG,
     KURT GLAESEMANN, ANASTASIA GUININA,
     DAN KEMP, GRANT MERRILL, NORIYUKI MINEZAWA, JONATHAN MULLIN,
     TAKESHI NAGATA, SEAN NEDD, HEATHER NETZLOFF, BOSILJKA NJEGIC, RYAN OLSON,
     MIKE PAK, BUU PHAM,
     SPENCER PRUITT, LUKE ROSKOP, JIM SHOEMAKER, LYUDMILA SLIPCHENKO,
     TONY SMITH, SAROM SOK LEANG, JIE SONG, TETSUYA TAKETSUGU, SIMON WEBB,
     PENG XU, SOOHAENG YOO, FEDERICO ZAHARIEV

  ADDITIONAL CODE HAS BEEN PROVIDED BY COLLABORATORS IN OTHER GROUPS:
     IOWA STATE UNIVERSITY:
          JOE IVANIC, AARON WEST, LAIMUTIS BYTAUTAS, KLAUS RUEDENBERG
     UNIVERSITY OF TOKYO: KIMIHIKO HIRAO, TAKAHITO NAKAJIMA,
          TAKAO TSUNEDA, MUNEAKI KAMIYA, SUSUMU YANAGISAWA,
          KIYOSHI YAGI, MAHITO CHIBA, SEIKEN TOKURA, NAOAKI KAWAKAMI
     UNIVERSITY OF AARHUS: FRANK JENSEN
     UNIVERSITY OF IOWA: VISVALDAS KAIRYS, HUI LI
     NATIONAL INST. OF STANDARDS AND TECHNOLOGY: WALT STEVENS, DAVID GARMER
     UNIVERSITY OF PISA: BENEDETTA MENNUCCI, JACOPO TOMASI
     UNIVERSITY OF MEMPHIS: HENRY KURTZ, PRAKASHAN KORAMBATH
     UNIVERSITY OF ALBERTA: TOBY ZENG, MARIUSZ KLOBUKOWSKI
     UNIVERSITY OF NEW ENGLAND: MARK SPACKMAN
     MIE UNIVERSITY: HIROAKI UMEDA
     NAT. INST. OF ADVANCED INDUSTRIAL SCIENCE AND TECHNOLOGY: KAZUO KITAURA
     MICHIGAN STATE UNIVERSITY:
          KAROL KOWALSKI, MARTA WLOCH, JEFFREY GOUR, JESSE LUTZ,
          WEI LI, PIOTR PIECUCH
     UNIVERSITY OF SILESIA: MONIKA MUSIAL, STANISLAW KUCHARSKI
     FACULTES UNIVERSITAIRES NOTRE-DAME DE LA PAIX:
          OLIVIER QUINET, BENOIT CHAMPAGNE
     UNIVERSITY OF CALIFORNIA - SANTA BARBARA: BERNARD KIRTMAN
     INSTITUTE FOR MOLECULAR SCIENCE:
          KAZUYA ISHIMURA, MICHIO KATOUDA, AND SHIGERU NAGASE
     UNIVERSITY OF NOTRE DAME: ANNA POMOGAEVA, DAN CHIPMAN
     KYUSHU UNIVERSITY:
          HARUYUKI NAKANO,
          FENG LONG GU, JACEK KORCHOWIEC, MARCIN MAKOWSKI, AND YURIKO AOKI,
          HIROTOSHI MORI AND EISAKU MIYOSHI
     PENNSYLVANIA STATE UNIVERSITY:
          TZVETELIN IORDANOV, CHET SWALINA, JONATHAN SKONE,
          SHARON HAMMES-SCHIFFER
     WASEDA UNIVERSITY:
          MASATO KOBAYASHI, TOMOKO AKAMA, TSUGUKI TOUMA,
          TAKESHI YOSHIKAWA, YASUHIRO IKABATA, JUNJI SEINO,
          YUYA NAKAJIMA, HIROMI NAKAI
     NANJING UNIVERSITY: SHUHUA LI
     UNIVERSITY OF NEBRASKA:
          PEIFENG SU, DEJUN SI, NANDUN THELLAMUREGE, YALI WANG, HUI LI
     UNIVERSITY OF ZURICH: ROBERTO PEVERATI, KIM BALDRIDGE
     N. COPERNICUS UNIVERSITY AND JACKSON STATE UNIVERSITY:
          MARIA BARYSZ
     UNIVERSITY OF COPENHAGEN: Jimmy Kromann, CASPER STEINMANN
     TOKYO INSTITUTE OF TECHNOLOGY: HIROYA NAKATA
     NAGOYA UNIVERSITY: YOSHIO NISHIMOTO, STEPHAN IRLE
     MOSCOW STATE UNIVERSITY: VLADIMIR MIRONOV

 EXECUTION OF GAMESS BEGUN Thu Oct 17 23:39:07 2019

            ECHO OF THE FIRST FEW INPUT CARDS -
 INPUT CARD> $CONTRL SCFTYP=RHF DFTTYP=B3LYP RUNTYP=ENERGY                                  
 INPUT CARD>       ISPHER=1 MULT=1 COORD=ZMT NZVAR=15 $END                                  
 INPUT CARD> $BASIS GBASIS=N31 NGAUSS=6 NDFUNC=1 $END                                       
 INPUT CARD> $STATPT IFREEZ(1)=9 $END                                                       
 INPUT CARD> $DATA                                                                          
 INPUT CARD>Title Single Point Energy Calculation of Acetaldehyde                           
 INPUT CARD>C1                                                                              
 INPUT CARD>C                                                                               
 INPUT CARD>C      1   1.5086892                                                            
 INPUT CARD>O      2   1.2107245  1  124.7161                                               
 INPUT CARD>H      2   1.1145804  1  114.7739  3  180.0000  0                               
 INPUT CARD>H      1   1.0926781  2  110.5176  3  -130.      0                              
 INPUT CARD>H      1   1.0983769  2  109.8265  3  121.4889  0                               
 INPUT CARD>H      1   1.0983769  2  109.8265  3 -121.4889  0                               
 INPUT CARD> $END                                                                           
    1000000 WORDS OF MEMORY AVAILABLE

     BASIS OPTIONS
     -------------
     GBASIS=N31          IGAUSS=       6      POLAR=POPN31  
     NDFUNC=       1     NFFUNC=       0     DIFFSP=       F
     NPFUNC=       0      DIFFS=       F     BASNAM=        


     RUN TITLE
     ---------
 Title Single Point Energy Calculation of Acetaldehyde                           

 THE POINT GROUP OF THE MOLECULE IS C1      
 THE ORDER OF THE PRINCIPAL AXIS IS     0

 YOUR FULLY SUBSTITUTED Z-MATRIX IS
 C   
 C      1   1.5086892
 O      2   1.2107245  1  124.7161
 H      2   1.1145804  1  114.7739  3  180.0000  0
 H      1   1.0926781  2  110.5176  3 -130.0000  0
 H      1   1.0983769  2  109.8265  3  121.4889  0
 H      1   1.0983769  2  109.8265  3 -121.4889  0

 THE MOMENTS OF INERTIA ARE (AMU-ANGSTROM**2)
 IXX=     7.793   IYY=    52.908   IZZ=    56.461

 ATOM      ATOMIC                      COORDINATES (BOHR)
           CHARGE         X                   Y                   Z
 C           6.0    -2.3381457611        0.4911666812       -0.0861366949
 C           6.0     0.2356175474       -0.7348109926       -0.0549186101
 O           8.0     2.2188690778        0.4012446346        0.0487598301
 H           1.0     0.2118037716       -2.8393598451       -0.1361750687
 H           1.0    -3.5697931285       -0.3755087135        1.3265113273
 H           1.0    -3.3608239019       -0.0624310913       -1.8054111117
 H           1.0    -3.4617961097       -0.1897110731        1.5207425697

          INTERNUCLEAR DISTANCES (ANGS.)
          ------------------------------

                1 C          2 C          3 O          4 H          5 H     

   1 C       0.0000000    1.5086892 *  2.4129941 *  2.2198436 *  1.0926781 *
   2 C       1.5086892 *  0.0000000    1.2107245 *  1.1145804 *  2.1507392 *
   3 O       2.4129941 *  1.2107245 *  0.0000000    2.0194911 *  3.1637810  
   4 H       2.2198436 *  1.1145804 *  2.0194911 *  0.0000000    2.5106931 *
   5 H       1.0926781 *  2.1507392 *  3.1637810    2.5106931 *  0.0000000  
   6 H       1.0983769 *  2.1463151 *  3.1210656    2.5522231 *  1.6692690 *
   7 H       1.0983769 *  2.1463151 *  3.1210656    2.5522231 *  0.1532879 *

                6 H          7 H     

   1 C       1.0983769 *  1.0983769 *
   2 C       2.1463151 *  2.1463151 *
   3 O       3.1210656    3.1210656  
   4 H       2.5522231 *  2.5522231 *
   5 H       1.6692690 *  0.1532879 *
   6 H       0.0000000    1.7622233 *
   7 H       1.7622233 *  0.0000000  

  * ... LESS THAN  3.000


     ATOMIC BASIS SET
     ----------------
 THE CONTRACTED PRIMITIVE FUNCTIONS HAVE BEEN UNNORMALIZED
 THE CONTRACTED BASIS FUNCTIONS ARE NOW NORMALIZED TO UNITY

  SHELL TYPE  PRIMITIVE        EXPONENT          CONTRACTION COEFFICIENT(S)

 C         

      1   S       1          3047.5248800    0.001834737132
      1   S       2           457.3695180    0.014037322813
      1   S       3           103.9486850    0.068842622264
      1   S       4            29.2101553    0.232184443216
      1   S       5             9.2866630    0.467941348435
      1   S       6             3.1639270    0.362311985337

      2   L       7             7.8682723   -0.119332419775    0.068999066591
      2   L       8             1.8812885   -0.160854151696    0.316423960957
      2   L       9             0.5442493    1.143456437840    0.744308290898

      3   L      10             0.1687145    1.000000000000    1.000000000000

      4   D      11             0.8000000    1.000000000000

 C         

      5   S      12          3047.5248800    0.001834737132
      5   S      13           457.3695180    0.014037322813
      5   S      14           103.9486850    0.068842622264
      5   S      15            29.2101553    0.232184443216
      5   S      16             9.2866630    0.467941348435
      5   S      17             3.1639270    0.362311985337

      6   L      18             7.8682723   -0.119332419775    0.068999066591
      6   L      19             1.8812885   -0.160854151696    0.316423960957
      6   L      20             0.5442493    1.143456437840    0.744308290898

      7   L      21             0.1687145    1.000000000000    1.000000000000

      8   D      22             0.8000000    1.000000000000

 O         

      9   S      23          5484.6716600    0.001831074430
      9   S      24           825.2349460    0.013950172200
      9   S      25           188.0469580    0.068445078098
      9   S      26            52.9645000    0.232714335992
      9   S      27            16.8975704    0.470192897984
      9   S      28             5.7996353    0.358520852987

     10   L      29            15.5396162   -0.110777549525    0.070874268231
     10   L      30             3.5999336   -0.148026262701    0.339752839147
     10   L      31             1.0137618    1.130767015354    0.727158577316

     11   L      32             0.2700058    1.000000000000    1.000000000000

     12   D      33             0.8000000    1.000000000000

 H         

     13   S      34            18.7311370    0.033494604338
     13   S      35             2.8253944    0.234726953484
     13   S      36             0.6401217    0.813757326146

     14   S      37             0.1612778    1.000000000000

 H         

     15   S      38            18.7311370    0.033494604338
     15   S      39             2.8253944    0.234726953484
     15   S      40             0.6401217    0.813757326146

     16   S      41             0.1612778    1.000000000000

 H         

     17   S      42            18.7311370    0.033494604338
     17   S      43             2.8253944    0.234726953484
     17   S      44             0.6401217    0.813757326146

     18   S      45             0.1612778    1.000000000000

 H         

     19   S      46            18.7311370    0.033494604338
     19   S      47             2.8253944    0.234726953484
     19   S      48             0.6401217    0.813757326146

     20   S      49             0.1612778    1.000000000000

 TOTAL NUMBER OF BASIS SET SHELLS             =   20
 NUMBER OF CARTESIAN GAUSSIAN BASIS FUNCTIONS =   53
 NOTE: THIS RUN WILL RESTRICT THE MO VARIATION SPACE TO SPHERICAL HARMONICS.
 THE NUMBER OF ORBITALS KEPT IN THE VARIATIONAL SPACE WILL BE PRINTED LATER.
 NUMBER OF ELECTRONS                          =   24
 CHARGE OF MOLECULE                           =    0
 SPIN MULTIPLICITY                            =    1
 NUMBER OF OCCUPIED ORBITALS (ALPHA)          =   12
 NUMBER OF OCCUPIED ORBITALS (BETA )          =   12
 TOTAL NUMBER OF ATOMS                        =    7
 THE NUCLEAR REPULSION ENERGY IS       72.3763463252

     LEBEDEV GRID-BASED DFT OPTIONS
     ------------------------------
     DFTTYP=B3LYP   
     NRAD  =      96     NLEB  =     302
     NRAD0 =      24     NLEB0 =     110
     SWOFF =    5.00E-03 (PURE SCF -> DFT)
     SWITCH=    3.00E-04 (COARSE -> TIGHT GRID)
     THRESH=    0.00E+00 GTHRE=    1.00E+00

 GRIMME'S EMPIRICAL DISPERSION CORRECTION= F

     $CONTRL OPTIONS
     ---------------
 SCFTYP=RHF          RUNTYP=ENERGY       EXETYP=RUN     
 MPLEVL=       0     CITYP =NONE         CCTYP =NONE         VBTYP =NONE    
 DFTTYP=B3LYP        TDDFT =NONE    
 MULT  =       1     ICHARG=       0     NZVAR =      15     COORD =ZMT     
 PP    =NONE         RELWFN=NONE         LOCAL =NONE         NUMGRD=       F
 ISPHER=       1     NOSYM =       0     MAXIT =      30     UNITS =ANGS    
 PLTORB=       F     MOLPLT=       F     AIMPAC=       F     FRIEND=        
 NPRINT=       7     IREST =       0     GEOM  =INPUT   
 NORMF =       0     NORMP =       0     ITOL  =      20     ICUT  =       9
 INTTYP=BEST         GRDTYP=BEST         QMTTOL= 1.0E-06

     $SYSTEM OPTIONS
     ---------------
  REPLICATED MEMORY=     1000000 WORDS (ON EVERY NODE).
 DISTRIBUTED MEMDDI=           0 MILLION WORDS IN AGGREGATE,
 MEMDDI DISTRIBUTED OVER   1 PROCESSORS IS           0 WORDS/PROCESSOR.
 TOTAL MEMORY REQUESTED ON EACH PROCESSOR=     1000000 WORDS.
 TIMLIM=      525600.00 MINUTES, OR     365.0 DAYS.
 PARALL= F  BALTYP=  DLB     KDIAG=    0  COREFL= F
 MXSEQ2=     300 MXSEQ3=     150  mem10=         0

          ----------------
          PROPERTIES INPUT
          ----------------

     MOMENTS            FIELD           POTENTIAL          DENSITY
 IEMOM =       1   IEFLD =       0   IEPOT =       0   IEDEN =       0
 WHERE =COMASS     WHERE =NUCLEI     WHERE =NUCLEI     WHERE =NUCLEI  
 OUTPUT=BOTH       OUTPUT=BOTH       OUTPUT=BOTH       OUTPUT=BOTH    
 IEMINT=       0   IEFINT=       0                     IEDINT=       0
                                                       MORB  =       0
          EXTRAPOLATION IN EFFECT
          DIIS IN EFFECT
 ORBITAL PRINTING OPTION: NPREO=     1    53     2     1

     -------------------------------
     INTEGRAL TRANSFORMATION OPTIONS
     -------------------------------
     NWORD  =            0
     CUTOFF = 1.0E-09     MPTRAN =       0
     DIRTRF =       F     AOINTS =DUP     

          ----------------------
          INTEGRAL INPUT OPTIONS
          ----------------------
 NOPK  =       1 NORDER=       0 SCHWRZ=       T

   --- ENCODED Z MATRIX ---
 COORD  TYPE   I   J   K   L   M   N
    1      1    2   1
    2      1    3   2
    3      2    3   2   1
    4      1    4   2
    5      2    4   2   1
    6      3    4   2   1   3
    7      1    5   1
    8      2    5   1   2
    9      3    5   1   2   3
   10      1    6   1
   11      2    6   1   2
   12      3    6   1   2   3
   13      1    7   1
   14      2    7   1   2
   15      3    7   1   2   3

 THE DETERMINANT OF THE G MATRIX IS 10**(    -8)


                     --------------------
                     INTERNAL COORDINATES
                     --------------------

                 - - ATOMS - -         COORDINATE      COORDINATE
 NO.   TYPE    I  J  K  L  M  N        (BOHR,RAD)       (ANG,DEG)
 ----------------------------------------------------------------
   1 STRETCH   2  1                     2.8510092       1.5086892
   2 STRETCH   3  2                     2.2879376       1.2107245
   3 BEND      3  2  1                  2.1767066     124.7161000
   4 STRETCH   4  2                     2.1062515       1.1145804
   5 BEND      4  2  1                  2.0031825     114.7739000
   6 TORSION   4  2  1  3               3.1415927     180.0000000
   7 STRETCH   5  1                     2.0648622       1.0926781
   8 BEND      5  1  2                  1.9288960     110.5176000
   9 TORSION   5  1  2  3              -2.2689280    -130.0000000
  10 STRETCH   6  1                     2.0756314       1.0983769
  11 BEND      6  1  2                  1.9168340     109.8265000
  12 TORSION   6  1  2  3               2.1203813     121.4889000
  13 STRETCH   7  1                     2.0756314       1.0983769
  14 BEND      7  1  2                  1.9168340     109.8265000
  15 TORSION   7  1  2  3              -2.1203813    -121.4889000

     ------------------------------------------
     THE POINT GROUP IS C1 , NAXIS= 0, ORDER= 1
     ------------------------------------------

 -- VARIATIONAL SPACE WILL BE RESTRICTED TO PURE SPHERICAL HARMONICS ONLY --
 AFTER EXCLUDING CONTAMINANT COMBINATIONS FROM THE CARTESIAN GAUSSIAN BASIS
 SET, THE NUMBER OF SPHERICAL HARMONICS KEPT IN THE VARIATION SPACE IS   50

     DIMENSIONS OF THE SYMMETRY SUBSPACES ARE
 A   =   50

 ..... DONE SETTING UP THE RUN .....
 STEP CPU TIME =     0.02 TOTAL CPU TIME =          0.0 (      0.0 MIN)
 TOTAL WALL CLOCK TIME=          0.0 SECONDS, CPU UTILIZATION IS   100.00%

          ********************
          1 ELECTRON INTEGRALS
          ********************
 ...... END OF ONE-ELECTRON INTEGRALS ......
 STEP CPU TIME =     0.00 TOTAL CPU TIME =          0.0 (      0.0 MIN)
 TOTAL WALL CLOCK TIME=          0.0 SECONDS, CPU UTILIZATION IS    66.67%

          -------------
          GUESS OPTIONS
          -------------
          GUESS =HUCKEL            NORB  =       0          NORDER=       0
          MIX   =       F          PRTMO =       F          PUNMO =       F
          TOLZ  = 1.0E-08          TOLE  = 1.0E-05
          SYMDEN=       F          PURIFY=       F

 INITIAL GUESS ORBITALS GENERATED BY HUCKEL   ROUTINE.
 HUCKEL GUESS REQUIRES     27154 WORDS.

 STATISTICS FOR GENERATION OF SYMMETRY ORBITAL -Q- MATRIX
 NUMBER OF CARTESIAN ATOMIC ORBITALS=         53
 NUMBER OF SPHERICAL CONTAMINANTS DROPPED=     3
 NUMBER OF LINEARLY DEPENDENT MOS DROPPED=     0
 TOTAL NUMBER OF MOS IN VARIATION SPACE=      50

 SYMMETRIES FOR INITIAL GUESS ORBITALS FOLLOW.   BOTH SET(S).
    12 ORBITALS ARE OCCUPIED (    3 CORE ORBITALS).
     4=A        5=A        6=A        7=A        8=A        9=A       10=A   
    11=A       12=A       13=A       14=A       15=A       16=A       17=A   
    18=A       19=A       20=A       21=A       22=A   
 ...... END OF INITIAL ORBITAL SELECTION ......
 STEP CPU TIME =     0.01 TOTAL CPU TIME =          0.0 (      0.0 MIN)
 TOTAL WALL CLOCK TIME=          0.0 SECONDS, CPU UTILIZATION IS   100.00%

                    ----------------------
                    AO INTEGRAL TECHNOLOGY
                    ----------------------
     S,P,L SHELL ROTATED AXIS INTEGRALS, REPROGRAMMED BY
        KAZUYA ISHIMURA (IMS) AND JOSE SIERRA (SYNSTAR).
     S,P,D,L SHELL ROTATED AXIS INTEGRALS PROGRAMMED BY
        KAZUYA ISHIMURA (INSTITUTE FOR MOLECULAR SCIENCE).
     S,P,D,F,G SHELL TO TOTAL QUARTET ANGULAR MOMENTUM SUM 5,
        ERIC PROGRAM BY GRAHAM FLETCHER (ELORET AND NASA ADVANCED
        SUPERCOMPUTING DIVISION, AMES RESEARCH CENTER).
     S,P,D,F,G,L SHELL GENERAL RYS QUADRATURE PROGRAMMED BY
        MICHEL DUPUIS (PACIFIC NORTHWEST NATIONAL LABORATORY).

          --------------------
          2 ELECTRON INTEGRALS
          --------------------

 THE -PK- OPTION IS OFF, THE INTEGRALS ARE NOT IN SUPERMATRIX FORM.
 STORING   15000 INTEGRALS/RECORD ON DISK, USING 12 BYTES/INTEGRAL.
 TWO ELECTRON INTEGRAL EVALUATION REQUIRES   90606 WORDS OF MEMORY.
 SCHWARZ INEQUALITY OVERHEAD:      1430 INTEGRALS, T=        0.00
 II,JST,KST,LST =  1  1  1  1 NREC =         1 INTLOC =    1
 II,JST,KST,LST =  2  1  1  1 NREC =         1 INTLOC =    2
 II,JST,KST,LST =  3  1  1  1 NREC =         1 INTLOC =   34
 II,JST,KST,LST =  4  1  1  1 NREC =         1 INTLOC =  214
 II,JST,KST,LST =  5  1  1  1 NREC =         1 INTLOC = 1189
 II,JST,KST,LST =  6  1  1  1 NREC =         1 INTLOC = 3197
 II,JST,KST,LST =  7  1  1  1 NREC =         2 INTLOC =  933
 II,JST,KST,LST =  8  1  1  1 NREC =         3 INTLOC = 8171
 II,JST,KST,LST =  9  1  1  1 NREC =         7 INTLOC = 6067
 II,JST,KST,LST = 10  1  1  1 NREC =         8 INTLOC = 3460
 II,JST,KST,LST = 11  1  1  1 NREC =        13 INTLOC =  975
 II,JST,KST,LST = 12  1  1  1 NREC =        19 INTLOC =14772
 II,JST,KST,LST = 13  1  1  1 NREC =        34 INTLOC =10596
 II,JST,KST,LST = 14  1  1  1 NREC =        37 INTLOC =13548
 II,JST,KST,LST = 15  1  1  1 NREC =        41 INTLOC = 5079
 II,JST,KST,LST = 16  1  1  1 NREC =        44 INTLOC =12166
 II,JST,KST,LST = 17  1  1  1 NREC =        48 INTLOC =10465
 II,JST,KST,LST = 18  1  1  1 NREC =        52 INTLOC = 9550
 II,JST,KST,LST = 19  1  1  1 NREC =        57 INTLOC =  273
 II,JST,KST,LST = 20  1  1  1 NREC =        61 INTLOC = 6799
 SCHWARZ INEQUALITY TEST SKIPPED         964 INTEGRAL BLOCKS.
 TOTAL NUMBER OF NONZERO TWO-ELECTRON INTEGRALS =              980543
         66 INTEGRAL RECORDS WERE STORED ON DISK FILE  8.
  ...... END OF TWO-ELECTRON INTEGRALS .....
 STEP CPU TIME =     0.12 TOTAL CPU TIME =          0.2 (      0.0 MIN)
 TOTAL WALL CLOCK TIME=          0.2 SECONDS, CPU UTILIZATION IS    93.75%

          --------------------------
             R-B3LYP SCF CALCULATION
          --------------------------

     NUCLEAR ENERGY =        72.3763463252
     MAXIT =   30     NPUNCH=    2
     EXTRAP=T  DAMP=F  SHIFT=F  RSTRCT=F  DIIS=T  DEM=F  SOSCF=F
         DENSITY MATRIX CONVERGENCE THRESHOLD=  1.00E-05
     COARSE -> FINE DFT GRID SWITCH THRESHOLD=  3.00E-04 (SWITCH IN $DFT)
                   HF -> DFT SWITCH THRESHOLD=  5.00E-03 (SWOFF IN $DFT)
     MEMORY REQUIRED FOR RHF ITERS=    307426 WORDS.

 DFT CODE IS SWITCHING FROM THE FINE GRID NRAD= 96,  NLEB=  302
                      TO THE COARSE GRID NRAD0= 24, NLEB0=  110

     EXCHANGE FUNCTIONAL   =B88&HFX   
     CORRELATION FUNCTIONAL=LYP88&VWN5
     DFT THRESHOLD         =.197E-07
     GRID CHANGE THRESHOLD =.300E-03
 FOR AN EULER-MACLAURIN QUADRATURE USING  96 RADIAL POINTS:
 SMALLEST GAUSSIAN PRIMITIVE EXPONENT=        0.1612777588 OF TYPE -S-
 ON ATOM NUMBER   4 HAS RADIAL NORMALIZATION=  1.000000
  LARGEST GAUSSIAN PRIMITIVE EXPONENT=     5484.6716600000 OF TYPE -S-
 ON ATOM NUMBER   3 HAS RADIAL NORMALIZATION=  1.000000
 DFT IS SWITCHED OFF, PERFORMING PURE SCF UNTIL SWOFF THRESHOLD IS REACHED.

 ITER EX DEM     TOTAL ENERGY        E CHANGE  DENSITY CHANGE    DIIS ERROR
          * * *   INITIATING DIIS PROCEDURE   * * *
   1  0  0     -149.9071394596  -149.9071394596   1.328595562   0.496957097
   2  1  0     -150.6265096233    -0.7193701637   0.165006469   0.097163318
   3  2  0     -150.6667061319    -0.0401965085   0.063804854   0.058406189
   4  3  0     -150.6845224153    -0.0178162835   0.037066923   0.009757272
   5  4  0     -150.6856515447    -0.0011291294   0.037619883   0.003738603
   6  5  0     -150.6858446867    -0.0001931420   0.022746252   0.002319248
   7  6  0     -150.6859047195    -0.0000600329   0.010588769   0.000916720
   8  7  0     -150.6859158559    -0.0000111364   0.001901078   0.000264372
 CONVERGED TO SWOFF, SO DFT CALCULATION IS NOW SWITCHED ON.
          * * *   INITIATING DIIS PROCEDURE   * * *
   9  8  0     -151.4942744399    -0.8083585840   0.933418153   0.050105254
  10  9  0     -151.5059316380    -0.0116571981   0.293011602   0.029963487
  11 10  0     -151.5033006820     0.0026309560   0.054351719   0.041466263
  12 11  0     -151.5091928656    -0.0058921836   0.056204579   0.009373639
  13 12  0     -151.5094095927    -0.0002167272   0.016927669   0.000871364
  14 13  0     -151.5094127419    -0.0000031492   0.001707161   0.000091462
  15 14  0     -151.5094128266    -0.0000000847   0.000189853   0.000021663
 DFT CODE IS SWITCHING BACK TO THE FINE GRID
          * * *   INITIATING DIIS PROCEDURE   * * *
  16 15  0     -151.5088044919     0.0006083347   0.002608385   0.001649480
  17 16  0     -151.5088132479    -0.0000087560   0.002102549   0.000309744
  18 17  0     -151.5088126072     0.0000006407   0.000564943   0.000471887
  19 18  0     -151.5088136255    -0.0000010183   0.000397819   0.000052876
  20 19  0     -151.5088136329    -0.0000000074   0.000020310   0.000009369
  21 20  0     -151.5088136332    -0.0000000003   0.000010657   0.000003023
  22 21  0     -151.5088136333    -0.0000000001   0.000009998   0.000000496

          -----------------
          DENSITY CONVERGED
          -----------------
     TIME TO FORM FOCK OPERATORS=       4.7 SECONDS (       0.2 SEC/ITER)
     TIME TO SOLVE SCF EQUATIONS=       0.0 SECONDS (       0.0 SEC/ITER)

 FINAL R-B3LYP ENERGY IS     -151.5088136333 AFTER  22 ITERATIONS
 DFT EXCHANGE + CORRELATION ENERGY =       -16.9678046135
 TOTAL ELECTRON NUMBER             =        24.0000794365

          ------------
          EIGENVECTORS
          ------------

                      1          2          3          4          5
                  -19.1571   -10.2827   -10.2164    -1.0522    -1.0034
                     A          A          A          A          A   
    1  C  1  S   -0.000014   0.001102   0.995263  -0.030829  -0.103099
    2  C  1  S   -0.000531  -0.001119   0.036048   0.062157   0.209599
    3  C  1  X   -0.000269  -0.000914  -0.000936   0.011507  -0.085749
    4  C  1  Y    0.000059   0.000357  -0.003294  -0.021470  -0.082072
    5  C  1  Z   -0.000007   0.000030   0.000780   0.016244   0.098271
    6  C  1  S    0.000824   0.005903  -0.029597   0.016443   0.049568
    7  C  1  X   -0.001140   0.002397   0.000868   0.001738  -0.013546
    8  C  1  Y   -0.001408  -0.002162   0.007003   0.007237   0.013156
    9  C  1  Z   -0.000093  -0.000277   0.000468   0.000687   0.002685
   10  C  1 XX   -0.000385  -0.000914   0.000169   0.004352  -0.002159
   11  C  1 YY    0.000384   0.000243  -0.000163  -0.002917  -0.002178
   12  C  1 ZZ    0.000000   0.000671  -0.000006  -0.001435   0.004337
   13  C  1 XY   -0.000131   0.000804  -0.000007  -0.001488   0.008438
   14  C  1 XZ   -0.000025  -0.000014  -0.000128  -0.000645  -0.006257
   15  C  1 YZ    0.000000  -0.000006  -0.000052  -0.001583  -0.008014
   16  C  2  S    0.000232   0.995149  -0.001070  -0.117590   0.001489
   17  C  2  S    0.000045   0.035701  -0.001418   0.222602  -0.017262
   18  C  2  X   -0.000059   0.001713   0.000526   0.151114  -0.074765
   19  C  2  Y   -0.000229   0.001302  -0.000377   0.093439  -0.013872
   20  C  2  Z   -0.000011   0.000053  -0.000016   0.007999   0.003086
   21  C  2  S    0.008818  -0.016017   0.006729   0.092213   0.046170
   22  C  2  X    0.005429   0.005952  -0.005256  -0.024295  -0.049023
   23  C  2  Y    0.004882   0.002443   0.000011  -0.020074  -0.003333
   24  C  2  Z    0.000349   0.000342  -0.000192   0.001448   0.014673
   25  C  2 XX   -0.000587   0.001411  -0.000900   0.018463   0.002385
   26  C  2 YY    0.000308  -0.000227   0.000396  -0.003168  -0.001622
   27  C  2 ZZ    0.000279  -0.001184   0.000504  -0.015295  -0.000763
   28  C  2 XY   -0.000758   0.001215   0.000817   0.021002  -0.008982
   29  C  2 XZ   -0.000058   0.000120   0.000031   0.001347  -0.003072
   30  C  2 YZ   -0.000021   0.000068   0.000015   0.000788   0.000463
   31  O  3  S    0.995117  -0.000048  -0.000030  -0.190948   0.044044
   32  O  3  S    0.029427   0.000453  -0.000634   0.422386  -0.100100
   33  O  3  X   -0.001998   0.000986   0.000106  -0.139807   0.026274
   34  O  3  Y   -0.001140   0.000495  -0.000015  -0.080235   0.019425
   35  O  3  Z   -0.000134   0.000055  -0.000010  -0.007497   0.003610
   36  O  3  S   -0.019402  -0.005924   0.002261   0.371566  -0.070693
   37  O  3  X    0.005165   0.003770  -0.000378  -0.041001   0.009287
   38  O  3  Y    0.002604   0.002601  -0.000685  -0.024660  -0.001311
   39  O  3  Z    0.000270   0.000206  -0.000017  -0.003530  -0.004769
   40  O  3 XX   -0.000189  -0.001196  -0.000051   0.006264  -0.001282
   41  O  3 YY    0.000108   0.000087   0.000235  -0.003677   0.000711
   42  O  3 ZZ    0.000081   0.001109  -0.000183  -0.002587   0.000571
   43  O  3 XY   -0.000104  -0.001455   0.000130   0.009813  -0.001895
   44  O  3 XZ   -0.000016  -0.000144   0.000013   0.001314   0.000003
   45  O  3 YZ   -0.000001  -0.000093   0.000028   0.000046   0.000135
   46  H  4  S   -0.000232  -0.000957  -0.000620   0.027365  -0.001122
   47  H  4  S    0.001160   0.005042   0.000031  -0.013655  -0.004081
   48  H  5  S   -0.000478  -0.000155  -0.000395   0.065228   0.384449
   49  H  5  S    0.000467  -0.003389   0.011797   0.008759   0.075504
   50  H  6  S   -0.000064  -0.000549  -0.000370   0.010668   0.041864
   51  H  6  S   -0.000576   0.000537   0.006590   0.002324   0.017232
   52  H  7  S    0.000379  -0.000362  -0.000457   0.060987   0.363124
   53  H  7  S   -0.000998   0.003985  -0.004661  -0.006225  -0.040358

                      6          7          8          9         10
                   -0.6703    -0.5359    -0.4719    -0.4354    -0.3859
                     A          A          A          A          A   
    1  C  1  S   -0.100454  -0.100873   0.013078   0.003378  -0.025673
    2  C  1  S    0.189458   0.198973  -0.017789  -0.013641   0.049282
    3  C  1  X    0.157577  -0.014073   0.232351   0.171996  -0.088692
    4  C  1  Y   -0.086432  -0.007727   0.033877  -0.057566   0.014654
    5  C  1  Z   -0.107841  -0.169235   0.199755   0.126152  -0.053230
    6  C  1  S    0.232472   0.273946  -0.059527   0.017243   0.095606
    7  C  1  X    0.024780  -0.021113   0.081631   0.079115  -0.048559
    8  C  1  Y   -0.048134  -0.024116   0.030986  -0.035984  -0.003752
    9  C  1  Z   -0.012866  -0.038787   0.055867   0.043912  -0.005928
   10  C  1 XX    0.003528   0.003650   0.005704  -0.004980  -0.000162
   11  C  1 YY   -0.000229  -0.009564  -0.002360   0.009489  -0.003838
   12  C  1 ZZ   -0.003300   0.005915  -0.003344  -0.004509   0.004000
   13  C  1 XY   -0.013437   0.007094  -0.014147  -0.014646   0.006475
   14  C  1 XZ    0.007393   0.007681  -0.005379  -0.001702   0.012536
   15  C  1 YZ    0.005276   0.011630  -0.014592  -0.010777   0.002014
   16  C  2  S   -0.134421   0.078786  -0.037791   0.015054   0.009869
   17  C  2  S    0.280618  -0.163913   0.088427  -0.047093  -0.019882
   18  C  2  X   -0.211983  -0.108973  -0.065817  -0.329463   0.068186
   19  C  2  Y   -0.054418   0.270044   0.313614  -0.116922  -0.022190
   20  C  2  Z   -0.024347  -0.042181   0.094921   0.084914   0.340636
   21  C  2  S    0.218062  -0.173362   0.067594   0.010136  -0.032532
   22  C  2  X   -0.054307   0.008747  -0.060659  -0.068953   0.028318
   23  C  2  Y   -0.039529   0.110186   0.076881  -0.027789  -0.007611
   24  C  2  Z   -0.012903  -0.027091   0.051132   0.056476   0.196820
   25  C  2 XX   -0.002791   0.008643  -0.000691  -0.009224   0.003857
   26  C  2 YY    0.007880  -0.011735  -0.000915   0.006671  -0.004885
   27  C  2 ZZ   -0.005089   0.003092   0.001606   0.002553   0.001028
   28  C  2 XY   -0.012730  -0.001019   0.001857  -0.011232  -0.000438
   29  C  2 XZ    0.001633   0.003741  -0.002636  -0.000318   0.024677
   30  C  2 YZ   -0.001346  -0.002670   0.003029   0.003630   0.012794
   31  O  3  S    0.072601  -0.047106   0.043879  -0.070496   0.005121
   32  O  3  S   -0.171811   0.111668  -0.101452   0.152630  -0.008209
   33  O  3  X   -0.056144   0.038078  -0.288396   0.371109  -0.036545
   34  O  3  Y   -0.011562   0.186107   0.082467   0.270332  -0.103915
   35  O  3  Z   -0.008511  -0.021217   0.061713   0.115731   0.483789
   36  O  3  S   -0.178811   0.138677  -0.153741   0.309624  -0.037551
   37  O  3  X   -0.040166   0.023256  -0.156226   0.187443  -0.014339
   38  O  3  Y   -0.008356   0.095375   0.046963   0.140978  -0.059386
   39  O  3  Z   -0.002827  -0.006902   0.030182   0.062468   0.300209
   40  O  3 XX    0.005573   0.004639   0.019132  -0.009142  -0.000269
   41  O  3 YY   -0.001431  -0.009274  -0.012843  -0.000950   0.003968
   42  O  3 ZZ   -0.004142   0.004635  -0.006289   0.010092  -0.003700
   43  O  3 XY    0.003122  -0.011919  -0.000336  -0.015417   0.004683
   44  O  3 XZ    0.000820   0.001848  -0.003502  -0.007114  -0.026884
   45  O  3 YZ    0.000491  -0.000086  -0.002707  -0.004464  -0.015761
   46  H  4  S    0.121335  -0.198675  -0.127841   0.051625  -0.009525
   47  H  4  S    0.035447  -0.111837  -0.118279   0.051153  -0.004853
   48  H  5  S   -0.148311  -0.074447  -0.006254  -0.027282  -0.043751
   49  H  5  S   -0.074895  -0.045897  -0.181577  -0.078286  -0.030454
   50  H  6  S    0.091660   0.174096  -0.185575  -0.119011   0.096823
   51  H  6  S    0.027177   0.102069  -0.142707  -0.101954   0.090281
   52  H  7  S   -0.157830  -0.102458   0.060754   0.006323  -0.059170
   53  H  7  S   -0.016640  -0.041990   0.213167   0.074740  -0.032843

                     11         12         13         14         15
                   -0.2655    -0.2134    -0.0492     0.0571     0.1293
                     A          A          A          A          A   
    1  C  1  S    0.065123   0.073151  -0.024072  -0.116719   0.036031
    2  C  1  S   -0.131882  -0.158079   0.036516   0.156917  -0.046565
    3  C  1  X   -0.179982   0.057192  -0.115289  -0.279415  -0.137980
    4  C  1  Y   -0.043973  -0.500909  -0.110131  -0.189458   0.044486
    5  C  1  Z   -0.093283  -0.113844   0.122404   0.265570  -0.111263
    6  C  1  S   -0.369349  -0.227454   0.220856   1.737204  -0.396223
    7  C  1  X   -0.076695   0.149165  -0.110308  -0.569417  -0.352414
    8  C  1  Y    0.027061  -0.391644  -0.127147  -0.466502   0.238179
    9  C  1  Z   -0.035998  -0.048254   0.205128   0.452564  -0.318102
   10  C  1 XX   -0.000251  -0.010487  -0.004660   0.001321   0.005427
   11  C  1 YY    0.006277   0.030897   0.004721   0.000748  -0.006792
   12  C  1 ZZ   -0.006026  -0.020409  -0.000060  -0.002069   0.001365
   13  C  1 XY    0.011591   0.002428   0.007726   0.018126  -0.009954
   14  C  1 XZ    0.002159   0.004812   0.023437  -0.023644   0.000905
   15  C  1 YZ    0.006661  -0.000405  -0.016045  -0.015302   0.006367
   16  C  2  S   -0.005198  -0.008765   0.008843   0.009441  -0.118745
   17  C  2  S    0.002506   0.036993  -0.019968   0.021042   0.170652
   18  C  2  X    0.044690  -0.075519   0.014288   0.039502  -0.057054
   19  C  2  Y   -0.089940   0.104854  -0.031553  -0.083686  -0.311846
   20  C  2  Z   -0.006918  -0.018853   0.454854  -0.160664   0.018017
   21  C  2  S    0.010098  -0.149165  -0.086428  -0.220633   1.864503
   22  C  2  X   -0.090886  -0.056473  -0.034419   0.085143  -0.140714
   23  C  2  Y    0.007456  -0.106595  -0.049383  -0.103101  -0.664952
   24  C  2  Z   -0.010142  -0.023853   0.475595  -0.263798   0.065902
   25  C  2 XX   -0.034430   0.020327   0.006278   0.010208  -0.006733
   26  C  2 YY    0.034547  -0.024637  -0.002432  -0.001428  -0.002219
   27  C  2 ZZ   -0.000117   0.004311  -0.003846  -0.008780   0.008952
   28  C  2 XY    0.026139   0.010735   0.008006   0.007812   0.004161
   29  C  2 XZ    0.005481   0.007201  -0.029991  -0.001620   0.001499
   30  C  2 YZ    0.002280  -0.001345  -0.012358   0.012555  -0.004750
   31  O  3  S   -0.002344  -0.009502  -0.005531  -0.012449   0.013042
   32  O  3  S    0.001344   0.014104   0.012152   0.031790  -0.024582
   33  O  3  X   -0.298622  -0.018567  -0.033505  -0.082355   0.041123
   34  O  3  Y    0.501818  -0.111282   0.031559   0.035973   0.110401
   35  O  3  Z    0.062298   0.048707  -0.425789   0.097097  -0.014142
   36  O  3  S    0.049411   0.136648   0.058103   0.102755  -0.153626
   37  O  3  X   -0.218109  -0.047706  -0.036990  -0.115571   0.054780
   38  O  3  Y    0.342369  -0.096579   0.023798   0.033936   0.207119
   39  O  3  Z    0.045677   0.038073  -0.427368   0.129241  -0.024369
   40  O  3 XX    0.015217   0.003414   0.000928   0.002384  -0.005868
   41  O  3 YY   -0.015506  -0.002941  -0.000954  -0.000638  -0.001479
   42  O  3 ZZ    0.000289  -0.000473   0.000026  -0.001746   0.007347
   43  O  3 XY   -0.008160   0.004333   0.001139   0.003145   0.002220
   44  O  3 XZ   -0.001344  -0.001033   0.000807   0.000294   0.000087
   45  O  3 YZ   -0.002498  -0.001116   0.001792   0.002889  -0.001484
   46  H  4  S    0.149374  -0.123066  -0.008000   0.022371  -0.077058
   47  H  4  S    0.229603  -0.235936  -0.010258  -0.120444  -1.805974
   48  H  5  S    0.070683   0.124212  -0.110678  -0.072168   0.019081
   49  H  5  S    0.522106   0.934463   0.138597  -0.787933  -1.713330
   50  H  6  S    0.061831   0.040404   0.079381  -0.067214   0.010201
   51  H  6  S    0.115152   0.038187   0.139349  -0.704331  -0.259986
   52  H  7  S    0.008603  -0.027824  -0.126299  -0.102313   0.044674
   53  H  7  S   -0.417443  -0.872176  -0.464617  -0.820932   1.928586

                     16         17         18         19         20
                    0.1427     0.2004     0.2557     0.2853     0.3429
                     A          A          A          A          A   
    1  C  1  S    0.059458   0.027943   0.005511  -0.068423  -0.070384
    2  C  1  S   -0.063641   0.041852   0.043463   0.087627   0.122535
    3  C  1  X    0.024630  -0.062302  -0.122110   0.266763  -0.032478
    4  C  1  Y   -0.005857   0.151432  -0.052147   0.075597  -0.197118
    5  C  1  Z    0.431870   0.108441  -0.045706   0.036794   0.048585
    6  C  1  S   -1.063110  -1.196127  -0.942426   0.647733   0.680998
    7  C  1  X    0.129935  -0.508049  -0.719992   1.484407   0.470887
    8  C  1  Y    0.140551   0.822759   0.209766   0.172847  -0.401389
    9  C  1  Z    1.104134   0.445051  -0.307028   0.153367   0.109913
   10  C  1 XX   -0.011113   0.028801  -0.014140  -0.047407  -0.016244
   11  C  1 YY   -0.002372   0.012084   0.016928   0.028424   0.027406
   12  C  1 ZZ    0.013485  -0.040885  -0.002788   0.018983  -0.011162
   13  C  1 XY   -0.005102  -0.000928  -0.020316   0.000919   0.009431
   14  C  1 XZ   -0.001310  -0.001435   0.013988   0.002427   0.036345
   15  C  1 YZ   -0.008321  -0.003978   0.023835  -0.007964   0.025813
   16  C  2  S   -0.019881  -0.045499   0.022302   0.080919   0.020065
   17  C  2  S   -0.013106   0.087331  -0.058786  -0.108128  -0.155381
   18  C  2  X    0.003017  -0.167556  -0.144786   0.243602   0.255524
   19  C  2  Y   -0.023553   0.048903   0.051164  -0.427278  -0.072177
   20  C  2  Z   -0.120833  -0.026690  -0.137525  -0.001940  -0.238973
   21  C  2  S    0.436579   0.736687  -0.429914  -1.879161   0.331144
   22  C  2  X   -0.124313  -0.988113  -1.602453  -0.345900   1.411092
   23  C  2  Y   -0.072388   0.053351  -0.062354  -1.635041   0.047949
   24  C  2  Z   -0.365610  -0.145594  -0.020299  -0.095188   0.039286
   25  C  2 XX   -0.001781   0.003345   0.015637   0.000866   0.024400
   26  C  2 YY   -0.007280   0.002580  -0.013256   0.016270  -0.022797
   27  C  2 ZZ    0.009061  -0.005926  -0.002381  -0.017136  -0.001603
   28  C  2 XY    0.002088   0.000425   0.020153  -0.012207  -0.001263
   29  C  2 XZ   -0.012159  -0.004262  -0.003134  -0.000609  -0.015664
   30  C  2 YZ    0.020292   0.001364   0.005586   0.001185   0.011479
   31  O  3  S    0.003513  -0.014535  -0.065489  -0.065120   0.047731
   32  O  3  S   -0.009679   0.000764   0.109561   0.080379  -0.074098
   33  O  3  X    0.014528   0.041894  -0.090967  -0.150760  -0.027245
   34  O  3  Y    0.006852  -0.066457  -0.109318   0.011030   0.110440
   35  O  3  Z    0.062294   0.026107   0.019230   0.001484   0.052131
   36  O  3  S   -0.016521   0.429117   1.218207   1.385016  -1.035548
   37  O  3  X    0.028876  -0.037456  -0.375361  -0.694473   0.293683
   38  O  3  Y    0.009909  -0.194106  -0.400548  -0.060719   0.364761
   39  O  3  Z    0.129050   0.027575  -0.006447  -0.020950   0.062651
   40  O  3 XX   -0.002456   0.005069   0.012870   0.012318  -0.026680
   41  O  3 YY   -0.000891  -0.001546  -0.004936   0.011309   0.010399
   42  O  3 ZZ    0.003347  -0.003522  -0.007934  -0.023627   0.016281
   43  O  3 XY    0.000623   0.007106   0.021954   0.026464  -0.019552
   44  O  3 XZ   -0.002994   0.000353   0.008129   0.002074   0.009872
   45  O  3 YZ    0.005215   0.001208   0.005763   0.002079   0.010553
   46  H  4  S   -0.041855  -0.029098  -0.008413   0.063432  -0.113816
   47  H  4  S   -0.282530  -0.180267   0.336818  -1.007005  -0.167663
   48  H  5  S   -0.140620  -0.036894  -0.296121  -0.012906  -0.398040
   49  H  5  S   -1.184999   9.156376  -5.055104   3.468570   1.623477
   50  H  6  S    0.077660  -0.132517   0.006820  -0.001577   0.037752
   51  H  6  S    1.858073   0.185784  -0.388509   0.387475  -0.323199
   52  H  7  S    0.005106  -0.229085  -0.156565   0.016730  -0.457816
   53  H  7  S    0.742791  -8.791946   5.765949  -3.037044  -0.499110

                     21         22         23         24         25
                    0.5353     0.5523     0.6005     0.6577     0.6807
                     A          A          A          A          A   
    1  C  1  S   -0.004106   0.016142   0.017556  -0.018315  -0.021589
    2  C  1  S    0.166059   0.103395  -0.221186   0.145052   0.366615
    3  C  1  X    0.485214   0.567152  -0.490767  -0.092936   0.244007
    4  C  1  Y   -0.587297  -0.331724  -0.680411   0.242695   0.038473
    5  C  1  Z    0.059459  -0.039692   0.339435   0.566736   0.472237
    6  C  1  S   -0.242599  -0.096906  -0.706456   0.571175  -0.824576
    7  C  1  X   -0.735168  -0.713096   0.493656   0.459103  -0.709116
    8  C  1  Y    0.556838   0.410992   1.034278  -0.359073   0.025737
    9  C  1  Z   -0.053297  -0.117503  -0.824975  -1.377921  -1.158512
   10  C  1 XX   -0.003308   0.019605  -0.056704   0.000307  -0.006792
   11  C  1 YY    0.026085  -0.007310   0.058219   0.017017  -0.020431
   12  C  1 ZZ   -0.022777  -0.012295  -0.001515  -0.017323   0.027223
   13  C  1 XY   -0.023405  -0.014787   0.037264  -0.080901   0.014406
   14  C  1 XZ    0.001807  -0.012094  -0.036579  -0.042018  -0.022317
   15  C  1 YZ   -0.007734  -0.005283  -0.043847  -0.039543  -0.029447
   16  C  2  S    0.038232   0.026453  -0.003109   0.026306  -0.045319
   17  C  2  S    0.010425   0.196064  -0.391927  -0.320646   0.290175
   18  C  2  X   -0.093708  -0.111753   0.199134  -0.552530   0.782175
   19  C  2  Y   -0.103339  -0.011838  -0.142999   0.145589   0.404261
   20  C  2  Z    0.645463  -0.736710  -0.167309  -0.085457   0.021029
   21  C  2  S    0.387257   0.051647   0.570388  -0.011184   0.717248
   22  C  2  X    0.249315   0.127755  -0.761424   1.026519  -0.916167
   23  C  2  Y    0.129117   0.048042   0.153236  -1.027304  -0.184681
   24  C  2  Z   -0.777109   0.980547   0.443944   0.439705   0.260185
   25  C  2 XX    0.086365   0.055158   0.005825   0.056753  -0.044624
   26  C  2 YY   -0.014512   0.020162  -0.035501  -0.058867  -0.002904
   27  C  2 ZZ   -0.071853  -0.075321   0.029676   0.002114   0.047528
   28  C  2 XY   -0.024853  -0.037964   0.036851   0.073883  -0.113259
   29  C  2 XZ    0.007023   0.005891   0.002272   0.011347  -0.003603
   30  C  2 YZ    0.016202  -0.019333  -0.025193  -0.029046  -0.026272
   31  O  3  S   -0.007116  -0.012558   0.008224  -0.021760   0.034518
   32  O  3  S    0.068940   0.082836  -0.088576   0.106936  -0.114696
   33  O  3  X   -0.124773  -0.075231   0.083843  -0.298054   0.217400
   34  O  3  Y    0.036706   0.037328  -0.165863   0.117638   0.238295
   35  O  3  Z    0.046353  -0.076029  -0.007968  -0.001850   0.028539
   36  O  3  S   -0.236785  -0.094130   0.206506  -0.149477   0.098313
   37  O  3  X    0.021035  -0.034059   0.020688  -0.136358   0.316971
   38  O  3  Y    0.060946   0.010962  -0.013445   0.040817   0.097395
   39  O  3  Z    0.081808  -0.098729  -0.084318  -0.097216  -0.059276
   40  O  3 XX   -0.024164  -0.011683  -0.011219  -0.041470   0.067591
   41  O  3 YY    0.018668   0.009779   0.003859  -0.002306  -0.009835
   42  O  3 ZZ    0.005496   0.001904   0.007360   0.043777  -0.057755
   43  O  3 XY   -0.013947  -0.009328  -0.015635  -0.058434   0.113465
   44  O  3 XZ   -0.041382   0.044881   0.017718   0.011791   0.019818
   45  O  3 YZ   -0.021476   0.021472  -0.006479  -0.019597  -0.008041
   46  H  4  S    0.064649   0.172803  -0.067647  -0.344687  -0.062556
   47  H  4  S    0.057270   0.018089   0.108911  -0.427320  -0.095973
   48  H  5  S   -0.036295   0.107437   0.070680  -0.070087  -0.063124
   49  H  5  S   -0.709309   0.064505   1.280475  -1.847818  -2.285695
   50  H  6  S   -0.150331   0.031247  -0.235589  -0.266922  -0.121064
   51  H  6  S   -0.038103   0.090403   0.057670  -0.272665  -0.516318
   52  H  7  S   -0.065862   0.099257  -0.097046  -0.007874  -0.005233
   53  H  7  S    0.914692  -0.431770  -0.613657   2.560301   2.698414

                     26         27         28         29         30
                    0.7280     0.7646     0.8543     0.8883     0.9216
                     A          A          A          A          A   
    1  C  1  S   -0.012354   0.006337  -0.011899   0.030780   0.017420
    2  C  1  S   -0.405001  -0.249828   0.071172  -1.108038  -0.412064
    3  C  1  X    0.312372  -0.304569   0.071866   0.370026  -0.066041
    4  C  1  Y    0.088610  -0.312379   0.100215   0.055422  -0.052471
    5  C  1  Z   -0.517541  -0.405210  -0.074306   0.377119   0.062718
    6  C  1  S    0.335148   1.122883  -0.503004   1.905713   1.048490
    7  C  1  X   -1.144478   1.732967  -0.548535  -0.691567   0.729536
    8  C  1  Y   -0.056866   0.790421  -0.027728  -0.023572   0.164971
    9  C  1  Z    0.802116   1.034099   0.076517  -0.517184   0.047666
   10  C  1 XX   -0.084364   0.022288  -0.029707  -0.067312  -0.052472
   11  C  1 YY    0.083409   0.023625   0.011203  -0.024336   0.034210
   12  C  1 ZZ    0.000954  -0.045913   0.018504   0.091648   0.018262
   13  C  1 XY   -0.009280  -0.023220   0.037397   0.037679  -0.067962
   14  C  1 XZ   -0.058217   0.001391  -0.023585   0.116313   0.049273
   15  C  1 YZ   -0.004679   0.003895  -0.007716   0.025823   0.008946
   16  C  2  S   -0.015735  -0.013610   0.051048  -0.014206   0.018543
   17  C  2  S   -0.660891   0.091085  -0.955965  -0.727907   1.045247
   18  C  2  X    0.335529  -0.124070   0.181321   0.019554   0.036380
   19  C  2  Y   -0.157554   0.799832   0.476663   0.132682   0.039549
   20  C  2  Z   -0.032021   0.022374   0.022178   0.015797  -0.003162
   21  C  2  S    1.676619  -0.994049   2.955630   0.996796  -1.305717
   22  C  2  X   -0.648050   0.505340  -0.125064  -0.281878   0.480975
   23  C  2  Y    0.303088  -2.972652  -0.353148  -0.539224  -0.329472
   24  C  2  Z   -0.061252  -0.288666  -0.018982   0.014931   0.001587
   25  C  2 XX    0.055230  -0.068195   0.016433  -0.064592   0.112148
   26  C  2 YY   -0.131421   0.023860   0.089174  -0.000296  -0.054430
   27  C  2 ZZ    0.076191   0.044335  -0.105607   0.064889  -0.057718
   28  C  2 XY    0.037921  -0.045543   0.111045   0.008849   0.132928
   29  C  2 XZ    0.029317  -0.008046   0.018378  -0.048894  -0.012317
   30  C  2 YZ   -0.015567   0.009984   0.006168   0.023839   0.020659
   31  O  3  S    0.015251  -0.012941   0.029627  -0.013269   0.047652
   32  O  3  S   -0.076128  -0.017291  -0.098250   0.021025  -0.270654
   33  O  3  X   -0.119926   0.144049  -0.353125   0.095914  -0.540915
   34  O  3  Y    0.080151   0.267149  -0.312769   0.061135  -0.201399
   35  O  3  Z   -0.078944  -0.006995  -0.050278   0.195604   0.073516
   36  O  3  S   -0.177127   0.861201  -0.624575   0.177445   0.041954
   37  O  3  X    0.257416  -0.503387   0.791922  -0.280121   0.950694
   38  O  3  Y    0.040990   0.047334   0.494395  -0.113895   0.540164
   39  O  3  Z    0.075494   0.045201   0.067601  -0.211299  -0.053020
   40  O  3 XX   -0.056322   0.104912  -0.009396   0.002938   0.018715
   41  O  3 YY    0.021920  -0.039197  -0.046895  -0.019092   0.018889
   42  O  3 ZZ    0.034402  -0.065715   0.056291   0.016154  -0.037604
   43  O  3 XY    0.017404   0.014831  -0.071762  -0.013951   0.004710
   44  O  3 XZ   -0.011287  -0.002255  -0.006478   0.006385   0.002803
   45  O  3 YZ    0.005892   0.014525  -0.007489  -0.000102   0.008397
   46  H  4  S   -0.678351  -0.015892   0.714162  -0.056890  -0.317879
   47  H  4  S    0.384618  -1.632323  -1.551473  -0.555396   0.407302
   48  H  5  S    0.135048   0.070404   0.018211  -0.024928  -0.034013
   49  H  5  S   -0.982923   3.625014  -0.330097   0.735648   1.732630
   50  H  6  S   -0.420932  -0.060706  -0.172703   0.785775   0.329375
   51  H  6  S    0.250593   0.910931   0.060270  -1.733608  -0.229096
   52  H  7  S    0.085189  -0.015656  -0.024100   0.100738   0.101218
   53  H  7  S   -0.389716  -3.589392   0.102245  -1.189662  -1.625513

                     31         32         33         34         35
                    0.9851     1.0796     1.1736     1.4149     1.5273
                     A          A          A          A          A   
    1  C  1  S    0.001835  -0.012170  -0.082392   0.018677  -0.003927
    2  C  1  S   -0.291796  -0.280712  -1.776146   0.254732  -0.052886
    3  C  1  X    0.036947  -0.070327   0.104108  -0.021854  -0.000137
    4  C  1  Y    0.006076  -0.045188   0.248054  -0.089229   0.024294
    5  C  1  Z    0.159709  -0.010248   0.099081   0.065777   0.060168
    6  C  1  S    0.662297  -0.176524   5.564863  -0.866032   0.162936
    7  C  1  X    0.022685  -0.416964   0.303951   0.090347  -0.028775
    8  C  1  Y   -0.086069  -0.150600  -1.970965   0.476801  -0.105983
    9  C  1  Z   -0.140375  -0.049232  -0.518953   0.339052  -0.424178
   10  C  1 XX   -0.011638  -0.022904   0.054650  -0.000147   0.010831
   11  C  1 YY   -0.003926   0.008754   0.133851  -0.095744   0.034860
   12  C  1 ZZ    0.015565   0.014150  -0.188501   0.095891  -0.045691
   13  C  1 XY    0.001796   0.059564   0.022861   0.001762   0.004976
   14  C  1 XZ    0.021042  -0.017535  -0.120381  -0.326233   0.145382
   15  C  1 YZ    0.050518  -0.005650   0.040786   0.458711  -0.067379
   16  C  2  S    0.000519  -0.000376   0.033237  -0.006539   0.001102
   17  C  2  S    0.056919   0.044224   0.727002  -0.108611   0.012619
   18  C  2  X   -0.007584   0.115269  -0.070981  -0.003368   0.012295
   19  C  2  Y    0.004901  -0.287078  -0.009324   0.023273   0.001168
   20  C  2  Z    0.115736  -0.009148  -0.002129  -0.051328  -0.184132
   21  C  2  S   -0.241538  -0.257221  -3.286128   0.522557  -0.075958
   22  C  2  X    0.121792  -0.738962   1.930695  -0.307959   0.045548
   23  C  2  Y   -0.062717   1.684930  -0.259216  -0.143239   0.044207
   24  C  2  Z   -0.577758   0.069229   0.214699   0.023823   0.222836
   25  C  2 XX   -0.006257  -0.139625  -0.034114  -0.036834  -0.000183
   26  C  2 YY    0.006046   0.150878   0.134482  -0.015311  -0.039441
   27  C  2 ZZ    0.000211  -0.011254  -0.100368   0.052145   0.039625
   28  C  2 XY    0.012707   0.069671  -0.027016  -0.007975  -0.032650
   29  C  2 XZ   -0.048238   0.009401   0.114339   0.558772   0.136186
   30  C  2 YZ    0.012334   0.001270  -0.061601  -0.141641   0.713935
   31  O  3  S    0.002017   0.002508   0.010246  -0.002559   0.000284
   32  O  3  S   -0.023986  -0.048591  -0.139968   0.032187   0.000630
   33  O  3  X    0.008455  -0.371326   0.184651  -0.033373   0.006860
   34  O  3  Y    0.038078   0.708243  -0.113273   0.003846   0.006292
   35  O  3  Z   -0.914251   0.031229   0.028015  -0.066899  -0.086639
   36  O  3  S    0.044507   0.017846   0.037006   0.032691  -0.025648
   37  O  3  X   -0.024472   0.687453  -0.409973   0.060185   0.002977
   38  O  3  Y   -0.040136  -1.348984   0.296214  -0.009328   0.003920
   39  O  3  Z    1.251885  -0.060469  -0.108543  -0.109118  -0.116532
   40  O  3 XX    0.006450   0.088475   0.035842   0.011351   0.023304
   41  O  3 YY   -0.002576  -0.088899   0.056524   0.002571   0.004654
   42  O  3 ZZ   -0.003874   0.000425  -0.092367  -0.013922  -0.027957
   43  O  3 XY   -0.003841  -0.067028  -0.003299   0.015245   0.017735
   44  O  3 XZ    0.030643  -0.000601  -0.006014  -0.160133  -0.499331
   45  O  3 YZ    0.020522  -0.010731  -0.046092  -0.262648   0.072347
   46  H  4  S   -0.009219   0.252889   0.294270  -0.067427   0.012341
   47  H  4  S   -0.008778   0.794795   0.086105  -0.115120   0.032147
   48  H  5  S   -0.044635   0.014224  -0.032470  -0.258201   0.157293
   49  H  5  S    0.186864  -0.588839  -5.483610   2.748100  -0.960973
   50  H  6  S    0.185026  -0.119068  -0.588015   0.275240  -0.102146
   51  H  6  S   -0.500204  -0.110951  -0.803418   0.147490  -0.198870
   52  H  7  S   -0.014181  -0.074257  -0.314457   0.230351  -0.107751
   53  H  7  S   -0.084738   0.411432   4.550144  -2.588886   1.090874

                     36         37         38         39         40
                    1.6022     1.6581     1.7066     1.7956     1.8055
                     A          A          A          A          A   
    1  C  1  S    0.014077  -0.032800   0.013159  -0.007061  -0.000413
    2  C  1  S    0.240934  -0.147230   0.521824   0.368141  -0.001409
    3  C  1  X   -0.015031   0.123455   0.200950   0.211575   0.008683
    4  C  1  Y   -0.019732  -0.027747  -0.028462  -0.054902  -0.017219
    5  C  1  Z   -0.020778  -0.037111   0.061572  -0.003364   0.082930
    6  C  1  S   -0.804595   1.275788  -0.898896  -0.262657   0.036210
    7  C  1  X    0.133233   0.162076   0.063080  -0.317470   0.063785
    8  C  1  Y    0.482951  -0.495717   0.333912   0.005587   0.042032
    9  C  1  Z    0.069347   0.042227  -0.087628  -0.029679  -0.314424
   10  C  1 XX   -0.111662  -0.533306   0.014925  -0.317490   0.068083
   11  C  1 YY    0.012138   0.171084   0.513689   0.125783  -0.022394
   12  C  1 ZZ    0.099525   0.362222  -0.528614   0.191707  -0.045690
   13  C  1 XY   -0.220546  -0.313005   0.467158  -0.033931   0.076895
   14  C  1 XZ   -0.007718  -0.056662   0.088183  -0.052554  -0.330153
   15  C  1 YZ    0.001555  -0.058062   0.069593  -0.014741   0.408652
   16  C  2  S   -0.017258   0.017017  -0.009815  -0.022785   0.001702
   17  C  2  S   -0.097126   0.518172   0.154916   0.038374   0.016204
   18  C  2  X   -0.089230  -0.051721  -0.133297   0.029129  -0.023217
   19  C  2  Y    0.012294   0.048374   0.011213  -0.094253  -0.000685
   20  C  2  Z   -0.005962  -0.006724  -0.003838   0.001109   0.089078
   21  C  2  S   -1.725757  -1.191211  -0.516768   0.676156  -0.151202
   22  C  2  X   -1.613586   1.108857  -0.401733   0.433782  -0.056229
   23  C  2  Y   -0.937534   0.471211  -0.714793  -0.182832  -0.141376
   24  C  2  Z   -0.083219   0.059341  -0.055218   0.022660   0.195998
   25  C  2 XX   -0.043557  -0.041687  -0.217770  -0.200520  -0.018920
   26  C  2 YY    0.053435  -0.273039   0.072143   0.360267   0.006067
   27  C  2 ZZ   -0.009878   0.314725   0.145626  -0.159747   0.012853
   28  C  2 XY   -0.238574   0.296301   0.138435   0.245146   0.000517
   29  C  2 XZ   -0.012935  -0.005960   0.026639  -0.003568  -0.140452
   30  C  2 YZ    0.005180   0.002037  -0.021325   0.032824  -0.062486
   31  O  3  S    0.035313   0.010403   0.007048   0.006205  -0.000896
   32  O  3  S   -1.618187   0.076815  -0.465449   0.087196  -0.049158
   33  O  3  X    0.109048   0.175093   0.062838   0.194087  -0.016204
   34  O  3  Y    0.091031   0.009780  -0.073631  -0.156081  -0.009951
   35  O  3  Z    0.005878   0.004131  -0.006259   0.003103   0.069903
   36  O  3  S    3.779166  -0.644240   1.215204  -0.530110   0.189759
   37  O  3  X   -1.126185  -0.023019  -0.416267  -0.060875  -0.048438
   38  O  3  Y   -0.672557   0.107302  -0.040652   0.350942  -0.009548
   39  O  3  Z   -0.060364   0.000986  -0.007450   0.005390  -0.109908
   40  O  3 XX   -0.142233  -0.008182   0.017501   0.500587  -0.019438
   41  O  3 YY    0.107838  -0.398011  -0.314062  -0.046050  -0.095640
   42  O  3 ZZ    0.034396   0.406193   0.296561  -0.454537   0.115078
   43  O  3 XY   -0.170601   0.151292   0.019770  -0.469154   0.020793
   44  O  3 XZ   -0.017781  -0.030693   0.021814  -0.008793  -0.195297
   45  O  3 YZ    0.002331  -0.011625  -0.110053   0.067709   0.806062
   46  H  4  S    0.044073   0.401498  -0.200299  -0.444771  -0.014443
   47  H  4  S   -0.189261   0.315779  -0.120537  -0.035937  -0.035479
   48  H  5  S   -0.312443  -0.477542   0.744493  -0.271806  -0.041643
   49  H  5  S    1.111373   1.086879  -2.326999   0.112937  -0.054831
   50  H  6  S    0.074653  -0.169867   0.196623  -0.043353   0.014599
   51  H  6  S    0.166391  -0.062668   0.217110   0.009625  -0.125589
   52  H  7  S    0.399335   0.361386  -0.598650   0.237335   0.038096
   53  H  7  S   -0.947414  -1.214013   2.596266  -0.101400   0.204210

                     41         42         43         44         45
                    1.9216     2.0320     2.0691     2.2475     2.3311
                     A          A          A          A          A   
    1  C  1  S    0.042619  -0.020982  -0.012133  -0.018751   0.031389
    2  C  1  S    0.283191  -0.180171   0.057398  -0.082654   0.267240
    3  C  1  X   -0.080736  -0.011696   0.065450   0.013005  -0.098620
    4  C  1  Y    0.123889  -0.038182  -0.016141  -0.017648   0.032534
    5  C  1  Z    0.029308  -0.030415  -0.007882  -0.043801  -0.020345
    6  C  1  S   -1.632776   0.816788   0.110587   0.533308  -1.376992
    7  C  1  X   -0.344692   0.338180  -0.299411   0.093480  -0.760505
    8  C  1  Y    0.130353  -0.128019  -0.105335  -0.167060   0.289559
    9  C  1  Z   -0.204001  -0.585750  -0.431969  -0.214738  -0.068397
   10  C  1 XX   -0.216909   0.216338  -0.244085  -0.007478  -0.337027
   11  C  1 YY    0.663698  -0.251007  -0.017937  -0.080213  -0.039176
   12  C  1 ZZ   -0.446789   0.034669   0.262023   0.087691   0.376202
   13  C  1 XY   -0.401687  -0.172062   0.374804  -0.046727   0.439281
   14  C  1 XZ    0.146697   0.215938   0.051671   0.940994   0.129986
   15  C  1 YZ    0.332712   0.620286   0.379930   0.222848   0.041591
   16  C  2  S   -0.022368   0.006565   0.012978   0.017130  -0.079342
   17  C  2  S   -0.330751  -0.036061   0.311566   0.112763  -0.216503
   18  C  2  X    0.226467   0.112471  -0.261971  -0.009501  -0.203637
   19  C  2  Y    0.031174  -0.109355   0.131340  -0.018848   0.179855
   20  C  2  Z    0.016562   0.027690   0.025062  -0.078112  -0.010264
   21  C  2  S    1.643016  -0.379926  -0.564105  -0.500510   1.553960
   22  C  2  X   -0.169784   0.292413  -0.083755   0.162026  -0.424299
   23  C  2  Y    1.318843  -0.539756   0.230772  -0.142745   0.718223
   24  C  2  Z    0.129536   0.312937   0.230690  -0.073705   0.021327
   25  C  2 XX    0.442201  -0.029871  -0.211767  -0.162426   0.413910
   26  C  2 YY   -0.255571   0.263383  -0.340275   0.019253   0.317827
   27  C  2 ZZ   -0.186630  -0.233512   0.552042   0.143173  -0.731737
   28  C  2 XY    0.130040  -0.035914   0.003251  -0.069372   0.462447
   29  C  2 XZ   -0.010952  -0.238625  -0.200349   0.239712   0.077718
   30  C  2 YZ    0.040808   0.398477   0.237901  -0.475323   0.015431
   31  O  3  S    0.016428  -0.000293  -0.008971  -0.006660   0.027753
   32  O  3  S    0.180674  -0.013351   0.008601   0.060525  -0.333495
   33  O  3  X    0.137560   0.039486  -0.135071  -0.070873   0.328706
   34  O  3  Y    0.223004  -0.069142  -0.031000  -0.062565   0.237460
   35  O  3  Z    0.031581   0.057318   0.035043  -0.027916   0.017881
   36  O  3  S   -1.232276   0.086636   0.285996   0.099887  -0.282843
   37  O  3  X    0.457197  -0.126944   0.000755  -0.041016   0.092934
   38  O  3  Y   -0.157116   0.185529  -0.139594   0.052015  -0.324283
   39  O  3  Z   -0.035615  -0.160954  -0.122294   0.084195  -0.004152
   40  O  3 XX    0.030383   0.096696  -0.181135   0.027255  -0.315572
   41  O  3 YY    0.206045  -0.386495   0.527473  -0.014192   0.294008
   42  O  3 ZZ   -0.236428   0.289799  -0.346338  -0.013063   0.021563
   43  O  3 XY   -0.050572   0.026403  -0.065937  -0.041429   0.400568
   44  O  3 XZ    0.080481   0.325618   0.233593  -0.279428  -0.023815
   45  O  3 YZ    0.012127  -0.211025  -0.075223   0.183779   0.039507
   46  H  4  S    0.325864  -0.294819   0.342432   0.017475  -0.149451
   47  H  4  S    0.296103  -0.137850   0.130375  -0.001007   0.183214
   48  H  5  S    0.362610  -0.197996   0.055880   0.030718  -0.236349
   49  H  5  S   -0.156124  -0.048732  -1.021275  -0.676928   0.088293
   50  H  6  S    0.236781  -0.452732  -0.397190  -0.570381  -0.172524
   51  H  6  S    0.038281  -0.121111  -0.088910   0.068154   0.062777
   52  H  7  S    0.091921   0.474213  -0.036331   0.319531   0.233722
   53  H  7  S    0.300387   0.095442   1.045681   0.537506  -0.046638

                     46         47         48         49         50
                    2.5091     2.5735     2.8479     2.9319     3.0878
                     A          A          A          A          A   
    1  C  1  S    0.051733   0.000241   0.032217  -0.011241   0.000579
    2  C  1  S    0.100630   0.005647  -0.104763   0.039582   0.086598
    3  C  1  X   -0.272302   0.000742  -0.206309   0.065015   0.086399
    4  C  1  Y    0.068822   0.001425   0.186014  -0.059875   0.053289
    5  C  1  Z   -0.007070   0.027646   0.005072  -0.006786   0.047437
    6  C  1  S   -1.543180  -0.008767  -0.269569   0.159743  -0.196922
    7  C  1  X   -0.863726   0.026435  -0.256319   0.144837   0.080392
    8  C  1  Y    0.252795   0.016956   0.122715   0.038257   0.025009
    9  C  1  Z   -0.019502   0.048624  -0.043537  -0.027002   0.065150
   10  C  1 XX   -0.751881  -0.000757  -0.236704   0.098825  -0.159653
   11  C  1 YY    0.518535  -0.015186  -0.107914   0.063130  -0.180690
   12  C  1 ZZ    0.233345   0.015943   0.344617  -0.161955   0.340343
   13  C  1 XY    0.144162  -0.014247   0.509362  -0.084098  -0.347331
   14  C  1 XZ   -0.038850   0.136167   0.026831   0.001644  -0.016259
   15  C  1 YZ    0.011716  -0.168013   0.029252  -0.030910   0.121193
   16  C  2  S   -0.029563  -0.000493  -0.042773  -0.030900  -0.005236
   17  C  2  S   -0.063824  -0.003668  -0.243600  -1.320121  -0.257661
   18  C  2  X   -0.230437  -0.005116  -0.320964  -1.088313  -0.237676
   19  C  2  Y    0.053742  -0.009911  -0.118817  -0.637565  -0.130527
   20  C  2  Z    0.002473   0.243649  -0.017624  -0.057127  -0.012162
   21  C  2  S    1.732174  -0.024083   0.234259  -1.643895  -0.592929
   22  C  2  X   -0.727107  -0.010734  -0.322220  -0.666997  -0.292049
   23  C  2  Y    0.887789  -0.043864  -0.450441  -0.526898  -0.165979
   24  C  2  Z    0.022246   0.231096  -0.026049  -0.022821  -0.074214
   25  C  2 XX   -0.160937  -0.031678   0.907246  -0.606634  -0.253926
   26  C  2 YY    0.443667  -0.040198  -0.765000   0.154383   0.209667
   27  C  2 ZZ   -0.282731   0.071876  -0.142247   0.452251   0.044259
   28  C  2 XY   -0.865356  -0.032489  -0.570302  -0.425014  -0.049723
   29  C  2 XZ   -0.012581   0.910639   0.003325  -0.049457  -0.034689
   30  C  2 YZ    0.023994   0.399465  -0.057056  -0.013955  -0.037600
   31  O  3  S   -0.020795   0.000590  -0.006211  -0.060453  -0.014076
   32  O  3  S    0.591348  -0.021578  -0.301910  -0.669802  -0.219636
   33  O  3  X   -0.353658   0.010439   0.012131  -0.248915  -0.038620
   34  O  3  Y   -0.147243   0.005828   0.054147  -0.154510  -0.043970
   35  O  3  Z   -0.016051  -0.010124   0.003821  -0.014401   0.001603
   36  O  3  S   -0.758435   0.037680   0.824386   3.018912   0.918543
   37  O  3  X    0.516519  -0.005614  -0.570879  -1.519275  -0.394367
   38  O  3  Y   -0.025547   0.016384   0.135933  -0.893531  -0.275848
   39  O  3  Z    0.001666  -0.453202  -0.007594  -0.086568  -0.000723
   40  O  3 XX   -0.165225  -0.034719   0.778560   0.816924   0.093295
   41  O  3 YY    0.011266  -0.042212  -0.649315  -0.107575   0.045779
   42  O  3 ZZ    0.153959   0.076931  -0.129245  -0.709349  -0.139074
   43  O  3 XY    0.133105  -0.052433  -0.204214   1.094107   0.291522
   44  O  3 XZ    0.019063   0.847910   0.010974   0.102966  -0.008991
   45  O  3 YZ    0.009213   0.523660  -0.033924   0.064150  -0.001183
   46  H  4  S   -0.252631   0.003164   0.249409   0.014083  -0.088310
   47  H  4  S    0.340724  -0.015843  -0.384273  -0.035116   0.097057
   48  H  5  S   -0.165013   0.161915   0.469507  -0.897488   4.007596
   49  H  5  S    0.179111   0.007550  -0.887432   0.638123  -3.904021
   50  H  6  S    0.053549   0.014005  -0.136880   0.020740   0.007593
   51  H  6  S   -0.047539   0.047971   0.025194  -0.026492   0.198520
   52  H  7  S    0.204534  -0.171732  -0.552328   0.913828  -3.961773
   53  H  7  S   -0.211827  -0.029128   0.892025  -0.620832   3.913657
 ...... END OF RHF CALCULATION ......
 STEP CPU TIME =     4.83 TOTAL CPU TIME =          5.0 (      0.1 MIN)
 TOTAL WALL CLOCK TIME=          5.3 SECONDS, CPU UTILIZATION IS    94.14%

     ---------------------------------------------------------------------
     PROPERTIES FOR THE B3LYP    DFT FUNCTIONAL (RHF  TYPE) DENSITY MATRIX
     ---------------------------------------------------------------------

          -----------------
          ENERGY COMPONENTS
          -----------------

         WAVEFUNCTION NORMALIZATION =       1.0000000000

                ONE ELECTRON ENERGY =    -346.2134662864
                TWO ELECTRON ENERGY =     122.3283063280
           NUCLEAR REPULSION ENERGY =      72.3763463252
                                      ------------------
                       TOTAL ENERGY =    -151.5088136333

 ELECTRON-ELECTRON POTENTIAL ENERGY =     122.3283063280
  NUCLEUS-ELECTRON POTENTIAL ENERGY =    -499.9499871905
   NUCLEUS-NUCLEUS POTENTIAL ENERGY =      72.3763463252
                                      ------------------
             TOTAL POTENTIAL ENERGY =    -305.2453345373
               TOTAL KINETIC ENERGY =     153.7365209040
                 VIRIAL RATIO (V/T) =       1.9855095767

          ---------------------------------------
          MULLIKEN AND LOWDIN POPULATION ANALYSES
          ---------------------------------------

     ATOMIC MULLIKEN POPULATION IN EACH MOLECULAR ORBITAL

                      1          2          3          4          5

                  2.000000   2.000000   2.000000   2.000000   2.000000

    1            -0.000027   0.001243   1.995607   0.034200   0.416408
    2             0.002246   2.000590   0.001738   0.516660   0.086268
    3             1.997753  -0.002782   0.000011   1.408134   0.062934
    4             0.000029   0.000913   0.000001  -0.002215  -0.000494
    5             0.000000  -0.000103   0.002322   0.024342   0.812509
    6            -0.000001   0.000016   0.001277   0.001419   0.024483
    7            -0.000001   0.000122  -0.000955   0.017458   0.597892

                      6          7          8          9         10

                  2.000000   2.000000   2.000000   2.000000   2.000000

    1             0.642677   0.488008   0.488280   0.251705   0.079870
    2             0.844749   0.639744   0.524903   0.419537   0.654727
    3             0.183812   0.274968   0.538796   1.187224   1.190084
    4             0.120198   0.314696   0.148703   0.026095   0.000578
    5             0.060973   0.012552   0.015059   0.001838   0.001719
    6             0.070753   0.246739   0.280901   0.112295   0.068866
    7             0.076838   0.023293   0.003359   0.001306   0.004157

                     11         12

                  2.000000   2.000000

    1             0.274011   1.625660
    2             0.066061   0.112160
    3             1.414520   0.047558
    4             0.181780   0.118891
    5             0.020651  -0.108924
    6             0.034313   0.003893
    7             0.008664   0.200762

               ----- POPULATIONS IN EACH AO -----
                             MULLIKEN      LOWDIN
              1  C  1  S      1.99680     1.98059
              2  C  1  S      0.71588     0.40248
              3  C  1  X      0.58868     0.52272
              4  C  1  Y      0.87140     0.83717
              5  C  1  Z      0.49794     0.43893
              6  C  1  S      0.69643     0.37955
              7  C  1  X      0.18308     0.32391
              8  C  1  Y      0.58282     0.74981
              9  C  1  Z      0.13186     0.32439
             10  C  1 XX      0.00359     0.17529
             11  C  1 YY      0.00246     0.12899
             12  C  1 ZZ      0.01066     0.18240
             13  C  1 XY      0.00906     0.01996
             14  C  1 XZ      0.00699     0.03252
             15  C  1 YZ      0.00000     0.01569
             16  C  2  S      1.99650     1.97445
             17  C  2  S      0.70319     0.36378
             18  C  2  X      0.73813     0.64214
             19  C  2  Y      0.74635     0.64644
             20  C  2  Z      0.46824     0.42163
             21  C  2  S      0.47301     0.31566
             22  C  2  X      0.12477     0.28413
             23  C  2  Y      0.23348     0.38255
             24  C  2  Z      0.29868     0.33473
             25  C  2 XX      0.00481     0.22320
             26  C  2 YY      0.04196     0.19225
             27  C  2 ZZ      0.02613     0.10354
             28  C  2 XY      0.01104     0.05324
             29  C  2 XZ      0.00310     0.02040
             30  C  2 YZ      0.00000     0.00527
             31  O  3  S      1.99732     1.97779
             32  O  3  S      0.93400     0.72567
             33  O  3  X      0.99287     0.92803
             34  O  3  Y      1.10623     1.05762
             35  O  3  Z      0.74637     0.69504
             36  O  3  S      0.92864     0.46900
             37  O  3  X      0.48262     0.56292
             38  O  3  Y      0.59586     0.65838
             39  O  3  Z      0.49099     0.52921
             40  O  3 XX      0.00227     0.18449
             41  O  3 YY      0.00738     0.17298
             42  O  3 ZZ      0.00715     0.17416
             43  O  3 XY      0.00844     0.01569
             44  O  3 XZ      0.00287     0.01134
             45  O  3 YZ      0.00000     0.00380
             46  H  4  S      0.53617     0.50744
             47  H  4  S      0.37301     0.39874
             48  H  5  S      0.84023     0.68356
             49  H  5  S      0.00271     0.14292
             50  H  6  S      0.51547     0.46459
             51  H  6  S      0.32948     0.34971
             52  H  7  S      0.79485     0.66116
             53  H  7  S      0.13804     0.14791

          ----- MULLIKEN ATOMIC OVERLAP POPULATIONS -----
          (OFF-DIAGONAL ELEMENTS NEED TO BE MULTIPLIED BY 2)

             1           2           3           4           5

    1    5.8255637
    2    0.3784660   4.6133480
    3   -0.0577479   0.5437381   7.8900773
    4   -0.1576818   0.3517219  -0.0768111   0.7835227
    5   -0.6263142  -0.0292614   0.0267709  -0.0284529   3.3355153
    6    0.3348634  -0.0357836   0.0025137   0.0062476   0.1469223
    7    0.6004903   0.0471546  -0.0255289   0.0306300  -1.9822407

             6           7

    6    0.5411026
    7   -0.1509099   2.4132975

          TOTAL MULLIKEN AND LOWDIN ATOMIC POPULATIONS
       ATOM         MULL.POP.    CHARGE          LOW.POP.     CHARGE
    1 C             6.297640   -0.297640         6.514420   -0.514420
    2 C             5.869384    0.130616         5.963406    0.036594
    3 O             8.303012   -0.303012         8.166137   -0.166137
    4 H             0.909176    0.090824         0.906185    0.093815
    5 H             0.842939    0.157061         0.826486    0.173514
    6 H             0.844956    0.155044         0.814298    0.185702
    7 H             0.932893    0.067107         0.809068    0.190932

          MULLIKEN SPHERICAL HARMONIC POPULATIONS
       ATOM           S       P       D      F      G      H      I    TOTAL
    1 C             3.41    2.86    0.03   0.00   0.00   0.00   0.00    6.30
    2 C             3.17    2.61    0.09   0.00   0.00   0.00   0.00    5.87
    3 O             3.86    4.41    0.03   0.00   0.00   0.00   0.00    8.30
    4 H             0.91    0.00    0.00   0.00   0.00   0.00   0.00    0.91
    5 H             0.84    0.00    0.00   0.00   0.00   0.00   0.00    0.84
    6 H             0.84    0.00    0.00   0.00   0.00   0.00   0.00    0.84
    7 H             0.93    0.00    0.00   0.00   0.00   0.00   0.00    0.93

          -------------------------------
          BOND ORDER AND VALENCE ANALYSIS     BOND ORDER THRESHOLD=0.050
          -------------------------------

                   BOND                       BOND                       BOND
  ATOM PAIR DIST  ORDER      ATOM PAIR DIST  ORDER      ATOM PAIR DIST  ORDER
    1   2  1.509  1.140        1   5  1.093 -0.135        1   6  1.098  0.928
    1   7  1.098  0.669        2   3  1.211  2.023        2   4  1.115  0.878
    5   6  1.669  0.057        5   7  0.153  0.649        6   7  1.762 -0.052

                       TOTAL       BONDED        FREE
      ATOM            VALENCE     VALENCE     VALENCE
    1 C                 2.635       2.635       0.000
    2 C                 4.058       4.058      -0.000
    3 O                 2.112       2.112      -0.000
    4 H                 0.918       0.918       0.000
    5 H                 0.568       0.568       0.000
    6 H                 0.950       0.950      -0.000
    7 H                 1.300       1.300      -0.000

          ---------------------
          ELECTROSTATIC MOMENTS
          ---------------------

 POINT   1           X           Y           Z (BOHR)    CHARGE
                -0.000000    0.000000   -0.000000        0.00 (A.U.)
         DX          DY          DZ         /D/  (DEBYE)
    -2.895138   -2.776337    0.541891    4.047656
 ...... END OF PROPERTY EVALUATION ......
 STEP CPU TIME =     0.02 TOTAL CPU TIME =          5.0 (      0.1 MIN)
 TOTAL WALL CLOCK TIME=          5.3 SECONDS, CPU UTILIZATION IS    94.34%
                580000  WORDS OF DYNAMIC MEMORY USED
 EXECUTION OF GAMESS TERMINATED NORMALLY Thu Oct 17 23:39:12 2019
 DDI: 263640 bytes (0.3 MB / 0 MWords) used by master data server.

 ----------------------------------------
 CPU timing information for all processes
 ========================================
 0: 4.800 + 0.203 = 5.04
 ----------------------------------------
 ddikick.x: exited gracefully.
----- accounting info -----
Files used on the master node crcfe01.crc.nd.edu were:
-rw-r--r-- 1 cdrisko campus      491 Oct 17 23:39 /afs/crc.nd.edu/user/c/cdrisko/acetaldehyde.F05
-rw-r--r-- 1 cdrisko campus    45118 Oct 17 23:39 /afs/crc.nd.edu/user/c/cdrisko/acetaldehyde.F07
-rw-r--r-- 1 cdrisko campus 11881056 Oct 17 23:39 /afs/crc.nd.edu/user/c/cdrisko/acetaldehyde.F08
-rw-r--r-- 1 cdrisko campus  1701440 Oct 17 23:39 /afs/crc.nd.edu/user/c/cdrisko/acetaldehyde.F10
Thu Oct 17 23:39:15 EDT 2019
0.423u 0.215s 0:08.93 7.0%	0+0k 0+24io 0pf+0w
