----- GAMESS execution script 'rungms' -----
This job is running on host crcfe02.crc.nd.edu
under operating system Linux at Wed Oct 16 08:21:12 EDT 2019
Available scratch disk space (Kbyte units) at beginning of the job is
Filesystem      1K-blocks  Used  Available Use% Mounted on
AFS            2147483647     0 2147483647   0% /afs
GAMESS temporary binary files will be written to /afs/crc.nd.edu/user/c/cdrisko
GAMESS supplementary output files will be written to /afs/crc.nd.edu/user/c/cdrisko/scr
Copying input file acetaldehyde_opt2.inp to your run's scratch directory...

 Distributed Data Interface kickoff program.
 Initiating 1 compute processes on 1 nodes to run the following command:
 /afs/crc.nd.edu/x86_64_linux/g/gamess/nov-2017/gamess/gamess.00.x acetaldehyde_opt2 

          ******************************************************
          *         GAMESS VERSION = 11 NOV 2017 (R3)         *
          *             FROM IOWA STATE UNIVERSITY             *
          * M.W.SCHMIDT, K.K.BALDRIDGE, J.A.BOATZ, S.T.ELBERT, *
          *   M.S.GORDON, J.H.JENSEN, S.KOSEKI, N.MATSUNAGA,   *
          *          K.A.NGUYEN, S.J.SU, T.L.WINDUS,           *
          *       TOGETHER WITH M.DUPUIS, J.A.MONTGOMERY       *
          *         J.COMPUT.CHEM.  14, 1347-1363(1993)        *
          **************** 64 BIT INTEL VERSION ****************

  SINCE 1993, STUDENTS AND POSTDOCS WORKING AT IOWA STATE UNIVERSITY
  AND ALSO IN THEIR VARIOUS JOBS AFTER LEAVING ISU HAVE MADE IMPORTANT
  CONTRIBUTIONS TO THE CODE:
     IVANA ADAMOVIC, CHRISTINE AIKENS, YURI ALEXEEV, POOJA ARORA,
     ANDREY ASADCHEV, ROB BELL, PRADIPTA BANDYOPADHYAY, JONATHAN BENTZ,
     BRETT BODE, KURT BRORSEN, CALEB CARLIN, GALINA CHABAN, WEI CHEN,
     CHEOL HO CHOI, PAUL DAY, ALBERT DEFUSCO, NUWAN DESILVA, TIM DUDLEY,
     DMITRI FEDOROV, ALEX FINDLATER, GRAHAM FLETCHER, MARK FREITAG,
     KURT GLAESEMANN, ANASTASIA GUININA,
     DAN KEMP, GRANT MERRILL, NORIYUKI MINEZAWA, JONATHAN MULLIN,
     TAKESHI NAGATA, SEAN NEDD, HEATHER NETZLOFF, BOSILJKA NJEGIC, RYAN OLSON,
     MIKE PAK, BUU PHAM,
     SPENCER PRUITT, LUKE ROSKOP, JIM SHOEMAKER, LYUDMILA SLIPCHENKO,
     TONY SMITH, SAROM SOK LEANG, JIE SONG, TETSUYA TAKETSUGU, SIMON WEBB,
     PENG XU, SOOHAENG YOO, FEDERICO ZAHARIEV

  ADDITIONAL CODE HAS BEEN PROVIDED BY COLLABORATORS IN OTHER GROUPS:
     IOWA STATE UNIVERSITY:
          JOE IVANIC, AARON WEST, LAIMUTIS BYTAUTAS, KLAUS RUEDENBERG
     UNIVERSITY OF TOKYO: KIMIHIKO HIRAO, TAKAHITO NAKAJIMA,
          TAKAO TSUNEDA, MUNEAKI KAMIYA, SUSUMU YANAGISAWA,
          KIYOSHI YAGI, MAHITO CHIBA, SEIKEN TOKURA, NAOAKI KAWAKAMI
     UNIVERSITY OF AARHUS: FRANK JENSEN
     UNIVERSITY OF IOWA: VISVALDAS KAIRYS, HUI LI
     NATIONAL INST. OF STANDARDS AND TECHNOLOGY: WALT STEVENS, DAVID GARMER
     UNIVERSITY OF PISA: BENEDETTA MENNUCCI, JACOPO TOMASI
     UNIVERSITY OF MEMPHIS: HENRY KURTZ, PRAKASHAN KORAMBATH
     UNIVERSITY OF ALBERTA: TOBY ZENG, MARIUSZ KLOBUKOWSKI
     UNIVERSITY OF NEW ENGLAND: MARK SPACKMAN
     MIE UNIVERSITY: HIROAKI UMEDA
     NAT. INST. OF ADVANCED INDUSTRIAL SCIENCE AND TECHNOLOGY: KAZUO KITAURA
     MICHIGAN STATE UNIVERSITY:
          KAROL KOWALSKI, MARTA WLOCH, JEFFREY GOUR, JESSE LUTZ,
          WEI LI, PIOTR PIECUCH
     UNIVERSITY OF SILESIA: MONIKA MUSIAL, STANISLAW KUCHARSKI
     FACULTES UNIVERSITAIRES NOTRE-DAME DE LA PAIX:
          OLIVIER QUINET, BENOIT CHAMPAGNE
     UNIVERSITY OF CALIFORNIA - SANTA BARBARA: BERNARD KIRTMAN
     INSTITUTE FOR MOLECULAR SCIENCE:
          KAZUYA ISHIMURA, MICHIO KATOUDA, AND SHIGERU NAGASE
     UNIVERSITY OF NOTRE DAME: ANNA POMOGAEVA, DAN CHIPMAN
     KYUSHU UNIVERSITY:
          HARUYUKI NAKANO,
          FENG LONG GU, JACEK KORCHOWIEC, MARCIN MAKOWSKI, AND YURIKO AOKI,
          HIROTOSHI MORI AND EISAKU MIYOSHI
     PENNSYLVANIA STATE UNIVERSITY:
          TZVETELIN IORDANOV, CHET SWALINA, JONATHAN SKONE,
          SHARON HAMMES-SCHIFFER
     WASEDA UNIVERSITY:
          MASATO KOBAYASHI, TOMOKO AKAMA, TSUGUKI TOUMA,
          TAKESHI YOSHIKAWA, YASUHIRO IKABATA, JUNJI SEINO,
          YUYA NAKAJIMA, HIROMI NAKAI
     NANJING UNIVERSITY: SHUHUA LI
     UNIVERSITY OF NEBRASKA:
          PEIFENG SU, DEJUN SI, NANDUN THELLAMUREGE, YALI WANG, HUI LI
     UNIVERSITY OF ZURICH: ROBERTO PEVERATI, KIM BALDRIDGE
     N. COPERNICUS UNIVERSITY AND JACKSON STATE UNIVERSITY:
          MARIA BARYSZ
     UNIVERSITY OF COPENHAGEN: Jimmy Kromann, CASPER STEINMANN
     TOKYO INSTITUTE OF TECHNOLOGY: HIROYA NAKATA
     NAGOYA UNIVERSITY: YOSHIO NISHIMOTO, STEPHAN IRLE
     MOSCOW STATE UNIVERSITY: VLADIMIR MIRONOV

 EXECUTION OF GAMESS BEGUN Wed Oct 16 08:21:12 2019

            ECHO OF THE FIRST FEW INPUT CARDS -
 INPUT CARD> $CONTRL SCFTYP= RHF RUNTYP=OPTIMIZE DFTTYP=B3LYP                               
 INPUT CARD>       ICHARG=0 MULT=1 COORD=CART $END                                          
 INPUT CARD> $STATPT METHOD=NR OPTTOL=0.0001 HESS=GUESS NSTEP=50 $END                       
 INPUT CARD> $BASIS GBASIS=N31 NGAUSS=6 NDFUNC=1 $END                                       
 INPUT CARD> $DATA                                                                          
 INPUT CARD>Title Geometry Optimization of Acetaldehyde                                     
 INPUT CARD>C1 1                                                                            
 INPUT CARD>C 6 0.00000000 0.00000000 0.00000000                                            
 INPUT CARD>C 6 -1.39294909 0.57951361 -0.00009298                                          
 INPUT CARD>O 8 -2.41184472 -0.07447832 -0.00020985                                         
 INPUT CARD>H 1 -1.43544365 1.69328369 -0.00004837                                          
 INPUT CARD>H 1 -0.03949399 -1.09196410 0.00007485                                          
 INPUT CARD>H 1 0.55129871 0.35520626 -0.88116272                                           
 INPUT CARD>H 1 0.55140443 0.35522553 0.88105976                                            
 INPUT CARD> $END                                                                           
    1000000 WORDS OF MEMORY AVAILABLE


                    * * * WARNING * * *
 OLD KEYWORD COORD=CART SELECTED, AUTOMATICALLY CHANGED TO COORD=PRINAXIS.
 YOUR MOLECULE'S COORDINATES WILL BE CHANGED TO PRINCIPAL AXES BY
   A) TRANSLATION TO THE CENTER OF MASS, THEN
   B) ROTATION TO HAVE A DIAGONAL MOMENT OF INERTIA TENSOR.

 HOWEVER, NOTHING ELSE IN YOUR INPUT WILL BE ROTATED IN THE SAME WAY,
 SO IF YOU HAVE A $VEC, $VIB, $GRAD, $HESS, EFP PARTICLE COORDINATES,
 OR ANYTHING ELSE THAT DEPENDS ON THE INITIAL ORIENTATION, THAT DATA
 WILL NOT BE USED CORRECTLY IN THIS RUN.

 THE PURPOSE OF COORD=PRINAXIS IS TO BE USED ONCE, ONLY AT THE VERY
 BEGINNING OF A SERIES OF COMPUTATIONS, PERHAPS TO FIND THE SYMMETRY
 UNIQUE ATOMS FROM AN ARBITRARY INITIAL ORIENTATION.

 AFTER THE FIRST RUN, YOU SHOULD USE ONLY COORD=UNIQUE, TO ENSURE THAT
 THE COORDINATES WHICH YOU READ IN ARE THE COORDINATES THAT ARE USED.


     BASIS OPTIONS
     -------------
     GBASIS=N31          IGAUSS=       6      POLAR=POPN31  
     NDFUNC=       1     NFFUNC=       0     DIFFSP=       F
     NPFUNC=       0      DIFFS=       F     BASNAM=        


     RUN TITLE
     ---------
 Title Geometry Optimization of Acetaldehyde                                     

 THE POINT GROUP OF THE MOLECULE IS C1      
 THE ORDER OF THE PRINCIPAL AXIS IS     1

 THE MOMENTS OF INERTIA ARE (AMU-ANGSTROM**2)
 IXX=     8.889   IYY=    50.195   IZZ=    55.954

 ATOM      ATOMIC                      COORDINATES (BOHR)
           CHARGE         X                   Y                   Z
 C           6.0     2.3884202654       -0.3118122789       -0.0000003234
 C           6.0    -0.2403243489        0.7917979312        0.0000210346
 O           8.0    -2.1697358258       -0.4378481183       -0.0000063318
 H           1.0    -0.3138354053        2.8967663646        0.0000611742
 H           1.0     2.3071292239       -2.3750736409        0.0001974460
 H           1.0     3.4322427574        0.3560251149       -1.6652611603
 H           1.0     3.4327257807        0.3561406366        1.6648564254

          INTERNUCLEAR DISTANCES (ANGS.)
          ------------------------------

                1 C          2 C          3 O          4 H          5 H     

   1 C       0.0000000    1.5086892 *  2.4129944 *  2.2198442 *  1.0926781 *
   2 C       1.5086892 *  0.0000000    1.2107245 *  1.1145805 *  2.1507391 *
   3 O       2.4129944 *  1.2107245 *  0.0000000    2.0194904 *  2.5813418 *
   4 H       2.2198442 *  1.1145805 *  2.0194904 *  0.0000000    3.1154904  
   5 H       1.0926781 *  2.1507391 *  2.5813418 *  3.1154904    0.0000000  
   6 H       1.0984305 *  2.1463218 *  3.1210456    2.5522459 *  1.7944129 *
   7 H       1.0984072 *  2.1464496 *  3.1212381    2.5523159 *  1.7943392 *

                6 H          7 H     

   1 C       1.0984305 *  1.0984072 *
   2 C       2.1463218 *  2.1464496 *
   3 O       3.1210456    3.1212381  
   4 H       2.5522459 *  2.5523159 *
   5 H       1.7944129 *  1.7943392 *
   6 H       0.0000000    1.7622225 *
   7 H       1.7622225 *  0.0000000  

  * ... LESS THAN  3.000


     ATOMIC BASIS SET
     ----------------
 THE CONTRACTED PRIMITIVE FUNCTIONS HAVE BEEN UNNORMALIZED
 THE CONTRACTED BASIS FUNCTIONS ARE NOW NORMALIZED TO UNITY

  SHELL TYPE  PRIMITIVE        EXPONENT          CONTRACTION COEFFICIENT(S)

 C         

      1   S       1          3047.5248800    0.001834737132
      1   S       2           457.3695180    0.014037322813
      1   S       3           103.9486850    0.068842622264
      1   S       4            29.2101553    0.232184443216
      1   S       5             9.2866630    0.467941348435
      1   S       6             3.1639270    0.362311985337

      2   L       7             7.8682723   -0.119332419775    0.068999066591
      2   L       8             1.8812885   -0.160854151696    0.316423960957
      2   L       9             0.5442493    1.143456437840    0.744308290898

      3   L      10             0.1687145    1.000000000000    1.000000000000

      4   D      11             0.8000000    1.000000000000

 C         

      5   S      12          3047.5248800    0.001834737132
      5   S      13           457.3695180    0.014037322813
      5   S      14           103.9486850    0.068842622264
      5   S      15            29.2101553    0.232184443216
      5   S      16             9.2866630    0.467941348435
      5   S      17             3.1639270    0.362311985337

      6   L      18             7.8682723   -0.119332419775    0.068999066591
      6   L      19             1.8812885   -0.160854151696    0.316423960957
      6   L      20             0.5442493    1.143456437840    0.744308290898

      7   L      21             0.1687145    1.000000000000    1.000000000000

      8   D      22             0.8000000    1.000000000000

 O         

      9   S      23          5484.6716600    0.001831074430
      9   S      24           825.2349460    0.013950172200
      9   S      25           188.0469580    0.068445078098
      9   S      26            52.9645000    0.232714335992
      9   S      27            16.8975704    0.470192897984
      9   S      28             5.7996353    0.358520852987

     10   L      29            15.5396162   -0.110777549525    0.070874268231
     10   L      30             3.5999336   -0.148026262701    0.339752839147
     10   L      31             1.0137618    1.130767015354    0.727158577316

     11   L      32             0.2700058    1.000000000000    1.000000000000

     12   D      33             0.8000000    1.000000000000

 H         

     13   S      34            18.7311370    0.033494604338
     13   S      35             2.8253944    0.234726953484
     13   S      36             0.6401217    0.813757326146

     14   S      37             0.1612778    1.000000000000

 H         

     15   S      38            18.7311370    0.033494604338
     15   S      39             2.8253944    0.234726953484
     15   S      40             0.6401217    0.813757326146

     16   S      41             0.1612778    1.000000000000

 H         

     17   S      42            18.7311370    0.033494604338
     17   S      43             2.8253944    0.234726953484
     17   S      44             0.6401217    0.813757326146

     18   S      45             0.1612778    1.000000000000

 H         

     19   S      46            18.7311370    0.033494604338
     19   S      47             2.8253944    0.234726953484
     19   S      48             0.6401217    0.813757326146

     20   S      49             0.1612778    1.000000000000

 TOTAL NUMBER OF BASIS SET SHELLS             =   20
 NUMBER OF CARTESIAN GAUSSIAN BASIS FUNCTIONS =   53
 NUMBER OF ELECTRONS                          =   24
 CHARGE OF MOLECULE                           =    0
 SPIN MULTIPLICITY                            =    1
 NUMBER OF OCCUPIED ORBITALS (ALPHA)          =   12
 NUMBER OF OCCUPIED ORBITALS (BETA )          =   12
 TOTAL NUMBER OF ATOMS                        =    7
 THE NUCLEAR REPULSION ENERGY IS       69.4575812887

     LEBEDEV GRID-BASED DFT OPTIONS
     ------------------------------
     DFTTYP=B3LYP   
     NRAD  =      96     NLEB  =     302
     NRAD0 =      24     NLEB0 =     110
     SWOFF =    5.00E-03 (PURE SCF -> DFT)
     SWITCH=    3.00E-04 (COARSE -> TIGHT GRID)
     THRESH=    0.00E+00 GTHRE=    1.00E+00

 GRIMME'S EMPIRICAL DISPERSION CORRECTION= F

     $CONTRL OPTIONS
     ---------------
 SCFTYP=RHF          RUNTYP=OPTIMIZE     EXETYP=RUN     
 MPLEVL=       0     CITYP =NONE         CCTYP =NONE         VBTYP =NONE    
 DFTTYP=B3LYP        TDDFT =NONE    
 MULT  =       1     ICHARG=       0     NZVAR =       0     COORD =PRINAXIS
 PP    =NONE         RELWFN=NONE         LOCAL =NONE         NUMGRD=       F
 ISPHER=      -1     NOSYM =       0     MAXIT =      30     UNITS =ANGS    
 PLTORB=       F     MOLPLT=       F     AIMPAC=       F     FRIEND=        
 NPRINT=       7     IREST =       0     GEOM  =INPUT   
 NORMF =       0     NORMP =       0     ITOL  =      20     ICUT  =       9
 INTTYP=BEST         GRDTYP=BEST         QMTTOL= 1.0E-06

     $SYSTEM OPTIONS
     ---------------
  REPLICATED MEMORY=     1000000 WORDS (ON EVERY NODE).
 DISTRIBUTED MEMDDI=           0 MILLION WORDS IN AGGREGATE,
 MEMDDI DISTRIBUTED OVER   1 PROCESSORS IS           0 WORDS/PROCESSOR.
 TOTAL MEMORY REQUESTED ON EACH PROCESSOR=     1000000 WORDS.
 TIMLIM=      525600.00 MINUTES, OR     365.0 DAYS.
 PARALL= F  BALTYP=  DLB     KDIAG=    0  COREFL= F
 MXSEQ2=     300 MXSEQ3=     150  mem10=         0

          ----------------
          PROPERTIES INPUT
          ----------------

     MOMENTS            FIELD           POTENTIAL          DENSITY
 IEMOM =       1   IEFLD =       0   IEPOT =       0   IEDEN =       0
 WHERE =COMASS     WHERE =NUCLEI     WHERE =NUCLEI     WHERE =NUCLEI  
 OUTPUT=BOTH       OUTPUT=BOTH       OUTPUT=BOTH       OUTPUT=BOTH    
 IEMINT=       0   IEFINT=       0                     IEDINT=       0
                                                       MORB  =       0
          EXTRAPOLATION IN EFFECT
          DIIS IN EFFECT
 ORBITAL PRINTING OPTION: NPREO=     1    53     2     1

     -------------------------------
     INTEGRAL TRANSFORMATION OPTIONS
     -------------------------------
     NWORD  =            0
     CUTOFF = 1.0E-09     MPTRAN =       0
     DIRTRF =       F     AOINTS =DUP     

          ----------------------
          INTEGRAL INPUT OPTIONS
          ----------------------
 NOPK  =       1 NORDER=       0 SCHWRZ=       T

     ------------------------------------------
     THE POINT GROUP IS C1 , NAXIS= 1, ORDER= 1
     ------------------------------------------

     DIMENSIONS OF THE SYMMETRY SUBSPACES ARE
 A   =   53

 ..... DONE SETTING UP THE RUN .....
 STEP CPU TIME =     0.01 TOTAL CPU TIME =          0.0 (      0.0 MIN)
 TOTAL WALL CLOCK TIME=          0.0 SECONDS, CPU UTILIZATION IS    50.00%


          -----------------------------
          STATIONARY POINT LOCATION RUN
          -----------------------------

 OBTAINING INITIAL HESSIAN, HESS=GUESS   
 CARTESIAN COORDINATE OPTIMIZATION USING BADGER'S RULE FORCE CONSTANT GUESS

          PARAMETERS CONTROLLING GEOMETRY SEARCH ARE
          METHOD =NR                  UPHESS =POWELL  
          NNEG   =         0          NFRZ   =         0
          NSTEP  =        50          IFOLOW =         1
          HESS   =GUESS               RESTAR =         F
          IHREP  =         0          HSSEND =         F
          NPRT   =         0          NPUN   =         0
          OPTTOL = 1.000E-04          RMIN   = 1.500E-03
          RMAX   = 1.000E-01          RLIM   = 7.000E-02
          DXMAX  = 3.000E-01          PURIFY =         F
          MOVIE  =         F          TRUPD  =         T
          TRMAX  = 5.000E-01          TRMIN  = 5.000E-02
          ITBMAT =         5          STPT   =         F
          STSTEP = 1.000E-02          PROJCT=          T

 BEGINNING GEOMETRY SEARCH POINT NSERCH=   0 ...

 COORDINATES OF ALL ATOMS ARE (ANGS)
   ATOM   CHARGE       X              Y              Z
 ------------------------------------------------------------
 C           6.0   1.2638976661  -0.1650039640  -0.0000001711
 C           6.0  -0.1271741779   0.4190014512   0.0000111310
 O           8.0  -1.1481748359  -0.2316992628  -0.0000033506
 H           1.0  -0.1660745565   1.5329028565   0.0000323720
 H           1.0   1.2208802964  -1.2568349360   0.0001044839
 H           1.0   1.8162647811   0.1884003910  -0.8812183201
 H           1.0   1.8165203860   0.1884615224   0.8810041436

          ********************
          1 ELECTRON INTEGRALS
          ********************
 ...... END OF ONE-ELECTRON INTEGRALS ......
 STEP CPU TIME =     0.01 TOTAL CPU TIME =          0.0 (      0.0 MIN)
 TOTAL WALL CLOCK TIME=          0.0 SECONDS, CPU UTILIZATION IS    66.67%

          -------------
          GUESS OPTIONS
          -------------
          GUESS =HUCKEL            NORB  =       0          NORDER=       0
          MIX   =       F          PRTMO =       F          PUNMO =       F
          TOLZ  = 1.0E-08          TOLE  = 1.0E-05
          SYMDEN=       F          PURIFY=       F

 INITIAL GUESS ORBITALS GENERATED BY HUCKEL   ROUTINE.
 HUCKEL GUESS REQUIRES     27154 WORDS.

 SYMMETRIES FOR INITIAL GUESS ORBITALS FOLLOW.   BOTH SET(S).
    12 ORBITALS ARE OCCUPIED (    3 CORE ORBITALS).
     4=A        5=A        6=A        7=A        8=A        9=A       10=A   
    11=A       12=A       13=A       14=A       15=A       16=A       17=A   
    18=A       19=A       20=A       21=A       22=A   
 ...... END OF INITIAL ORBITAL SELECTION ......
 STEP CPU TIME =     0.01 TOTAL CPU TIME =          0.0 (      0.0 MIN)
 TOTAL WALL CLOCK TIME=          0.0 SECONDS, CPU UTILIZATION IS    75.00%

                    ----------------------
                    AO INTEGRAL TECHNOLOGY
                    ----------------------
     S,P,L SHELL ROTATED AXIS INTEGRALS, REPROGRAMMED BY
        KAZUYA ISHIMURA (IMS) AND JOSE SIERRA (SYNSTAR).
     S,P,D,L SHELL ROTATED AXIS INTEGRALS PROGRAMMED BY
        KAZUYA ISHIMURA (INSTITUTE FOR MOLECULAR SCIENCE).
     S,P,D,F,G SHELL TO TOTAL QUARTET ANGULAR MOMENTUM SUM 5,
        ERIC PROGRAM BY GRAHAM FLETCHER (ELORET AND NASA ADVANCED
        SUPERCOMPUTING DIVISION, AMES RESEARCH CENTER).
     S,P,D,F,G,L SHELL GENERAL RYS QUADRATURE PROGRAMMED BY
        MICHEL DUPUIS (PACIFIC NORTHWEST NATIONAL LABORATORY).

          --------------------
          2 ELECTRON INTEGRALS
          --------------------

 THE -PK- OPTION IS OFF, THE INTEGRALS ARE NOT IN SUPERMATRIX FORM.
 STORING   15000 INTEGRALS/RECORD ON DISK, USING 12 BYTES/INTEGRAL.
 TWO ELECTRON INTEGRAL EVALUATION REQUIRES   90606 WORDS OF MEMORY.
 SCHWARZ INEQUALITY OVERHEAD:      1430 INTEGRALS, T=        0.00
 II,JST,KST,LST =  1  1  1  1 NREC =         1 INTLOC =    1
 II,JST,KST,LST =  2  1  1  1 NREC =         1 INTLOC =    2
 II,JST,KST,LST =  3  1  1  1 NREC =         1 INTLOC =   34
 II,JST,KST,LST =  4  1  1  1 NREC =         1 INTLOC =  214
 II,JST,KST,LST =  5  1  1  1 NREC =         1 INTLOC = 1189
 II,JST,KST,LST =  6  1  1  1 NREC =         1 INTLOC = 3098
 II,JST,KST,LST =  7  1  1  1 NREC =         2 INTLOC =  537
 II,JST,KST,LST =  8  1  1  1 NREC =         3 INTLOC = 7459
 II,JST,KST,LST =  9  1  1  1 NREC =         7 INTLOC = 3992
 II,JST,KST,LST = 10  1  1  1 NREC =         7 INTLOC =14001
 II,JST,KST,LST = 11  1  1  1 NREC =        11 INTLOC =12951
 II,JST,KST,LST = 12  1  1  1 NREC =        18 INTLOC =  338
 II,JST,KST,LST = 13  1  1  1 NREC =        30 INTLOC = 3352
 II,JST,KST,LST = 14  1  1  1 NREC =        33 INTLOC = 1638
 II,JST,KST,LST = 15  1  1  1 NREC =        36 INTLOC = 5023
 II,JST,KST,LST = 16  1  1  1 NREC =        39 INTLOC = 7506
 II,JST,KST,LST = 17  1  1  1 NREC =        43 INTLOC = 2775
 II,JST,KST,LST = 18  1  1  1 NREC =        47 INTLOC = 2008
 II,JST,KST,LST = 19  1  1  1 NREC =        51 INTLOC = 7680
 II,JST,KST,LST = 20  1  1  1 NREC =        55 INTLOC =14231
 SCHWARZ INEQUALITY TEST SKIPPED         774 INTEGRAL BLOCKS.
 TOTAL NUMBER OF NONZERO TWO-ELECTRON INTEGRALS =              897881
         60 INTEGRAL RECORDS WERE STORED ON DISK FILE  8.
  ...... END OF TWO-ELECTRON INTEGRALS .....
 STEP CPU TIME =     0.11 TOTAL CPU TIME =          0.1 (      0.0 MIN)
 TOTAL WALL CLOCK TIME=          0.1 SECONDS, CPU UTILIZATION IS    93.33%

          --------------------------
             R-B3LYP SCF CALCULATION
          --------------------------

     NUCLEAR ENERGY =        69.4575812887
     MAXIT =   30     NPUNCH=    2
     EXTRAP=T  DAMP=F  SHIFT=F  RSTRCT=F  DIIS=T  DEM=F  SOSCF=F
         DENSITY MATRIX CONVERGENCE THRESHOLD=  1.00E-05
     COARSE -> FINE DFT GRID SWITCH THRESHOLD=  3.00E-04 (SWITCH IN $DFT)
                   HF -> DFT SWITCH THRESHOLD=  5.00E-03 (SWOFF IN $DFT)
     MEMORY REQUIRED FOR RHF ITERS=    307447 WORDS.

 DFT CODE IS SWITCHING FROM THE FINE GRID NRAD= 96,  NLEB=  302
                      TO THE COARSE GRID NRAD0= 24, NLEB0=  110

     EXCHANGE FUNCTIONAL   =B88&HFX   
     CORRELATION FUNCTIONAL=LYP88&VWN5
     DFT THRESHOLD         =.197E-07
     GRID CHANGE THRESHOLD =.300E-03
 FOR AN EULER-MACLAURIN QUADRATURE USING  96 RADIAL POINTS:
 SMALLEST GAUSSIAN PRIMITIVE EXPONENT=        0.1612777588 OF TYPE -S-
 ON ATOM NUMBER   4 HAS RADIAL NORMALIZATION=  1.000000
  LARGEST GAUSSIAN PRIMITIVE EXPONENT=     5484.6716600000 OF TYPE -S-
 ON ATOM NUMBER   3 HAS RADIAL NORMALIZATION=  1.000000
 DFT IS SWITCHED OFF, PERFORMING PURE SCF UNTIL SWOFF THRESHOLD IS REACHED.

 ITER EX DEM     TOTAL ENERGY        E CHANGE  DENSITY CHANGE    DIIS ERROR
   1  0  0     -152.4495341571  -152.4495341571   0.312237771   0.603221590
          * * *   INITIATING DIIS PROCEDURE   * * *
   2  1  0     -152.8574862043    -0.4079520472   0.147650789   0.128620287
   3  2  0     -152.8879460465    -0.0304598422   0.073749588   0.099518871
   4  3  0     -152.9137280595    -0.0257820130   0.009005536   0.007612728
   5  4  0     -152.9142871675    -0.0005591080   0.004392259   0.003535667
 CONVERGED TO SWOFF, SO DFT CALCULATION IS NOW SWITCHED ON.
          * * *   INITIATING DIIS PROCEDURE   * * *
   6  5  0     -153.7264332002    -0.8121460326   0.109310650   0.109715821
   7  6  0     -153.7382568124    -0.0118236122   0.059732080   0.035583542
   8  7  0     -153.7348804734     0.0033763390   0.046672369   0.051604224
   9  8  0     -153.7418885834    -0.0070081100   0.008625073   0.010811249
  10  9  0     -153.7421400673    -0.0002514839   0.000835916   0.000788745
  11 10  0     -153.7421427377    -0.0000026704   0.000281214   0.000200413
 DFT CODE IS SWITCHING BACK TO THE FINE GRID
          * * *   INITIATING DIIS PROCEDURE   * * *
  12 11  0     -153.7416265246     0.0005162131   0.004518929   0.002083188
  13 12  0     -153.7416353728    -0.0000088481   0.000601694   0.000208386
  14 13  0     -153.7416351895     0.0000001833   0.000366403   0.000346659
  15 14  0     -153.7416355856    -0.0000003961   0.000080787   0.000078802
  16 15  0     -153.7416355967    -0.0000000111   0.000019093   0.000021027
  17 16  0     -153.7416355977    -0.0000000010   0.000004253   0.000004305
  18 17  0     -153.7416355978    -0.0000000001   0.000001004   0.000000733

          -----------------
          DENSITY CONVERGED
          -----------------
     TIME TO FORM FOCK OPERATORS=       4.7 SECONDS (       0.3 SEC/ITER)
     TIME TO SOLVE SCF EQUATIONS=       0.0 SECONDS (       0.0 SEC/ITER)

 FINAL R-B3LYP ENERGY IS     -153.7416355978 AFTER  18 ITERATIONS
 DFT EXCHANGE + CORRELATION ENERGY =       -16.8061310872
 TOTAL ELECTRON NUMBER             =        24.0001018723

          ------------
          EIGENVECTORS
          ------------

                      1          2          3          4          5
                  -19.1471   -10.2781   -10.1947    -1.0428    -0.7503
                     A          A          A          A          A   
    1  C  1  S    0.000004   0.001361   0.992866  -0.017393  -0.181290
    2  C  1  S    0.000032  -0.000076   0.050294   0.030901   0.347818
    3  C  1  X   -0.000032   0.000318   0.000023  -0.025910  -0.031115
    4  C  1  Y    0.000076  -0.000130   0.000148   0.004258   0.030998
    5  C  1  Z   -0.000000  -0.000000  -0.000000  -0.000000  -0.000004
    6  C  1  S   -0.000105   0.003137  -0.017481   0.015879   0.316516
    7  C  1  X   -0.000120  -0.001586   0.001100  -0.005767  -0.000233
    8  C  1  Y   -0.000757   0.001064  -0.000602  -0.010166   0.008001
    9  C  1  Z    0.000000   0.000000   0.000000  -0.000001  -0.000003
   10  C  1 XX    0.000003  -0.000461  -0.009317   0.007156  -0.000780
   11  C  1 YY    0.000016  -0.000186  -0.009213  -0.000660   0.000799
   12  C  1 ZZ   -0.000004  -0.000079  -0.009225  -0.001234   0.000542
   13  C  1 XY   -0.000008   0.000126   0.000023  -0.001734  -0.000575
   14  C  1 XZ   -0.000000   0.000000   0.000000  -0.000000   0.000002
   15  C  1 YZ   -0.000000   0.000000   0.000000  -0.000000  -0.000002
   16  C  2  S    0.000018   0.992825  -0.001599  -0.118530  -0.080278
   17  C  2  S    0.000520   0.048673  -0.000359   0.230290   0.162672
   18  C  2  X    0.000071  -0.000702  -0.000131  -0.153857   0.183049
   19  C  2  Y   -0.000003  -0.000504   0.000141  -0.101574   0.010820
   20  C  2  Z   -0.000000  -0.000000  -0.000000  -0.000003  -0.000002
   21  C  2  S   -0.002867  -0.009057   0.004646   0.085066   0.121580
   22  C  2  X    0.002211  -0.002745   0.002392   0.016910   0.038805
   23  C  2  Y    0.001778  -0.000920  -0.001352   0.021097   0.013805
   24  C  2  Z    0.000000   0.000000   0.000000   0.000000  -0.000002
   25  C  2 XX   -0.000623  -0.008716  -0.000418   0.011118   0.002218
   26  C  2 YY   -0.000287  -0.009203  -0.000120  -0.005103   0.000659
   27  C  2 ZZ   -0.000007  -0.009706  -0.000172  -0.019699  -0.005884
   28  C  2 XY   -0.000450   0.000554   0.000135   0.022692  -0.013985
   29  C  2 XZ   -0.000000   0.000000   0.000000   0.000000  -0.000001
   30  C  2 YZ   -0.000000   0.000000  -0.000000   0.000000   0.000000
   31  O  3  S    0.992774  -0.000181  -0.000020  -0.194934   0.053877
   32  O  3  S    0.025774   0.000264  -0.000104   0.427634  -0.123592
   33  O  3  X    0.001002  -0.000053  -0.000013   0.138865   0.017110
   34  O  3  Y    0.000635  -0.000007  -0.000015   0.087256  -0.015287
   35  O  3  Z    0.000000   0.000000   0.000000   0.000002  -0.000001
   36  O  3  S    0.013371  -0.002118   0.000148   0.385301  -0.125713
   37  O  3  X    0.001297  -0.001388  -0.000137   0.044542   0.014532
   38  O  3  Y    0.000757  -0.001112   0.000338   0.025867  -0.001726
   39  O  3  Z    0.000000  -0.000000  -0.000000   0.000001   0.000000
   40  O  3 XX   -0.007662  -0.000193  -0.000033   0.005007   0.004859
   41  O  3 YY   -0.007915  -0.000023   0.000031  -0.004219  -0.000341
   42  O  3 ZZ   -0.008088   0.000318  -0.000157  -0.004971  -0.000551
   43  O  3 XY    0.000275  -0.000301   0.000046   0.010800   0.000401
   44  O  3 XZ    0.000000  -0.000000  -0.000000   0.000000   0.000000
   45  O  3 YZ    0.000000  -0.000000   0.000000   0.000000  -0.000000
   46  H  4  S   -0.000012  -0.000290  -0.000122   0.028218   0.053504
   47  H  4  S   -0.000431   0.002201   0.000350  -0.013175   0.009204
   48  H  5  S   -0.000012  -0.000076  -0.000043   0.007291   0.104728
   49  H  5  S   -0.000416   0.000288   0.002670  -0.003284   0.019784
   50  H  6  S    0.000025  -0.000161  -0.000038   0.005455   0.115027
   51  H  6  S    0.000091   0.000260   0.002736   0.000434   0.024394
   52  H  7  S    0.000025  -0.000161  -0.000038   0.005455   0.115025
   53  H  7  S    0.000091   0.000260   0.002736   0.000436   0.024394

                      6          7          8          9         10
                   -0.5778    -0.4736    -0.4414    -0.4302    -0.3954
                     A          A          A          A          A   
    1  C  1  S    0.071523  -0.013221  -0.000004   0.006607   0.003410
    2  C  1  S   -0.140943   0.023293   0.000008  -0.011749  -0.007010
    3  C  1  X   -0.131680   0.279892   0.000099  -0.191670   0.125876
    4  C  1  Y    0.114879   0.112614  -0.000177   0.212238   0.358112
    5  C  1  Z   -0.000010   0.000035   0.385551   0.000238   0.000031
    6  C  1  S   -0.173819   0.034383   0.000014  -0.016444  -0.017744
    7  C  1  X   -0.040503   0.119390   0.000051  -0.095896   0.061051
    8  C  1  Y    0.033994   0.069325  -0.000090   0.114596   0.166892
    9  C  1  Z   -0.000002   0.000013   0.178697   0.000113   0.000012
   10  C  1 XX    0.009174  -0.009704   0.000000   0.007030   0.009939
   11  C  1 YY   -0.003154  -0.001885   0.000011  -0.009440  -0.023759
   12  C  1 ZZ   -0.004799   0.013896  -0.000009  -0.002904   0.014495
   13  C  1 XY   -0.011941   0.005659   0.000005  -0.007762   0.006570
   14  C  1 XZ   -0.000002   0.000004   0.011747   0.000006   0.000004
   15  C  1 YZ    0.000001   0.000003   0.015188   0.000011   0.000005
   16  C  2  S   -0.135771   0.046640  -0.000017   0.008840  -0.005669
   17  C  2  S    0.290537  -0.113139   0.000045  -0.030333   0.022644
   18  C  2  X    0.034244  -0.088620  -0.000210   0.367138  -0.073936
   19  C  2  Y    0.219649   0.317738  -0.000003  -0.004242  -0.206528
   20  C  2  Z    0.000001   0.000016   0.231538   0.000168   0.000022
   21  C  2  S    0.279285  -0.077815   0.000030  -0.010126  -0.020408
   22  C  2  X    0.037625  -0.049370  -0.000050   0.093626   0.013853
   23  C  2  Y    0.085810   0.084428   0.000011  -0.022164  -0.060144
   24  C  2  Z   -0.000000   0.000007   0.118739   0.000087   0.000015
   25  C  2 XX   -0.015272   0.009338  -0.000002  -0.001579   0.008644
   26  C  2 YY    0.007783   0.003724   0.000001   0.004168  -0.017479
   27  C  2 ZZ   -0.010111   0.004191  -0.000005   0.004901  -0.002316
   28  C  2 XY   -0.004903   0.000734   0.000002  -0.004811   0.015969
   29  C  2 XZ   -0.000000   0.000000   0.001102  -0.000001  -0.000001
   30  C  2 YZ    0.000000  -0.000001  -0.008740  -0.000006  -0.000001
   31  O  3  S    0.070082  -0.052911   0.000047  -0.066780   0.025039
   32  O  3  S   -0.159438   0.115677  -0.000096   0.130790  -0.045035
   33  O  3  X    0.063687  -0.297516   0.000171  -0.251147   0.261289
   34  O  3  Y    0.126123   0.071034   0.000194  -0.342594   0.062489
   35  O  3  Z    0.000001   0.000008   0.205917   0.000152   0.000032
   36  O  3  S   -0.211139   0.202741  -0.000215   0.321042  -0.124094
   37  O  3  X    0.037820  -0.160170   0.000082  -0.116834   0.142639
   38  O  3  Y    0.064760   0.043641   0.000099  -0.179470   0.035062
   39  O  3  Z    0.000001   0.000005   0.116534   0.000088   0.000019
   40  O  3 XX    0.004433  -0.025762   0.000009  -0.012724   0.016847
   41  O  3 YY    0.009821   0.008042   0.000011  -0.019270  -0.001146
   42  O  3 ZZ   -0.001310   0.001722   0.000001  -0.001673   0.000604
   43  O  3 XY    0.010565  -0.001528   0.000010  -0.017372   0.006237
   44  O  3 XZ    0.000000   0.000000   0.013532   0.000010   0.000002
   45  O  3 YZ    0.000000   0.000000   0.007814   0.000006   0.000001
   46  H  4  S    0.211680   0.120982   0.000023  -0.016367  -0.126331
   47  H  4  S    0.098994   0.107823   0.000012  -0.002025  -0.120417
   48  H  5  S   -0.110917  -0.055443   0.000128  -0.131681  -0.245359
   49  H  5  S   -0.054914  -0.027976   0.000080  -0.076015  -0.206073
   50  H  6  S   -0.073033   0.116835  -0.193541  -0.027813   0.117941
   51  H  6  S   -0.032566   0.080118  -0.150298  -0.021069   0.100803
   52  H  7  S   -0.073054   0.116909   0.193497  -0.027585   0.118018
   53  H  7  S   -0.032577   0.080167   0.150256  -0.020885   0.100875

                     11         12         13         14         15
                   -0.3609    -0.2518    -0.0185     0.1102     0.1339
                     A          A          A          A          A   
    1  C  1  S   -0.000002  -0.038121  -0.000003  -0.123132   0.090982
    2  C  1  S    0.000004   0.072317  -0.000000   0.144643  -0.112558
    3  C  1  X    0.000004  -0.221088   0.000006   0.233689   0.086307
    4  C  1  Y   -0.000015   0.070676   0.000003   0.023612   0.110494
    5  C  1  Z   -0.225604   0.000026  -0.019932  -0.000084   0.000046
    6  C  1  S    0.000007   0.298540   0.000046   2.065694  -1.455161
    7  C  1  X    0.000007  -0.166555   0.000015   0.617615   0.307318
    8  C  1  Y   -0.000003   0.047350  -0.000002  -0.012787   0.097684
    9  C  1  Z   -0.108561   0.000027   0.041797  -0.000265   0.000162
   10  C  1 XX   -0.000004   0.002003  -0.000004  -0.004735   0.002932
   11  C  1 YY   -0.000001  -0.004978  -0.000002  -0.005742   0.013841
   12  C  1 ZZ    0.000006  -0.003527   0.000004  -0.016335  -0.000100
   13  C  1 XY   -0.000000  -0.005818   0.000001  -0.008116  -0.014100
   14  C  1 XZ   -0.019220   0.000000  -0.032714   0.000002  -0.000003
   15  C  1 YZ   -0.007117   0.000000   0.006179   0.000001  -0.000003
   16  C  2  S    0.000005  -0.001922   0.000004  -0.030278  -0.104695
   17  C  2  S   -0.000011   0.017931  -0.000010   0.102967   0.141193
   18  C  2  X   -0.000030   0.087174  -0.000016   0.015924   0.065164
   19  C  2  Y    0.000003  -0.120582  -0.000004   0.142887   0.271177
   20  C  2  Z    0.275411   0.000001   0.511001   0.000008   0.000005
   21  C  2  S   -0.000013  -0.033035  -0.000031   0.259276   1.632955
   22  C  2  X   -0.000017  -0.066059  -0.000015   0.032871   0.370907
   23  C  2  Y   -0.000001   0.042272  -0.000013   0.400235   0.626353
   24  C  2  Z    0.168497   0.000000   0.560198   0.000050  -0.000022
   25  C  2 XX    0.000002   0.037945   0.000000   0.004461  -0.008296
   26  C  2 YY   -0.000001  -0.041757  -0.000000   0.005032  -0.015097
   27  C  2 ZZ   -0.000000   0.001379   0.000001  -0.005345  -0.001204
   28  C  2 XY    0.000000  -0.019370   0.000000   0.000781   0.010757
   29  C  2 XZ   -0.028780   0.000001   0.023863  -0.000001   0.000001
   30  C  2 YZ   -0.012217  -0.000001   0.017408   0.000003  -0.000003
   31  O  3  S    0.000001  -0.000408  -0.000001  -0.011735   0.001529
   32  O  3  S   -0.000000   0.004015   0.000002   0.019117  -0.023919
   33  O  3  X   -0.000008  -0.312295   0.000011   0.049021  -0.018895
   34  O  3  Y    0.000029   0.486564   0.000001  -0.072174  -0.046669
   35  O  3  Z    0.473675  -0.000009  -0.429216  -0.000005  -0.000004
   36  O  3  S   -0.000015  -0.011011  -0.000001   0.172225   0.089420
   37  O  3  X   -0.000009  -0.222011   0.000009   0.120038   0.017648
   38  O  3  Y    0.000016   0.344320   0.000001  -0.071167  -0.100079
   39  O  3  Z    0.304475  -0.000006  -0.449389  -0.000012   0.000005
   40  O  3 XX   -0.000001  -0.012990   0.000000   0.001875  -0.010498
   41  O  3 YY    0.000002   0.014612   0.000000  -0.005235  -0.005210
   42  O  3 ZZ    0.000001   0.001150   0.000000  -0.004230  -0.001715
   43  O  3 XY    0.000001   0.008049  -0.000000   0.005756   0.004307
   44  O  3 XZ    0.024513  -0.000000   0.000586  -0.000001   0.000001
   45  O  3 YZ    0.015817  -0.000000   0.000728   0.000001  -0.000001
   46  H  4  S   -0.000002  -0.178024   0.000004   0.015313  -0.104859
   47  H  4  S   -0.000001  -0.290625   0.000020  -0.631831  -1.630716
   48  H  5  S   -0.000001  -0.018481  -0.000010  -0.008264   0.054819
   49  H  5  S    0.000002  -0.095699  -0.000037  -0.648652   0.961803
   50  H  6  S    0.137293  -0.032229   0.100689  -0.041691  -0.011950
   51  H  6  S    0.136781  -0.067624   0.225039  -1.228011   0.239226
   52  H  7  S   -0.137265  -0.032228  -0.100677  -0.041656  -0.011983
   53  H  7  S   -0.136756  -0.067624  -0.225017  -1.227670   0.238805

                     16         17         18         19         20
                    0.1553     0.1574     0.2581     0.2830     0.5283
                     A          A          A          A          A   
    1  C  1  S   -0.006068  -0.000033   0.074502  -0.024555  -0.000004
    2  C  1  S    0.007614   0.000045  -0.032874   0.047850   0.000081
    3  C  1  X    0.015939   0.000035   0.131926  -0.181459  -0.000175
    4  C  1  Y    0.339276  -0.000233  -0.124662  -0.168736   0.000168
    5  C  1  Z    0.000283   0.424815   0.000039  -0.000001   0.318855
    6  C  1  S   -0.031292   0.000662  -1.689131  -0.034964   0.000019
    7  C  1  X    0.143178   0.000015   1.676225  -0.727511  -0.000015
    8  C  1  Y    1.288575  -0.000884  -0.662978  -0.693431  -0.000227
    9  C  1  Z    0.000899   1.399488   0.000135  -0.000038  -0.612969
   10  C  1 XX   -0.012083  -0.000001   0.039087  -0.034124   0.000023
   11  C  1 YY    0.025292  -0.000019   0.001905   0.033688   0.000002
   12  C  1 ZZ   -0.012914   0.000013  -0.020924   0.000594  -0.000012
   13  C  1 XY    0.006201  -0.000003  -0.027809  -0.005941   0.000005
   14  C  1 XZ   -0.000008  -0.006192  -0.000003  -0.000002   0.033700
   15  C  1 YZ   -0.000014  -0.013248   0.000001  -0.000002   0.050740
   16  C  2  S    0.069569  -0.000030  -0.053457   0.058025   0.000021
   17  C  2  S   -0.085566   0.000023   0.108448  -0.024651   0.000070
   18  C  2  X   -0.009060  -0.000047   0.390553  -0.032170   0.000049
   19  C  2  Y   -0.056263   0.000060  -0.313546   0.243868   0.000030
   20  C  2  Z   -0.000063  -0.075825   0.000001   0.000001   0.901196
   21  C  2  S   -1.215371   0.000674   0.928558  -1.820360  -0.000295
   22  C  2  X    0.109811  -0.000209   1.820310   1.489745  -0.000082
   23  C  2  Y   -0.250393   0.000185  -0.752398   1.508256   0.000136
   24  C  2  Z   -0.000281  -0.401991  -0.000046   0.000040  -0.864458
   25  C  2 XX    0.027098  -0.000017  -0.001501  -0.008056   0.000035
   26  C  2 YY   -0.003066   0.000002  -0.002528   0.003979   0.000025
   27  C  2 ZZ   -0.011090   0.000009  -0.000594  -0.015483  -0.000020
   28  C  2 XY    0.022091  -0.000013   0.008712   0.001635  -0.000017
   29  C  2 XZ    0.000009   0.011731   0.000001   0.000000  -0.010281
   30  C  2 YZ   -0.000016  -0.020769  -0.000002   0.000001  -0.003643
   31  O  3  S   -0.029603   0.000019  -0.031637  -0.110099  -0.000009
   32  O  3  S    0.042825  -0.000012   0.031196   0.103416   0.000033
   33  O  3  X    0.096947  -0.000035  -0.068928   0.149904   0.000020
   34  O  3  Y    0.104989  -0.000098   0.133453   0.054710   0.000004
   35  O  3  Z    0.000025   0.042012   0.000002   0.000007   0.062525
   36  O  3  S    0.387132  -0.000306   0.645187   2.222018   0.000093
   37  O  3  X    0.174691  -0.000096  -0.033408   0.828324   0.000090
   38  O  3  Y    0.175443  -0.000157   0.444618   0.411735   0.000006
   39  O  3  Z    0.000092   0.125908   0.000016   0.000008   0.053071
   40  O  3 XX   -0.010335   0.000010   0.000094  -0.017598  -0.000000
   41  O  3 YY   -0.006259   0.000008  -0.023435  -0.040172   0.000005
   42  O  3 ZZ   -0.017280   0.000016  -0.014714  -0.069048  -0.000002
   43  O  3 XY    0.001652  -0.000000   0.012620   0.042215  -0.000007
   44  O  3 XZ    0.000005   0.006007   0.000001  -0.000000   0.047612
   45  O  3 YZ   -0.000004  -0.004740  -0.000000   0.000001   0.039729
   46  H  4  S    0.006929   0.000002  -0.004767   0.067867   0.000095
   47  H  4  S    0.722537  -0.000437   0.793171  -0.606349  -0.000048
   48  H  5  S    0.134390  -0.000093  -0.025472   0.107806  -0.000046
   49  H  5  S    1.679013  -0.001521  -0.144251  -0.719903   0.000022
   50  H  6  S   -0.048352   0.077201  -0.092663   0.002446  -0.256010
   51  H  6  S   -0.643685   1.505730  -0.104113   0.469894  -0.141495
   52  H  7  S   -0.048489  -0.077116  -0.092651   0.002388   0.256058
   53  H  7  S   -0.645899  -1.505211  -0.104588   0.470245   0.141532

                     21         22         23         24         25
                    0.5402     0.5890     0.6003     0.6708     0.7088
                     A          A          A          A          A   
    1  C  1  S   -0.019058  -0.008632  -0.000000  -0.020836   0.018355
    2  C  1  S    0.245774   0.075935   0.000057   0.149323  -0.047606
    3  C  1  X   -0.791825  -0.483257  -0.000111  -0.329977   0.085338
    4  C  1  Y    0.523598  -0.484805   0.000057  -0.124782   0.243187
    5  C  1  Z    0.000041   0.000109  -0.731816   0.000034   0.000077
    6  C  1  S    0.023985   0.327370  -0.000081  -1.116308   0.569784
    7  C  1  X    0.843715   0.835603   0.000394   1.336994  -0.939502
    8  C  1  Y   -0.826106   1.405815  -0.000183   0.365918  -0.580066
    9  C  1  Z    0.000055  -0.000242   1.786438  -0.000028  -0.000212
   10  C  1 XX    0.035329  -0.000401  -0.000009  -0.024124   0.025743
   11  C  1 YY   -0.024811   0.101194  -0.000010  -0.010957  -0.004343
   12  C  1 ZZ    0.017336  -0.087042   0.000033   0.013835   0.007523
   13  C  1 XY   -0.018244  -0.017256  -0.000023   0.092620  -0.024759
   14  C  1 XZ   -0.000010  -0.000014  -0.063632  -0.000010   0.000014
   15  C  1 YZ   -0.000005  -0.000010  -0.080353  -0.000005   0.000006
   16  C  2  S    0.064552  -0.001025  -0.000000  -0.039682  -0.041961
   17  C  2  S    0.105871  -0.038146  -0.000053   0.217758   0.445638
   18  C  2  X    0.073667   0.034106  -0.000013  -0.973991  -0.199092
   19  C  2  Y    0.076656  -0.048802  -0.000100   0.103236  -0.901215
   20  C  2  Z   -0.000291   0.000032   0.493847   0.000033  -0.000048
   21  C  2  S    0.040775   0.626431   0.000490   0.899316  -0.591850
   22  C  2  X   -0.243561  -0.956658   0.000018   1.450921  -0.200254
   23  C  2  Y    0.121745  -0.266240   0.000073  -1.440885   2.282872
   24  C  2  Z    0.000321   0.000018  -1.149864  -0.000083   0.000146
   25  C  2 XX    0.132771   0.057933   0.000014  -0.029093  -0.086259
   26  C  2 YY    0.054069  -0.039108  -0.000013   0.023052   0.000502
   27  C  2 ZZ   -0.064711   0.002045  -0.000003   0.025980   0.060453
   28  C  2 XY   -0.062404   0.015199  -0.000006  -0.106790  -0.099632
   29  C  2 XZ    0.000006   0.000001   0.008795   0.000002  -0.000007
   30  C  2 YZ    0.000004  -0.000003  -0.047904  -0.000006   0.000008
   31  O  3  S   -0.013295   0.021370   0.000005   0.042988   0.020648
   32  O  3  S    0.136759  -0.003321   0.000023  -0.159382  -0.025977
   33  O  3  X    0.119675   0.185720   0.000037  -0.293032  -0.193027
   34  O  3  Y   -0.065791  -0.182961  -0.000056  -0.005212  -0.358518
   35  O  3  Z   -0.000017  -0.000000   0.043971   0.000006  -0.000012
   36  O  3  S   -0.155581  -0.790274  -0.000164  -0.144602   0.470316
   37  O  3  X    0.075907  -0.262504  -0.000083  -0.439096   0.144428
   38  O  3  Y   -0.053389  -0.196380  -0.000040  -0.053249  -0.106548
   39  O  3  Z   -0.000028  -0.000015   0.181717   0.000005  -0.000018
   40  O  3 XX    0.005109  -0.035119   0.000008   0.018308   0.158923
   41  O  3 YY    0.042553   0.014070   0.000009   0.023417   0.001060
   42  O  3 ZZ    0.019718   0.028392   0.000015  -0.045507  -0.040020
   43  O  3 XY   -0.014179  -0.001582   0.000001   0.104987   0.087188
   44  O  3 XZ   -0.000017  -0.000000   0.046631   0.000005  -0.000002
   45  O  3 YZ   -0.000011   0.000003  -0.004507   0.000001   0.000004
   46  H  4  S    0.219105  -0.361255  -0.000042   0.110299  -0.028021
   47  H  4  S   -0.092799   0.113076  -0.000051   0.689786  -1.158871
   48  H  5  S   -0.227710   0.399765  -0.000025  -0.075911   0.170897
   49  H  5  S   -0.157531   0.337240  -0.000128   0.348397  -0.227678
   50  H  6  S   -0.016211  -0.259078   0.311718  -0.049853   0.105922
   51  H  6  S    0.015279  -0.232673   0.341576  -0.411550   0.256031
   52  H  7  S   -0.016327  -0.259071  -0.311729  -0.049889   0.105944
   53  H  7  S    0.015128  -0.232640  -0.341649  -0.411615   0.256306

                     26         27         28         29         30
                    0.7528     0.8471     0.8493     0.8797     0.9235
                     A          A          A          A          A   
    1  C  1  S   -0.042638   0.000015  -0.009478  -0.027599  -0.013024
    2  C  1  S    0.079261   0.000008   0.092402  -0.124888   0.411254
    3  C  1  X    0.119460  -0.000051  -0.016105  -0.217526   0.008674
    4  C  1  Y    0.534358   0.000074  -0.071508  -0.462873  -0.469947
    5  C  1  Z    0.000038  -0.792707  -0.001630   0.000108   0.000072
    6  C  1  S   -0.576205   0.000380  -0.382221   0.258047  -0.650797
    7  C  1  X    0.338490  -0.000281   0.184077   0.595258  -0.409782
    8  C  1  Y   -1.671001   0.000187  -0.026033   0.685725   0.256461
    9  C  1  Z   -0.000187   1.199418   0.002425  -0.000217  -0.000129
   10  C  1 XX   -0.109406   0.000121  -0.034008   0.013893   0.045116
   11  C  1 YY    0.038649  -0.000014   0.014566  -0.120489  -0.148049
   12  C  1 ZZ    0.031735  -0.000054   0.005346   0.061759   0.165899
   13  C  1 XY   -0.059820  -0.000002   0.013215   0.053560  -0.102680
   14  C  1 XZ    0.000013   0.181325   0.000382  -0.000010   0.000019
   15  C  1 YZ    0.000034   0.086133   0.000184   0.000014   0.000044
   16  C  2  S   -0.019534  -0.000101   0.052071  -0.019867   0.009367
   17  C  2  S   -0.927146   0.001169  -0.584661  -1.130223   0.483973
   18  C  2  X   -0.362023   0.000276  -0.146579   0.047251  -0.017309
   19  C  2  Y    0.007125   0.001064  -0.522397  -0.243161  -0.014512
   20  C  2  Z    0.000000  -0.049265  -0.000112   0.000012  -0.000000
   21  C  2  S    2.235941  -0.004135   2.039533   1.853630  -0.876649
   22  C  2  X    1.182765  -0.000186   0.086706   0.080314   0.080134
   23  C  2  Y    0.551647  -0.001343   0.680779   0.736139   0.665833
   24  C  2  Z    0.000079  -0.048049  -0.000072   0.000007   0.000018
   25  C  2 XX    0.005041  -0.000091   0.042723  -0.185055   0.099102
   26  C  2 YY   -0.206264  -0.000192   0.095625  -0.015019  -0.047595
   27  C  2 ZZ    0.025651   0.000243  -0.120666  -0.015640   0.020002
   28  C  2 XY    0.043593  -0.000296   0.131050  -0.095812   0.035422
   29  C  2 XZ   -0.000004  -0.071595  -0.000148   0.000008   0.000008
   30  C  2 YZ    0.000008   0.035902   0.000083  -0.000006   0.000000
   31  O  3  S   -0.001040  -0.000006   0.002564  -0.007227  -0.008854
   32  O  3  S   -0.043903   0.000749  -0.324397   0.306966  -0.166968
   33  O  3  X    0.094309  -0.000897   0.423583  -0.275780   0.311111
   34  O  3  Y   -0.058496  -0.000759   0.350549  -0.159128   0.000408
   35  O  3  Z    0.000032  -0.243693  -0.000504   0.000025  -0.000018
   36  O  3  S    0.229134  -0.000517   0.198674  -0.455779   0.682710
   37  O  3  X   -0.106608   0.001691  -0.791313   0.604115  -0.291193
   38  O  3  Y   -0.013464   0.001205  -0.574778   0.272883  -0.163673
   39  O  3  Z   -0.000048   0.229420   0.000467  -0.000020   0.000020
   40  O  3 XX   -0.051299   0.000309  -0.137564   0.131670  -0.089037
   41  O  3 YY    0.000947   0.000412  -0.185685   0.094057  -0.033632
   42  O  3 ZZ    0.021521   0.000225  -0.098660   0.132343  -0.104692
   43  O  3 XY    0.008166   0.000152  -0.067988  -0.006178   0.017959
   44  O  3 XZ   -0.000004   0.015095   0.000029  -0.000000  -0.000000
   45  O  3 YZ    0.000005  -0.001740  -0.000004  -0.000001   0.000000
   46  H  4  S   -0.582304  -0.001297   0.639729   0.235654  -0.512935
   47  H  4  S   -0.154048   0.002933  -1.468200  -1.229691   0.240284
   48  H  5  S   -0.088084  -0.000026  -0.009257  -0.532550  -0.866921
   49  H  5  S   -1.011201   0.000050   0.061807   0.941341   1.215591
   50  H  6  S   -0.326999  -0.693765  -0.064407   0.060522   0.162524
   51  H  6  S    0.330752   1.363838   0.026085  -0.600137  -0.015253
   52  H  7  S   -0.326913   0.693904  -0.061501   0.060450   0.162526
   53  H  7  S    0.331009  -1.363670   0.020467  -0.599944  -0.015116

                     31         32         33         34         35
                    0.9366     0.9936     1.0829     1.2531     1.4026
                     A          A          A          A          A   
    1  C  1  S    0.041562   0.000004   0.021892  -0.136273   0.000035
    2  C  1  S   -1.150606   0.000131   0.157352  -1.972723   0.000448
    3  C  1  X   -0.438859   0.000034  -0.111083   0.071882  -0.000034
    4  C  1  Y    0.036403   0.000033  -0.040474  -0.041173   0.000021
    5  C  1  Z   -0.000045   0.194171  -0.000011  -0.000056  -0.119687
    6  C  1  S    1.998561  -0.000390   0.320732   6.664335  -0.001506
    7  C  1  X    0.895001   0.000035  -0.291084  -1.263010   0.000225
    8  C  1  Y   -0.409187  -0.000105  -0.094673   0.379373  -0.000103
    9  C  1  Z    0.000069  -0.206331   0.000039   0.000071  -0.063542
   10  C  1 XX   -0.156287  -0.000004   0.025806  -0.030710   0.000009
   11  C  1 YY   -0.071185   0.000009   0.021138  -0.075786   0.000052
   12  C  1 ZZ    0.075947   0.000016  -0.003281  -0.155500  -0.000011
   13  C  1 XY    0.028191  -0.000010  -0.051752  -0.056887   0.000083
   14  C  1 XZ    0.000060  -0.032080   0.000010  -0.000097  -0.349980
   15  C  1 YZ    0.000009  -0.065281  -0.000007   0.000141   0.478189
   16  C  2  S   -0.020112  -0.000005  -0.001629   0.037467  -0.000008
   17  C  2  S   -0.269491  -0.000090  -0.032167   0.596582  -0.000111
   18  C  2  X   -0.070114  -0.000005   0.129812   0.030668   0.000004
   19  C  2  Y    0.064468  -0.000004  -0.263198  -0.051054  -0.000004
   20  C  2  Z    0.000004   0.123238  -0.000014   0.000039   0.039517
   21  C  2  S    0.778106   0.000302   0.294548  -3.574443   0.000852
   22  C  2  X    0.578440   0.000110  -0.835565  -1.612635   0.000284
   23  C  2  Y   -0.088031  -0.000030   1.498166   1.463160  -0.000262
   24  C  2  Z   -0.000047  -0.586605   0.000050  -0.000128  -0.087702
   25  C  2 XX   -0.028620  -0.000002   0.130648   0.025275  -0.000016
   26  C  2 YY   -0.064995  -0.000014  -0.159503   0.111828  -0.000023
   27  C  2 ZZ    0.043752   0.000003   0.011946  -0.124173   0.000044
   28  C  2 XY    0.080392  -0.000004  -0.050646  -0.032286   0.000018
   29  C  2 XZ   -0.000012   0.054718  -0.000007   0.000104   0.569788
   30  C  2 YZ    0.000007  -0.012122  -0.000002  -0.000035  -0.155087
   31  O  3  S   -0.004649   0.000001   0.002845  -0.015670   0.000006
   32  O  3  S   -0.105965   0.000011   0.059262  -0.201038   0.000103
   33  O  3  X    0.169095  -0.000023  -0.412968  -0.087783   0.000028
   34  O  3  Y    0.011816   0.000026   0.702841   0.085364   0.000002
   35  O  3  Z   -0.000061  -0.915468   0.000034  -0.000051   0.056946
   36  O  3  S    0.265167  -0.000050  -0.132450   0.873506  -0.000339
   37  O  3  X   -0.229930   0.000014   0.732118   0.513616  -0.000156
   38  O  3  Y    0.035794  -0.000024  -1.316979  -0.293675  -0.000001
   39  O  3  Z    0.000078   1.255745  -0.000058   0.000136   0.126836
   40  O  3 XX   -0.051506   0.000000  -0.075916  -0.009471   0.000020
   41  O  3 YY   -0.054942   0.000005   0.106064   0.055374  -0.000014
   42  O  3 ZZ   -0.013189   0.000012   0.018981  -0.234858   0.000072
   43  O  3 XY   -0.005910  -0.000000   0.056744  -0.026153   0.000023
   44  O  3 XZ    0.000000  -0.029997   0.000003  -0.000022  -0.120652
   45  O  3 YZ    0.000000  -0.023568   0.000003  -0.000035  -0.275607
   46  H  4  S   -0.277254  -0.000005  -0.230435   0.021105  -0.000026
   47  H  4  S    0.210448  -0.000016  -0.721285  -0.380791   0.000049
   48  H  5  S    0.252821   0.000020   0.080376  -0.457220   0.000147
   49  H  5  S   -0.779376  -0.000017  -0.076610  -0.808181   0.000172
   50  H  6  S    0.631936   0.163402   0.127442  -0.490614  -0.131524
   51  H  6  S   -1.151144  -0.380345   0.055517  -0.635607   0.047735
   52  H  7  S    0.632111  -0.163414   0.127444  -0.490521   0.131823
   53  H  7  S   -1.151438   0.380465   0.055479  -0.635753  -0.047418

                     36         37         38         39         40
                    1.4788     1.5338     1.6953     1.8023     1.8117
                     A          A          A          A          A   
    1  C  1  S    0.013410  -0.000004   0.041501  -0.025420   0.000015
    2  C  1  S    0.220276  -0.000048   0.284928   0.376645  -0.000189
    3  C  1  X   -0.041306  -0.000004   0.112759  -0.276740   0.000141
    4  C  1  Y    0.051092  -0.000018   0.059407   0.066433   0.000016
    5  C  1  Z   -0.000031  -0.039226   0.000009  -0.000050  -0.069170
    6  C  1  S   -0.658730   0.000179  -1.588091   0.198772  -0.000084
    7  C  1  X   -0.167595   0.000080   0.275389   0.029486  -0.000121
    8  C  1  Y   -0.745013   0.000167  -0.674414  -0.116356  -0.000195
    9  C  1  Z    0.000107   0.322818  -0.000059   0.000310   0.326932
   10  C  1 XX   -0.014765  -0.000016   0.459279  -0.355550   0.000339
   11  C  1 YY    0.019914  -0.000020  -0.111005   0.206248  -0.000151
   12  C  1 ZZ    0.014785   0.000031  -0.351839   0.123827  -0.000157
   13  C  1 XY   -0.122614  -0.000034   0.437227   0.063539   0.000260
   14  C  1 XZ    0.000030   0.119918  -0.000049  -0.000163  -0.339929
   15  C  1 YZ    0.000056  -0.053556  -0.000194   0.000306   0.408434
   16  C  2  S   -0.031574   0.000004  -0.025823  -0.015203   0.000012
   17  C  2  S   -0.139460   0.000044  -0.512629   0.210211  -0.000073
   18  C  2  X    0.093010  -0.000005  -0.026825   0.031654   0.000073
   19  C  2  Y   -0.014283   0.000006   0.048041   0.074537  -0.000051
   20  C  2  Z    0.000006   0.187336   0.000012  -0.000055  -0.090649
   21  C  2  S   -2.414450   0.000080   1.617238  -0.127335  -0.000304
   22  C  2  X    2.000422  -0.000220   1.048715  -0.550676   0.000547
   23  C  2  Y    1.524971  -0.000218   0.491037   0.685729   0.000133
   24  C  2  Z    0.000019  -0.206607   0.000049  -0.000146  -0.210945
   25  C  2 XX   -0.035131   0.000006   0.002553  -0.315134   0.000079
   26  C  2 YY    0.048086  -0.000033   0.286371   0.380344  -0.000178
   27  C  2 ZZ   -0.022363   0.000028  -0.306506  -0.050605   0.000105
   28  C  2 XY   -0.215961   0.000010  -0.258421   0.283679  -0.000202
   29  C  2 XZ    0.000030   0.127273   0.000044  -0.000113  -0.142867
   30  C  2 YZ    0.000039   0.718080   0.000021  -0.000004  -0.067121
   31  O  3  S   -0.099993   0.000008  -0.015366   0.002752  -0.000016
   32  O  3  S   -1.794785   0.000126   0.052155  -0.087102  -0.000082
   33  O  3  X   -0.237703   0.000005   0.162562  -0.227862   0.000181
   34  O  3  Y   -0.165241   0.000006   0.061600   0.174174  -0.000049
   35  O  3  Z    0.000007   0.091477   0.000024  -0.000048  -0.073589
   36  O  3  S    5.649826  -0.000455   0.360241   0.060568   0.000680
   37  O  3  X    1.586684  -0.000110  -0.098266   0.302064   0.000006
   38  O  3  Y    0.970537  -0.000067   0.012832  -0.347928   0.000229
   39  O  3  Z    0.000030   0.116813  -0.000024   0.000073   0.113015
   40  O  3 XX   -0.550377   0.000038   0.082613   0.497628  -0.000395
   41  O  3 YY   -0.357009   0.000020   0.345412  -0.278205   0.000028
   42  O  3 ZZ   -0.398367   0.000037  -0.451665  -0.263012   0.000301
   43  O  3 XY   -0.154055   0.000024  -0.200639  -0.363326   0.000289
   44  O  3 XZ   -0.000033  -0.512782  -0.000042  -0.000128  -0.227697
   45  O  3 YZ   -0.000015   0.037963  -0.000032   0.000492   0.809287
   46  H  4  S   -0.009870   0.000039  -0.483492  -0.481248   0.000168
   47  H  4  S   -0.284310   0.000075  -0.324213  -0.141224  -0.000053
   48  H  5  S   -0.005666   0.000002   0.139064  -0.187047   0.000105
   49  H  5  S   -0.234043   0.000047  -0.150122   0.031936  -0.000121
   50  H  6  S    0.101990   0.067224   0.178315  -0.065647   0.011798
   51  H  6  S    0.197521   0.144293   0.143746   0.063167   0.132274
   52  H  7  S    0.102000  -0.067299   0.178304  -0.065693  -0.011699
   53  H  7  S    0.197411  -0.144399   0.143866   0.062877  -0.132224

                     41         42         43         44         45
                    1.8487     2.0612     2.0632     2.1505     2.2965
                     A          A          A          A          A   
    1  C  1  S    0.044278  -0.009861   0.000044   0.007958   0.000003
    2  C  1  S    0.254025   0.086638  -0.000188   0.160312   0.000032
    3  C  1  X    0.076767  -0.036712   0.000157  -0.036942   0.000061
    4  C  1  Y   -0.142225   0.045192  -0.000102  -0.103977   0.000010
    5  C  1  Z   -0.000028   0.000192   0.070344   0.000018   0.093978
    6  C  1  S   -1.660560   0.014826  -0.000486  -0.589068  -0.000208
    7  C  1  X    0.734166   0.297113  -0.000549   0.040797   0.000284
    8  C  1  Y    0.558416   0.144008  -0.000332  -0.650771   0.000027
    9  C  1  Z    0.000101   0.001830   0.647100   0.000263   0.221650
   10  C  1 XX   -0.239293  -0.305099   0.001009  -0.222782  -0.000029
   11  C  1 YY    0.060478  -0.135904   0.000275   0.830074   0.000108
   12  C  1 ZZ    0.158915   0.449535  -0.001295  -0.603480  -0.000077
   13  C  1 XY   -0.638723   0.373884  -0.000982   0.250157   0.000147
   14  C  1 XZ   -0.000066   0.000284   0.106878  -0.000017   0.972588
   15  C  1 YZ    0.000271   0.002153   0.750237   0.000050   0.360883
   16  C  2  S   -0.019338   0.027693  -0.000082  -0.035945  -0.000005
   17  C  2  S   -0.348188   0.279870  -0.000890   0.008424   0.000009
   18  C  2  X   -0.229028   0.308984  -0.000868   0.049673   0.000087
   19  C  2  Y    0.026199  -0.129832   0.000419  -0.172290  -0.000004
   20  C  2  Z   -0.000039  -0.000135  -0.047252  -0.000013   0.076159
   21  C  2  S    2.067924  -0.628462   0.002337   0.323066   0.000343
   22  C  2  X   -0.008908   0.097504  -0.000147   0.338365   0.000066
   23  C  2  Y   -1.780398  -0.233093   0.000430  -0.105278  -0.000264
   24  C  2  Z   -0.000092  -0.001148  -0.398320  -0.000115   0.038977
   25  C  2 XX    0.335855  -0.232218   0.000635   0.265275  -0.000063
   26  C  2 YY   -0.124390  -0.308537   0.000971  -0.272697   0.000086
   27  C  2 ZZ   -0.231942   0.671799  -0.001978  -0.067713  -0.000030
   28  C  2 XY   -0.002400  -0.048178  -0.000011   0.451477  -0.000115
   29  C  2 XZ   -0.000012  -0.001037  -0.351162  -0.000081   0.237504
   30  C  2 YZ   -0.000050   0.001454   0.502103   0.000120  -0.403446
   31  O  3  S    0.037666  -0.001882   0.000008  -0.005415   0.000001
   32  O  3  S    0.409264   0.025976   0.000061  -0.276565   0.000125
   33  O  3  X   -0.054185   0.178655  -0.000434  -0.201767   0.000070
   34  O  3  Y   -0.146593   0.064498  -0.000134  -0.237587   0.000032
   35  O  3  Z   -0.000023  -0.000216  -0.074474  -0.000016   0.016520
   36  O  3  S   -2.022849   0.255165  -0.001032   0.336922  -0.000262
   37  O  3  X   -0.646002  -0.023381  -0.000060   0.029053  -0.000123
   38  O  3  Y    0.011682   0.133529  -0.000423   0.279985   0.000013
   39  O  3  Z    0.000032   0.000612   0.210783   0.000048  -0.064695
   40  O  3 XX    0.250957  -0.145733   0.000423  -0.211318  -0.000058
   41  O  3 YY    0.455942   0.605091  -0.001712   0.186496   0.000086
   42  O  3 ZZ   -0.439427  -0.364933   0.001095  -0.205432   0.000022
   43  O  3 XY   -0.239372  -0.134714   0.000403   0.098144   0.000067
   44  O  3 XZ   -0.000065   0.001322   0.450848   0.000072  -0.244033
   45  O  3 YZ    0.000294  -0.000645  -0.217543  -0.000026   0.141279
   46  H  4  S    0.277619   0.365118  -0.001135   0.228437  -0.000027
   47  H  4  S    0.428378   0.125367  -0.000280  -0.029453   0.000102
   48  H  5  S    0.243109   0.092370  -0.000053  -0.677845  -0.000010
   49  H  5  S    0.352718   0.039282  -0.000118  -0.001904   0.000014
   50  H  6  S    0.171262  -0.257786   0.417575   0.288374   0.547633
   51  H  6  S   -0.093176   0.004229   0.077730   0.070807  -0.126759
   52  H  7  S    0.171251  -0.260091  -0.416107   0.288143  -0.547779
   53  H  7  S   -0.093315   0.003715  -0.077798   0.070734   0.126713

                     46         47         48         49         50
                    2.3587     2.5377     2.5838     2.8516     2.9439
                     A          A          A          A          A   
    1  C  1  S    0.046925   0.052278  -0.000002  -0.039310  -0.027637
    2  C  1  S    0.307505   0.002288  -0.000045   0.205387   0.134686
    3  C  1  X    0.138828   0.250235   0.000008  -0.221017  -0.087734
    4  C  1  Y   -0.000677  -0.104672  -0.000004   0.136782   0.053408
    5  C  1  Z   -0.000019  -0.000017  -0.030696   0.000003  -0.000006
    6  C  1  S   -1.769858  -1.350631   0.000105   0.209642   0.236348
    7  C  1  X    0.957226   0.713814   0.000002  -0.194619  -0.195311
    8  C  1  Y   -0.025973  -0.239930  -0.000002   0.234641  -0.099684
    9  C  1  Z   -0.000066  -0.000042  -0.031175  -0.000018   0.000007
   10  C  1 XX   -0.375867  -0.747172  -0.000041   0.182076   0.015172
   11  C  1 YY   -0.239605   0.727582   0.000048   0.001413  -0.032815
   12  C  1 ZZ    0.659536   0.136746   0.000006  -0.320594  -0.153688
   13  C  1 XY    0.334690   0.075182  -0.000002  -0.509177  -0.173399
   14  C  1 XZ   -0.000016  -0.000148   0.146967  -0.000050  -0.000026
   15  C  1 YZ   -0.000010  -0.000091  -0.165548  -0.000002  -0.000010
   16  C  2  S   -0.103244  -0.015831   0.000001   0.069091  -0.029490
   17  C  2  S   -0.105204  -0.033270   0.000016   0.125518  -1.324668
   18  C  2  X    0.231490   0.226489   0.000014  -0.355650   1.075632
   19  C  2  Y   -0.126517  -0.053099   0.000001  -0.172211   0.695430
   20  C  2  Z   -0.000006   0.000004  -0.242924  -0.000005   0.000014
   21  C  2  S    1.874812   1.467630  -0.000028  -0.254322  -1.698913
   22  C  2  X    0.513598   0.674074  -0.000009  -0.327310   0.640668
   23  C  2  Y   -0.909220  -0.674938   0.000008  -0.558355   0.577168
   24  C  2  Z    0.000012   0.000012  -0.236996  -0.000004   0.000015
   25  C  2 XX    0.244370  -0.083785  -0.000027  -0.804464  -0.642728
   26  C  2 YY    0.338768   0.328033   0.000009   0.933800   0.186588
   27  C  2 ZZ   -0.856837  -0.189096   0.000022   0.205054   0.449993
   28  C  2 XY    0.288665  -0.883285  -0.000059   0.498401  -0.458950
   29  C  2 XZ    0.000021  -0.000085   0.893933  -0.000006  -0.000016
   30  C  2 YZ    0.000021   0.000021   0.445507   0.000020  -0.000004
   31  O  3  S    0.007359   0.006415  -0.000000  -0.004211  -0.037529
   32  O  3  S   -0.180871   0.544465   0.000028   0.332486  -0.698991
   33  O  3  X   -0.249102   0.362120   0.000021  -0.020865   0.254902
   34  O  3  Y   -0.196873   0.167853   0.000013   0.035874   0.179795
   35  O  3  Z   -0.000002   0.000006   0.011163   0.000001   0.000004
   36  O  3  S   -0.381912  -0.839714  -0.000023  -0.867914   2.907424
   37  O  3  X   -0.159020  -0.502392  -0.000017  -0.635898   1.466482
   38  O  3  Y    0.293293  -0.026505  -0.000013   0.082289   0.983596
   39  O  3  Z   -0.000002  -0.000030   0.453579  -0.000006   0.000020
   40  O  3 XX   -0.357068  -0.068144  -0.000013  -0.878272   0.767665
   41  O  3 YY    0.244778   0.084857  -0.000010   0.624627   0.101048
   42  O  3 ZZ   -0.021806   0.248699   0.000035   0.114162  -0.634884
   43  O  3 XY    0.368429   0.089334  -0.000008   0.084520   1.176068
   44  O  3 XZ    0.000008  -0.000033   0.824483  -0.000005   0.000025
   45  O  3 YZ    0.000008  -0.000045   0.567741   0.000005   0.000017
   46  H  4  S   -0.186630  -0.225957  -0.000011  -0.261408  -0.020758
   47  H  4  S    0.241550   0.285153   0.000008   0.448334  -0.008585
   48  H  5  S    0.306030  -0.326761  -0.000046  -0.000872  -0.016277
   49  H  5  S    0.070072   0.186112  -0.000000   0.095629  -0.050354
   50  H  6  S   -0.163448   0.094199  -0.011603   0.108571   0.035743
   51  H  6  S    0.059405  -0.053565  -0.029459  -0.034884   0.011707
   52  H  7  S   -0.163320   0.094435   0.011567   0.108617   0.035783
   53  H  7  S    0.059344  -0.053656   0.029416  -0.034877   0.011682

                     51         52         53
                    3.8119     4.0700     4.3345
                     A          A          A   
    1  C  1  S   -0.007230  -0.295891  -0.399482
    2  C  1  S    0.067509   1.688800   2.306211
    3  C  1  X   -0.032925  -0.097022   0.152313
    4  C  1  Y    0.041196   0.038779  -0.070105
    5  C  1  Z   -0.000011   0.000004  -0.000004
    6  C  1  S    0.209824   1.264223   2.529560
    7  C  1  X   -0.244490   0.085819  -0.149826
    8  C  1  Y   -0.481015  -0.104308   0.169630
    9  C  1  Z    0.000033  -0.000034   0.000012
   10  C  1 XX    0.007794  -0.944370  -1.745507
   11  C  1 YY   -0.088093  -1.097420  -1.550119
   12  C  1 ZZ   -0.002332  -1.160575  -1.481131
   13  C  1 XY    0.075433  -0.098821   0.131605
   14  C  1 XZ   -0.000008  -0.000017   0.000005
   15  C  1 YZ   -0.000014  -0.000007  -0.000003
   16  C  2  S    0.019148  -0.384923   0.283983
   17  C  2  S   -0.390865   2.345620  -1.630306
   18  C  2  X    0.022014   0.197071  -0.070104
   19  C  2  Y   -0.038030   0.104273  -0.177408
   20  C  2  Z   -0.000003   0.000005   0.000000
   21  C  2  S   -2.366040   0.538786  -0.979073
   22  C  2  X    1.201019   0.259843  -0.661936
   23  C  2  Y    1.255556   0.347906  -0.137833
   24  C  2  Z    0.000025  -0.000005  -0.000029
   25  C  2 XX    0.271329  -1.594992   1.505033
   26  C  2 YY    0.107861  -1.520530   1.078818
   27  C  2 ZZ    0.249080  -1.395021   0.977451
   28  C  2 XY    0.027924  -0.201247  -0.022213
   29  C  2 XZ   -0.000001  -0.000005   0.000000
   30  C  2 YZ   -0.000002  -0.000001   0.000006
   31  O  3  S   -0.541523  -0.040893   0.054625
   32  O  3  S   -0.320701   0.040301   0.084633
   33  O  3  X   -0.235982   0.183440  -0.106832
   34  O  3  Y   -0.141948   0.105436  -0.082307
   35  O  3  Z   -0.000004  -0.000000  -0.000005
   36  O  3  S    6.305054   0.706953  -0.989913
   37  O  3  X    1.234836   0.331073  -0.378301
   38  O  3  Y    0.650690   0.210718  -0.318246
   39  O  3  Z    0.000016   0.000013   0.000006
   40  O  3 XX   -1.589367   0.058888   0.010004
   41  O  3 YY   -1.833618  -0.071603   0.047572
   42  O  3 ZZ   -1.866664  -0.169378   0.278641
   43  O  3 XY    0.139084   0.169835  -0.196943
   44  O  3 XZ    0.000003   0.000007  -0.000000
   45  O  3 YZ    0.000001   0.000002  -0.000004
   46  H  4  S    0.033765   0.148287  -0.060969
   47  H  4  S   -0.237046  -0.409288   0.254185
   48  H  5  S   -0.002768   0.085773   0.073012
   49  H  5  S   -0.280191  -0.344577  -0.387507
   50  H  6  S   -0.011571   0.102850   0.046935
   51  H  6  S    0.105303  -0.340072  -0.411261
   52  H  7  S   -0.011544   0.102874   0.046945
   53  H  7  S    0.105270  -0.340042  -0.411304
 ...... END OF RHF CALCULATION ......
 STEP CPU TIME =     4.81 TOTAL CPU TIME =          5.0 (      0.1 MIN)
 TOTAL WALL CLOCK TIME=          5.0 SECONDS, CPU UTILIZATION IS    98.80%

     ---------------------------------------------------------------------
     PROPERTIES FOR THE B3LYP    DFT FUNCTIONAL (RHF  TYPE) DENSITY MATRIX
     ---------------------------------------------------------------------

          -----------------
          ENERGY COMPONENTS
          -----------------

         WAVEFUNCTION NORMALIZATION =       1.0000000000

                ONE ELECTRON ENERGY =    -345.6517883247
                TWO ELECTRON ENERGY =     122.4525714383
           NUCLEAR REPULSION ENERGY =      69.4575812887
                                      ------------------
                       TOTAL ENERGY =    -153.7416355978

 ELECTRON-ELECTRON POTENTIAL ENERGY =     122.4525714383
  NUCLEUS-ELECTRON POTENTIAL ENERGY =    -498.0611009894
   NUCLEUS-NUCLEUS POTENTIAL ENERGY =      69.4575812887
                                      ------------------
             TOTAL POTENTIAL ENERGY =    -306.1509482624
               TOTAL KINETIC ENERGY =     152.4093126647
                 VIRIAL RATIO (V/T) =       2.0087417423

          ---------------------------------------
          MULLIKEN AND LOWDIN POPULATION ANALYSES
          ---------------------------------------

     ATOMIC MULLIKEN POPULATION IN EACH MOLECULAR ORBITAL

                      1          2          3          4          5

                  2.000000   2.000000   2.000000   2.000000   2.000000

    1             0.000003   0.000745   1.997274   0.020625   1.134840
    2            -0.000973   1.999774   0.001113   0.516327   0.436555
    3             2.000982  -0.000951  -0.000001   1.464360   0.085392
    4            -0.000011   0.000407   0.000009  -0.001597   0.023786
    5            -0.000002   0.000009   0.000528  -0.000305   0.092294
    6             0.000000   0.000008   0.000538   0.000294   0.113568
    7             0.000000   0.000008   0.000538   0.000295   0.113565

                      6          7          8          9         10

                  2.000000   2.000000   2.000000   2.000000   2.000000

    1             0.351416   0.528096   0.842895   0.444341   0.730561
    2             0.824516   0.516293   0.343072   0.450130   0.158598
    3             0.271589   0.576515   0.219110   0.970207   0.325508
    4             0.360239   0.133655   0.000000   0.001201   0.124513
    5             0.107062   0.022555   0.000000   0.121285   0.457806
    6             0.042576   0.111375   0.297530   0.006470   0.101439
    7             0.042602   0.111511   0.297393   0.006366   0.101575

                     11         12

                  2.000000   2.000000

    1             0.239367   0.226116
    2             0.403631   0.089924
    3             1.078475   1.382701
    4             0.000000   0.256402
    5             0.000000   0.017028
    6             0.139292   0.013916
    7             0.139234   0.013913

               ----- POPULATIONS IN EACH AO -----
                             MULLIKEN      LOWDIN
              1  C  1  S      1.99185     1.97893
              2  C  1  S      0.67974     0.36737
              3  C  1  X      0.70657     0.63589
              4  C  1  Y      0.72859     0.65461
              5  C  1  Z      0.71211     0.63559
              6  C  1  S      0.65011     0.33540
              7  C  1  X      0.30459     0.41236
              8  C  1  Y      0.35696     0.47638
              9  C  1  Z      0.35886     0.48860
             10  C  1 XX     -0.00208     0.14852
             11  C  1 YY      0.00716     0.15893
             12  C  1 ZZ      0.00544     0.15432
             13  C  1 XY      0.00510     0.00930
             14  C  1 XZ      0.00767     0.01523
             15  C  1 YZ      0.00362     0.00575
             16  C  2  S      1.99195     1.97336
             17  C  2  S      0.73386     0.37108
             18  C  2  X      0.74447     0.65020
             19  C  2  Y      0.74963     0.65227
             20  C  2  Z      0.45270     0.40633
             21  C  2  S      0.46132     0.30959
             22  C  2  X      0.09716     0.28183
             23  C  2  Y      0.18176     0.37348
             24  C  2  Z      0.27764     0.32896
             25  C  2 XX      0.01649     0.21270
             26  C  2 YY      0.01956     0.19444
             27  C  2 ZZ     -0.02709     0.10335
             28  C  2 XY      0.02315     0.04742
             29  C  2 XZ      0.01287     0.02456
             30  C  2 YZ      0.00349     0.00606
             31  O  3  S      1.99265     1.97653
             32  O  3  S      0.91687     0.71866
             33  O  3  X      1.00122     0.93720
             34  O  3  Y      1.08767     1.03820
             35  O  3  Z      0.77177     0.72077
             36  O  3  S      1.00535     0.47829
             37  O  3  X      0.49191     0.57693
             38  O  3  Y      0.59148     0.66067
             39  O  3  Z      0.51462     0.55111
             40  O  3 XX     -0.00296     0.18211
             41  O  3 YY     -0.00958     0.17344
             42  O  3 ZZ     -0.00605     0.17190
             43  O  3 XY      0.00775     0.01615
             44  O  3 XZ      0.00799     0.01034
             45  O  3 YZ      0.00320     0.00416
             46  H  4  S      0.53486     0.50119
             47  H  4  S      0.36374     0.38847
             48  H  5  S      0.52028     0.48113
             49  H  5  S      0.29798     0.34807
             50  H  6  S      0.51792     0.47643
             51  H  6  S      0.30908     0.34949
             52  H  7  S      0.51793     0.47644
             53  H  7  S      0.30907     0.34948

          ----- MULLIKEN ATOMIC OVERLAP POPULATIONS -----
          (OFF-DIAGONAL ELEMENTS NEED TO BE MULTIPLIED BY 2)

             1           2           3           4           5

    1    5.3751122
    2    0.3012267   4.5711602
    3   -0.0779683   0.5883250   7.9152040
    4   -0.1229628   0.3375298  -0.0604385   0.7295832
    5    0.3472675  -0.0212290   0.0059155   0.0061460   0.5214488
    6    0.3467992  -0.0190309   0.0014248   0.0043735  -0.0206400
    7    0.3468055  -0.0190202   0.0014260   0.0043727  -0.0206496

             6           7

    6    0.5406041
    7   -0.0265248   0.5405913

          TOTAL MULLIKEN AND LOWDIN ATOMIC POPULATIONS
       ATOM         MULL.POP.    CHARGE          LOW.POP.     CHARGE
    1 C             6.516280   -0.516280         6.477174   -0.477174
    2 C             5.738962    0.261038         5.935621    0.064379
    3 O             8.373889   -0.373889         8.216493   -0.216493
    4 H             0.898604    0.101396         0.889663    0.110337
    5 H             0.818259    0.181741         0.829205    0.170795
    6 H             0.827006    0.172994         0.825922    0.174078
    7 H             0.827001    0.172999         0.825922    0.174078

          -------------------------------
          BOND ORDER AND VALENCE ANALYSIS     BOND ORDER THRESHOLD=0.050
          -------------------------------

                   BOND                       BOND                       BOND
  ATOM PAIR DIST  ORDER      ATOM PAIR DIST  ORDER      ATOM PAIR DIST  ORDER
    1   2  1.509  0.962        1   5  1.093  0.940        1   6  1.098  0.928
    1   7  1.098  0.928        2   3  1.211  1.987        2   4  1.115  0.883

                       TOTAL       BONDED        FREE
      ATOM            VALENCE     VALENCE     VALENCE
    1 C                 3.760       3.760       0.000
    2 C                 3.827       3.827       0.000
    3 O                 2.082       2.082      -0.000
    4 H                 0.925       0.925      -0.000
    5 H                 0.937       0.937       0.000
    6 H                 0.929       0.929       0.000
    7 H                 0.929       0.929      -0.000

          ---------------------
          ELECTROSTATIC MOMENTS
          ---------------------

 POINT   1           X           Y           Z (BOHR)    CHARGE
                 0.000000   -0.000000    0.000000        0.00 (A.U.)
         DX          DY          DZ         /D/  (DEBYE)
     2.444440    0.993739    0.000007    2.638712
 ...... END OF PROPERTY EVALUATION ......
 STEP CPU TIME =     0.02 TOTAL CPU TIME =          5.0 (      0.1 MIN)
 TOTAL WALL CLOCK TIME=          5.0 SECONDS, CPU UTILIZATION IS    99.00%

 BEGINNING ONE ELECTRON GRADIENT...
 ..... END OF 1-ELECTRON GRADIENT ......
 STEP CPU TIME =     0.00 TOTAL CPU TIME =          5.0 (      0.1 MIN)
 TOTAL WALL CLOCK TIME=          5.0 SECONDS, CPU UTILIZATION IS    98.81%

          ----------------------
          GRADIENT OF THE ENERGY
          ----------------------
 MEMORY FOR GRID POINT CONTRIBUTIONS TO THE DFT GRADIENT=    269593 WORDS.
 STEP CPU TIME =     1.11 TOTAL CPU TIME =          6.1 (      0.1 MIN)
 TOTAL WALL CLOCK TIME=          6.1 SECONDS, CPU UTILIZATION IS    99.02%

 THE MINIMUM MEMORY REQUIRED FOR THIS RUN IS      88877 WORDS.
 USING     991233 WORDS FOR 2E- DERIVATIVE INTEGRAL CONTRIBUTIONS.
 THE COARSE/FINE SCHWARZ SCREENINGS SKIPPED          774/        1273 BLOCKS.
 THE NUMBER OF GRADIENT INTEGRAL BLOCKS COMPUTED WAS     19919
 ...... END OF 2-ELECTRON GRADIENT ......
 STEP CPU TIME =     0.17 TOTAL CPU TIME =          6.2 (      0.1 MIN)
 TOTAL WALL CLOCK TIME=          6.3 SECONDS, CPU UTILIZATION IS    99.05%

          NSERCH=  0     ENERGY=    -153.7416356

                                 -----------------------
                                 GRADIENT (HARTREE/BOHR)
                                 -----------------------
        ATOM     ZNUC       DE/DX         DE/DY         DE/DZ
 --------------------------------------------------------------
    1  C            6.0     0.0000271     0.0000054     0.0000130
    2  C            6.0    -0.0000514    -0.0000205    -0.0000116
    3  O            8.0     0.0000088     0.0000235     0.0000016
    4  H            1.0    -0.0000023     0.0000028     0.0000018
    5  H            1.0     0.0000061    -0.0000022     0.0000062
    6  H            1.0     0.0000039     0.0000038    -0.0000061
    7  H            1.0     0.0000078    -0.0000127    -0.0000049

          MAXIMUM GRADIENT = 0.0000514    RMS GRADIENT = 0.0000157

 NSERCH:   0  E=     -153.7416355978  GRAD. MAX=  0.0000514  R.M.S.=  0.0000157


      ***** EQUILIBRIUM GEOMETRY LOCATED *****
 COORDINATES OF ALL ATOMS ARE (ANGS)
   ATOM   CHARGE       X              Y              Z
 ------------------------------------------------------------
 C           6.0   1.2638976661  -0.1650039640  -0.0000001711
 C           6.0  -0.1271741779   0.4190014512   0.0000111310
 O           8.0  -1.1481748359  -0.2316992628  -0.0000033506
 H           1.0  -0.1660745565   1.5329028565   0.0000323720
 H           1.0   1.2208802964  -1.2568349360   0.0001044839
 H           1.0   1.8162647811   0.1884003910  -0.8812183201
 H           1.0   1.8165203860   0.1884615224   0.8810041436

          INTERNUCLEAR DISTANCES (ANGS.)
          ------------------------------

                1 C          2 C          3 O          4 H          5 H     

   1 C       0.0000000    1.5086892 *  2.4129944 *  2.2198442 *  1.0926781 *
   2 C       1.5086892 *  0.0000000    1.2107245 *  1.1145805 *  2.1507391 *
   3 O       2.4129944 *  1.2107245 *  0.0000000    2.0194904 *  2.5813418 *
   4 H       2.2198442 *  1.1145805 *  2.0194904 *  0.0000000    3.1154904  
   5 H       1.0926781 *  2.1507391 *  2.5813418 *  3.1154904    0.0000000  
   6 H       1.0984305 *  2.1463218 *  3.1210456    2.5522459 *  1.7944129 *
   7 H       1.0984072 *  2.1464496 *  3.1212381    2.5523159 *  1.7943392 *

                6 H          7 H     

   1 C       1.0984305 *  1.0984072 *
   2 C       2.1463218 *  2.1464496 *
   3 O       3.1210456    3.1212381  
   4 H       2.5522459 *  2.5523159 *
   5 H       1.7944129 *  1.7943392 *
   6 H       0.0000000    1.7622225 *
   7 H       1.7622225 *  0.0000000  

  * ... LESS THAN  3.000


          NUCLEAR ENERGY    =       69.4575812887
          ELECTRONIC ENERGY =     -223.1992168865
          TOTAL ENERGY      =     -153.7416355978

 THE INITIAL GEOMETRY IS ALREADY CONVERGED,
 SO ORBITALS/PROPERTY OUTPUT IS ALREADY PRINTED ABOVE
  $VIB   
          IVIB=   0 IATOM=   0 ICOORD=   0 E=     -153.7416355978
  2.712437202E-05 5.381682102E-06 1.302327042E-05-5.139228859E-05-2.054835748E-05
 -1.161377135E-05 8.752257041E-06 2.354222948E-05 1.625842956E-06-2.259082540E-06
  2.752888338E-06 1.752486670E-06 6.105928853E-06-2.205177197E-06 6.156431851E-06
  3.894868274E-06 3.769857829E-06-6.086812131E-06 7.773944942E-06-1.269312308E-05
 -4.857448423E-06
  2.444439623E+00 9.937391821E-01 7.186340940E-06
 ......END OF GEOMETRY SEARCH......
 STEP CPU TIME =     0.00 TOTAL CPU TIME =          6.2 (      0.1 MIN)
 TOTAL WALL CLOCK TIME=          6.3 SECONDS, CPU UTILIZATION IS    98.89%
                991401  WORDS OF DYNAMIC MEMORY USED
 EXECUTION OF GAMESS TERMINATED NORMALLY Wed Oct 16 08:21:19 2019
 DDI: 263640 bytes (0.3 MB / 0 MWords) used by master data server.

 ----------------------------------------
 CPU timing information for all processes
 ========================================
 0: 6.135 + 0.129 = 6.265
 ----------------------------------------
 ddikick.x: exited gracefully.
----- accounting info -----
Files used on the master node crcfe02.crc.nd.edu were:
-rw-r--r-- 1 cdrisko campus      521 Oct 16 08:21 /afs/crc.nd.edu/user/c/cdrisko/acetaldehyde_opt2.F05
-rw-r--r-- 1 cdrisko campus    57689 Oct 16 08:21 /afs/crc.nd.edu/user/c/cdrisko/acetaldehyde_opt2.F07
-rw-r--r-- 1 cdrisko campus 10800960 Oct 16 08:21 /afs/crc.nd.edu/user/c/cdrisko/acetaldehyde_opt2.F08
-rw-r--r-- 1 cdrisko campus  1701440 Oct 16 08:21 /afs/crc.nd.edu/user/c/cdrisko/acetaldehyde_opt2.F10
-rw-r--r-- 1 cdrisko campus  2039576 Oct 16 08:21 /afs/crc.nd.edu/user/c/cdrisko/acetaldehyde_opt2.F22
Wed Oct 16 08:21:22 EDT 2019
0.412u 0.232s 0:09.95 6.4%	0+0k 0+48io 0pf+0w
