----- GAMESS execution script 'rungms' -----
This job is running on host crcfe01.crc.nd.edu
under operating system Linux at Thu Oct 17 19:53:37 EDT 2019
Available scratch disk space (Kbyte units) at beginning of the job is
Filesystem      1K-blocks  Used  Available Use% Mounted on
AFS            2147483647     0 2147483647   0% /afs
GAMESS temporary binary files will be written to /afs/crc.nd.edu/user/c/cdrisko
GAMESS supplementary output files will be written to /afs/crc.nd.edu/user/c/cdrisko/scr
Copying input file acetaldehyde_CIS.inp to your run's scratch directory...

 Distributed Data Interface kickoff program.
 Initiating 1 compute processes on 1 nodes to run the following command:
 /afs/crc.nd.edu/x86_64_linux/g/gamess/nov-2017/gamess/gamess.00.x acetaldehyde_CIS 

          ******************************************************
          *         GAMESS VERSION = 11 NOV 2017 (R3)         *
          *             FROM IOWA STATE UNIVERSITY             *
          * M.W.SCHMIDT, K.K.BALDRIDGE, J.A.BOATZ, S.T.ELBERT, *
          *   M.S.GORDON, J.H.JENSEN, S.KOSEKI, N.MATSUNAGA,   *
          *          K.A.NGUYEN, S.J.SU, T.L.WINDUS,           *
          *       TOGETHER WITH M.DUPUIS, J.A.MONTGOMERY       *
          *         J.COMPUT.CHEM.  14, 1347-1363(1993)        *
          **************** 64 BIT INTEL VERSION ****************

  SINCE 1993, STUDENTS AND POSTDOCS WORKING AT IOWA STATE UNIVERSITY
  AND ALSO IN THEIR VARIOUS JOBS AFTER LEAVING ISU HAVE MADE IMPORTANT
  CONTRIBUTIONS TO THE CODE:
     IVANA ADAMOVIC, CHRISTINE AIKENS, YURI ALEXEEV, POOJA ARORA,
     ANDREY ASADCHEV, ROB BELL, PRADIPTA BANDYOPADHYAY, JONATHAN BENTZ,
     BRETT BODE, KURT BRORSEN, CALEB CARLIN, GALINA CHABAN, WEI CHEN,
     CHEOL HO CHOI, PAUL DAY, ALBERT DEFUSCO, NUWAN DESILVA, TIM DUDLEY,
     DMITRI FEDOROV, ALEX FINDLATER, GRAHAM FLETCHER, MARK FREITAG,
     KURT GLAESEMANN, ANASTASIA GUININA,
     DAN KEMP, GRANT MERRILL, NORIYUKI MINEZAWA, JONATHAN MULLIN,
     TAKESHI NAGATA, SEAN NEDD, HEATHER NETZLOFF, BOSILJKA NJEGIC, RYAN OLSON,
     MIKE PAK, BUU PHAM,
     SPENCER PRUITT, LUKE ROSKOP, JIM SHOEMAKER, LYUDMILA SLIPCHENKO,
     TONY SMITH, SAROM SOK LEANG, JIE SONG, TETSUYA TAKETSUGU, SIMON WEBB,
     PENG XU, SOOHAENG YOO, FEDERICO ZAHARIEV

  ADDITIONAL CODE HAS BEEN PROVIDED BY COLLABORATORS IN OTHER GROUPS:
     IOWA STATE UNIVERSITY:
          JOE IVANIC, AARON WEST, LAIMUTIS BYTAUTAS, KLAUS RUEDENBERG
     UNIVERSITY OF TOKYO: KIMIHIKO HIRAO, TAKAHITO NAKAJIMA,
          TAKAO TSUNEDA, MUNEAKI KAMIYA, SUSUMU YANAGISAWA,
          KIYOSHI YAGI, MAHITO CHIBA, SEIKEN TOKURA, NAOAKI KAWAKAMI
     UNIVERSITY OF AARHUS: FRANK JENSEN
     UNIVERSITY OF IOWA: VISVALDAS KAIRYS, HUI LI
     NATIONAL INST. OF STANDARDS AND TECHNOLOGY: WALT STEVENS, DAVID GARMER
     UNIVERSITY OF PISA: BENEDETTA MENNUCCI, JACOPO TOMASI
     UNIVERSITY OF MEMPHIS: HENRY KURTZ, PRAKASHAN KORAMBATH
     UNIVERSITY OF ALBERTA: TOBY ZENG, MARIUSZ KLOBUKOWSKI
     UNIVERSITY OF NEW ENGLAND: MARK SPACKMAN
     MIE UNIVERSITY: HIROAKI UMEDA
     NAT. INST. OF ADVANCED INDUSTRIAL SCIENCE AND TECHNOLOGY: KAZUO KITAURA
     MICHIGAN STATE UNIVERSITY:
          KAROL KOWALSKI, MARTA WLOCH, JEFFREY GOUR, JESSE LUTZ,
          WEI LI, PIOTR PIECUCH
     UNIVERSITY OF SILESIA: MONIKA MUSIAL, STANISLAW KUCHARSKI
     FACULTES UNIVERSITAIRES NOTRE-DAME DE LA PAIX:
          OLIVIER QUINET, BENOIT CHAMPAGNE
     UNIVERSITY OF CALIFORNIA - SANTA BARBARA: BERNARD KIRTMAN
     INSTITUTE FOR MOLECULAR SCIENCE:
          KAZUYA ISHIMURA, MICHIO KATOUDA, AND SHIGERU NAGASE
     UNIVERSITY OF NOTRE DAME: ANNA POMOGAEVA, DAN CHIPMAN
     KYUSHU UNIVERSITY:
          HARUYUKI NAKANO,
          FENG LONG GU, JACEK KORCHOWIEC, MARCIN MAKOWSKI, AND YURIKO AOKI,
          HIROTOSHI MORI AND EISAKU MIYOSHI
     PENNSYLVANIA STATE UNIVERSITY:
          TZVETELIN IORDANOV, CHET SWALINA, JONATHAN SKONE,
          SHARON HAMMES-SCHIFFER
     WASEDA UNIVERSITY:
          MASATO KOBAYASHI, TOMOKO AKAMA, TSUGUKI TOUMA,
          TAKESHI YOSHIKAWA, YASUHIRO IKABATA, JUNJI SEINO,
          YUYA NAKAJIMA, HIROMI NAKAI
     NANJING UNIVERSITY: SHUHUA LI
     UNIVERSITY OF NEBRASKA:
          PEIFENG SU, DEJUN SI, NANDUN THELLAMUREGE, YALI WANG, HUI LI
     UNIVERSITY OF ZURICH: ROBERTO PEVERATI, KIM BALDRIDGE
     N. COPERNICUS UNIVERSITY AND JACKSON STATE UNIVERSITY:
          MARIA BARYSZ
     UNIVERSITY OF COPENHAGEN: Jimmy Kromann, CASPER STEINMANN
     TOKYO INSTITUTE OF TECHNOLOGY: HIROYA NAKATA
     NAGOYA UNIVERSITY: YOSHIO NISHIMOTO, STEPHAN IRLE
     MOSCOW STATE UNIVERSITY: VLADIMIR MIRONOV

 EXECUTION OF GAMESS BEGUN Thu Oct 17 19:53:37 2019

            ECHO OF THE FIRST FEW INPUT CARDS -
 INPUT CARD> $CONTRL SCFTYP=RHF RUNTYP=ENERGY CITYP=CIS                                     
 INPUT CARD>       ICHARG=0 MULT=1 COORD=CART $END                                          
 INPUT CARD> $BASIS GBASIS=N31 NGAUSS=6 NDFUNC=1 $END                                       
 INPUT CARD> $DATA                                                                          
 INPUT CARD>Title Single Point Energy Calculation of Acetaldehyde                           
 INPUT CARD>C1 1                                                                            
 INPUT CARD>C 6 0.00000000 0.00000000 0.00000000                                            
 INPUT CARD>C 6 -1.39107184 0.58400542 0.00001130                                           
 INPUT CARD>O 8 -2.41207250 -0.06669530 -0.00000318                                         
 INPUT CARD>H 1 -1.42997222 1.69790682 0.00003254                                           
 INPUT CARD>H 1 -0.04301737 -1.09183097 0.00010466                                          
 INPUT CARD>H 1 0.55236712 0.35340436 -0.88121815                                           
 INPUT CARD>H 1 0.55262272 0.35346549 0.88100431                                            
 INPUT CARD> $END                                                                           
    1000000 WORDS OF MEMORY AVAILABLE


                    * * * WARNING * * *
 OLD KEYWORD COORD=CART SELECTED, AUTOMATICALLY CHANGED TO COORD=PRINAXIS.
 YOUR MOLECULE'S COORDINATES WILL BE CHANGED TO PRINCIPAL AXES BY
   A) TRANSLATION TO THE CENTER OF MASS, THEN
   B) ROTATION TO HAVE A DIAGONAL MOMENT OF INERTIA TENSOR.

 HOWEVER, NOTHING ELSE IN YOUR INPUT WILL BE ROTATED IN THE SAME WAY,
 SO IF YOU HAVE A $VEC, $VIB, $GRAD, $HESS, EFP PARTICLE COORDINATES,
 OR ANYTHING ELSE THAT DEPENDS ON THE INITIAL ORIENTATION, THAT DATA
 WILL NOT BE USED CORRECTLY IN THIS RUN.

 THE PURPOSE OF COORD=PRINAXIS IS TO BE USED ONCE, ONLY AT THE VERY
 BEGINNING OF A SERIES OF COMPUTATIONS, PERHAPS TO FIND THE SYMMETRY
 UNIQUE ATOMS FROM AN ARBITRARY INITIAL ORIENTATION.

 AFTER THE FIRST RUN, YOU SHOULD USE ONLY COORD=UNIQUE, TO ENSURE THAT
 THE COORDINATES WHICH YOU READ IN ARE THE COORDINATES THAT ARE USED.


     BASIS OPTIONS
     -------------
     GBASIS=N31          IGAUSS=       6      POLAR=POPN31  
     NDFUNC=       1     NFFUNC=       0     DIFFSP=       F
     NPFUNC=       0      DIFFS=       F     BASNAM=        


     RUN TITLE
     ---------
 Title Single Point Energy Calculation of Acetaldehyde                           

 THE POINT GROUP OF THE MOLECULE IS C1      
 THE ORDER OF THE PRINCIPAL AXIS IS     1

 THE MOMENTS OF INERTIA ARE (AMU-ANGSTROM**2)
 IXX=     8.889   IYY=    50.195   IZZ=    55.954

 ATOM      ATOMIC                      COORDINATES (BOHR)
           CHARGE         X                   Y                   Z
 C           6.0    -2.3884202613        0.3118122839       -0.0000003232
 C           6.0     0.2403243442       -0.7917979385        0.0000210353
 O           8.0     2.1697358264        0.4378481200       -0.0000063326
 H           1.0     0.3138354006       -2.8967663619        0.0000611813
 H           1.0    -2.3071292168        2.3750736420        0.0001974475
 H           1.0    -3.4322427634       -0.3560251246       -1.6652611596
 H           1.0    -3.4327257777       -0.3561406305        1.6648564192

          INTERNUCLEAR DISTANCES (ANGS.)
          ------------------------------

                1 C          2 C          3 O          4 H          5 H     

   1 C       0.0000000    1.5086892 *  2.4129944 *  2.2198442 *  1.0926781 *
   2 C       1.5086892 *  0.0000000    1.2107245 *  1.1145804 *  2.1507391 *
   3 O       2.4129944 *  1.2107245 *  0.0000000    2.0194904 *  2.5813418 *
   4 H       2.2198442 *  1.1145804 *  2.0194904 *  0.0000000    3.1154904  
   5 H       1.0926781 *  2.1507391 *  2.5813418 *  3.1154904    0.0000000  
   6 H       1.0984305 *  2.1463218 *  3.1210456    2.5522459 *  1.7944129 *
   7 H       1.0984072 *  2.1464496 *  3.1212381    2.5523159 *  1.7943392 *

                6 H          7 H     

   1 C       1.0984305 *  1.0984072 *
   2 C       2.1463218 *  2.1464496 *
   3 O       3.1210456    3.1212381  
   4 H       2.5522459 *  2.5523159 *
   5 H       1.7944129 *  1.7943392 *
   6 H       0.0000000    1.7622225 *
   7 H       1.7622225 *  0.0000000  

  * ... LESS THAN  3.000


     ATOMIC BASIS SET
     ----------------
 THE CONTRACTED PRIMITIVE FUNCTIONS HAVE BEEN UNNORMALIZED
 THE CONTRACTED BASIS FUNCTIONS ARE NOW NORMALIZED TO UNITY

  SHELL TYPE  PRIMITIVE        EXPONENT          CONTRACTION COEFFICIENT(S)

 C         

      1   S       1          3047.5248800    0.001834737132
      1   S       2           457.3695180    0.014037322813
      1   S       3           103.9486850    0.068842622264
      1   S       4            29.2101553    0.232184443216
      1   S       5             9.2866630    0.467941348435
      1   S       6             3.1639270    0.362311985337

      2   L       7             7.8682723   -0.119332419775    0.068999066591
      2   L       8             1.8812885   -0.160854151696    0.316423960957
      2   L       9             0.5442493    1.143456437840    0.744308290898

      3   L      10             0.1687145    1.000000000000    1.000000000000

      4   D      11             0.8000000    1.000000000000

 C         

      5   S      12          3047.5248800    0.001834737132
      5   S      13           457.3695180    0.014037322813
      5   S      14           103.9486850    0.068842622264
      5   S      15            29.2101553    0.232184443216
      5   S      16             9.2866630    0.467941348435
      5   S      17             3.1639270    0.362311985337

      6   L      18             7.8682723   -0.119332419775    0.068999066591
      6   L      19             1.8812885   -0.160854151696    0.316423960957
      6   L      20             0.5442493    1.143456437840    0.744308290898

      7   L      21             0.1687145    1.000000000000    1.000000000000

      8   D      22             0.8000000    1.000000000000

 O         

      9   S      23          5484.6716600    0.001831074430
      9   S      24           825.2349460    0.013950172200
      9   S      25           188.0469580    0.068445078098
      9   S      26            52.9645000    0.232714335992
      9   S      27            16.8975704    0.470192897984
      9   S      28             5.7996353    0.358520852987

     10   L      29            15.5396162   -0.110777549525    0.070874268231
     10   L      30             3.5999336   -0.148026262701    0.339752839147
     10   L      31             1.0137618    1.130767015354    0.727158577316

     11   L      32             0.2700058    1.000000000000    1.000000000000

     12   D      33             0.8000000    1.000000000000

 H         

     13   S      34            18.7311370    0.033494604338
     13   S      35             2.8253944    0.234726953484
     13   S      36             0.6401217    0.813757326146

     14   S      37             0.1612778    1.000000000000

 H         

     15   S      38            18.7311370    0.033494604338
     15   S      39             2.8253944    0.234726953484
     15   S      40             0.6401217    0.813757326146

     16   S      41             0.1612778    1.000000000000

 H         

     17   S      42            18.7311370    0.033494604338
     17   S      43             2.8253944    0.234726953484
     17   S      44             0.6401217    0.813757326146

     18   S      45             0.1612778    1.000000000000

 H         

     19   S      46            18.7311370    0.033494604338
     19   S      47             2.8253944    0.234726953484
     19   S      48             0.6401217    0.813757326146

     20   S      49             0.1612778    1.000000000000

 TOTAL NUMBER OF BASIS SET SHELLS             =   20
 NUMBER OF CARTESIAN GAUSSIAN BASIS FUNCTIONS =   53
 NUMBER OF ELECTRONS                          =   24
 CHARGE OF MOLECULE                           =    0
 SPIN MULTIPLICITY                            =    1
 NUMBER OF OCCUPIED ORBITALS (ALPHA)          =   12
 NUMBER OF OCCUPIED ORBITALS (BETA )          =   12
 TOTAL NUMBER OF ATOMS                        =    7
 THE NUCLEAR REPULSION ENERGY IS       69.4575812450

     $CONTRL OPTIONS
     ---------------
 SCFTYP=RHF          RUNTYP=ENERGY       EXETYP=RUN     
 MPLEVL=       0     CITYP =CIS          CCTYP =NONE         VBTYP =NONE    
 DFTTYP=NONE         TDDFT =NONE    
 MULT  =       1     ICHARG=       0     NZVAR =       0     COORD =PRINAXIS
 PP    =NONE         RELWFN=NONE         LOCAL =NONE         NUMGRD=       F
 ISPHER=      -1     NOSYM =       0     MAXIT =      30     UNITS =ANGS    
 PLTORB=       F     MOLPLT=       F     AIMPAC=       F     FRIEND=        
 NPRINT=       7     IREST =       0     GEOM  =INPUT   
 NORMF =       0     NORMP =       0     ITOL  =      20     ICUT  =       9
 INTTYP=BEST         GRDTYP=BEST         QMTTOL= 1.0E-06

     $SYSTEM OPTIONS
     ---------------
  REPLICATED MEMORY=     1000000 WORDS (ON EVERY NODE).
 DISTRIBUTED MEMDDI=           0 MILLION WORDS IN AGGREGATE,
 MEMDDI DISTRIBUTED OVER   1 PROCESSORS IS           0 WORDS/PROCESSOR.
 TOTAL MEMORY REQUESTED ON EACH PROCESSOR=     1000000 WORDS.
 TIMLIM=      525600.00 MINUTES, OR     365.0 DAYS.
 PARALL= F  BALTYP=  DLB     KDIAG=    0  COREFL= F
 MXSEQ2=     300 MXSEQ3=     150  mem10=         0

          ----------------
          PROPERTIES INPUT
          ----------------

     MOMENTS            FIELD           POTENTIAL          DENSITY
 IEMOM =       1   IEFLD =       0   IEPOT =       0   IEDEN =       0
 WHERE =COMASS     WHERE =NUCLEI     WHERE =NUCLEI     WHERE =NUCLEI  
 OUTPUT=BOTH       OUTPUT=BOTH       OUTPUT=BOTH       OUTPUT=BOTH    
 IEMINT=       0   IEFINT=       0                     IEDINT=       0
                                                       MORB  =       0
          EXTRAPOLATION IN EFFECT
          SOSCF IN EFFECT
 ORBITAL PRINTING OPTION: NPREO=     1    53     2     1

     -------------------------------
     INTEGRAL TRANSFORMATION OPTIONS
     -------------------------------
     NWORD  =            0
     CUTOFF = 1.0E-09     MPTRAN =       0
     DIRTRF =       F     AOINTS =DUP     

          ----------------------
          INTEGRAL INPUT OPTIONS
          ----------------------
 NOPK  =       1 NORDER=       0 SCHWRZ=       T

     ------------------------------
     CI-SINGLES CONTROL INFORMATION
     ------------------------------
     NACORE =        3  NBCORE   =        3
     NSTATE =       11  IROOT    =        1
     HAMTYP = SAPS      SAP MULT =        1
     DIAGZN = DAVID     MXVEC    =       88
     NDAVIT =       50  DAVCVG   = 1.00E-05
     CISPRP =        F  NGSVEC   =       22
     MNMEDG =        F  MNMEOP   =        F
     CHFSLV = CONJG     RDCISV   =        F
     DGAPRX =        T

     NUMBER OF CORE -A-  ORBITALS =     3
     NUMBER OF CORE -B-  ORBITALS =     3
     NUMBER OF OCC. -A-  ORBITALS =    12
     NUMBER OF OCC. -B-  ORBITALS =    12
     NUMBER OF MOLECULAR ORBITALS =    53
     NUMBER OF   BASIS  FUNCTIONS =    53


     ------------------------------------------
     THE POINT GROUP IS C1 , NAXIS= 1, ORDER= 1
     ------------------------------------------

     DIMENSIONS OF THE SYMMETRY SUBSPACES ARE
 A   =   53

 ..... DONE SETTING UP THE RUN .....
 STEP CPU TIME =     0.01 TOTAL CPU TIME =          0.0 (      0.0 MIN)
 TOTAL WALL CLOCK TIME=          0.0 SECONDS, CPU UTILIZATION IS    50.00%

          ********************
          1 ELECTRON INTEGRALS
          ********************
 ...... END OF ONE-ELECTRON INTEGRALS ......
 STEP CPU TIME =     0.00 TOTAL CPU TIME =          0.0 (      0.0 MIN)
 TOTAL WALL CLOCK TIME=          0.0 SECONDS, CPU UTILIZATION IS    50.00%

          -------------
          GUESS OPTIONS
          -------------
          GUESS =HUCKEL            NORB  =       0          NORDER=       0
          MIX   =       F          PRTMO =       F          PUNMO =       F
          TOLZ  = 1.0E-08          TOLE  = 1.0E-05
          SYMDEN=       F          PURIFY=       F

 INITIAL GUESS ORBITALS GENERATED BY HUCKEL   ROUTINE.
 HUCKEL GUESS REQUIRES     27154 WORDS.

 SYMMETRIES FOR INITIAL GUESS ORBITALS FOLLOW.   BOTH SET(S).
    12 ORBITALS ARE OCCUPIED (    3 CORE ORBITALS).
     4=A        5=A        6=A        7=A        8=A        9=A       10=A   
    11=A       12=A       13=A       14=A       15=A       16=A       17=A   
    18=A       19=A       20=A       21=A       22=A   
 ...... END OF INITIAL ORBITAL SELECTION ......
 STEP CPU TIME =     0.01 TOTAL CPU TIME =          0.0 (      0.0 MIN)
 TOTAL WALL CLOCK TIME=          0.0 SECONDS, CPU UTILIZATION IS    66.67%

                    ----------------------
                    AO INTEGRAL TECHNOLOGY
                    ----------------------
     S,P,L SHELL ROTATED AXIS INTEGRALS, REPROGRAMMED BY
        KAZUYA ISHIMURA (IMS) AND JOSE SIERRA (SYNSTAR).
     S,P,D,L SHELL ROTATED AXIS INTEGRALS PROGRAMMED BY
        KAZUYA ISHIMURA (INSTITUTE FOR MOLECULAR SCIENCE).
     S,P,D,F,G SHELL TO TOTAL QUARTET ANGULAR MOMENTUM SUM 5,
        ERIC PROGRAM BY GRAHAM FLETCHER (ELORET AND NASA ADVANCED
        SUPERCOMPUTING DIVISION, AMES RESEARCH CENTER).
     S,P,D,F,G,L SHELL GENERAL RYS QUADRATURE PROGRAMMED BY
        MICHEL DUPUIS (PACIFIC NORTHWEST NATIONAL LABORATORY).

          --------------------
          2 ELECTRON INTEGRALS
          --------------------

 THE -PK- OPTION IS OFF, THE INTEGRALS ARE NOT IN SUPERMATRIX FORM.
 STORING   15000 INTEGRALS/RECORD ON DISK, USING 12 BYTES/INTEGRAL.
 TWO ELECTRON INTEGRAL EVALUATION REQUIRES   90606 WORDS OF MEMORY.
 SCHWARZ INEQUALITY OVERHEAD:      1430 INTEGRALS, T=        0.00
 II,JST,KST,LST =  1  1  1  1 NREC =         1 INTLOC =    1
 II,JST,KST,LST =  2  1  1  1 NREC =         1 INTLOC =    2
 II,JST,KST,LST =  3  1  1  1 NREC =         1 INTLOC =   34
 II,JST,KST,LST =  4  1  1  1 NREC =         1 INTLOC =  214
 II,JST,KST,LST =  5  1  1  1 NREC =         1 INTLOC = 1189
 II,JST,KST,LST =  6  1  1  1 NREC =         1 INTLOC = 3098
 II,JST,KST,LST =  7  1  1  1 NREC =         2 INTLOC =  537
 II,JST,KST,LST =  8  1  1  1 NREC =         3 INTLOC = 7459
 II,JST,KST,LST =  9  1  1  1 NREC =         7 INTLOC = 3992
 II,JST,KST,LST = 10  1  1  1 NREC =         7 INTLOC =14001
 II,JST,KST,LST = 11  1  1  1 NREC =        11 INTLOC =12951
 II,JST,KST,LST = 12  1  1  1 NREC =        18 INTLOC =  338
 II,JST,KST,LST = 13  1  1  1 NREC =        30 INTLOC = 3352
 II,JST,KST,LST = 14  1  1  1 NREC =        33 INTLOC = 1638
 II,JST,KST,LST = 15  1  1  1 NREC =        36 INTLOC = 5024
 II,JST,KST,LST = 16  1  1  1 NREC =        39 INTLOC = 7507
 II,JST,KST,LST = 17  1  1  1 NREC =        43 INTLOC = 2776
 II,JST,KST,LST = 18  1  1  1 NREC =        47 INTLOC = 2009
 II,JST,KST,LST = 19  1  1  1 NREC =        51 INTLOC = 7681
 II,JST,KST,LST = 20  1  1  1 NREC =        55 INTLOC =14232
 SCHWARZ INEQUALITY TEST SKIPPED         774 INTEGRAL BLOCKS.
 TOTAL NUMBER OF NONZERO TWO-ELECTRON INTEGRALS =              897882
         60 INTEGRAL RECORDS WERE STORED ON DISK FILE  8.
  ...... END OF TWO-ELECTRON INTEGRALS .....
 STEP CPU TIME =     0.11 TOTAL CPU TIME =          0.1 (      0.0 MIN)
 TOTAL WALL CLOCK TIME=          0.1 SECONDS, CPU UTILIZATION IS    92.86%

          --------------------------
                 RHF SCF CALCULATION
          --------------------------

     NUCLEAR ENERGY =        69.4575812450
     MAXIT =   30     NPUNCH=    2
     EXTRAP=T  DAMP=F  SHIFT=F  RSTRCT=F  DIIS=F  DEM=F  SOSCF=T
     DENSITY MATRIX CONV=  1.00E-06
     SOSCF WILL OPTIMIZE     492 ORBITAL ROTATIONS, SOGTOL=   0.250
     MEMORY REQUIRED FOR RHF ITERS=     52373 WORDS.

 ITER EX DEM     TOTAL ENERGY        E CHANGE  DENSITY CHANGE     ORB. GRAD
   1  0  0     -152.4495341568  -152.4495341568   0.312237775   0.000000000
          ---------------START SECOND ORDER SCF---------------
   2  1  0     -152.8574862024    -0.4079520456   0.168731249   0.075290854
   3  2  0     -152.8817298546    -0.0242436523   0.070593672   0.060969382
   4  3  0     -152.9138155402    -0.0320856856   0.011999631   0.004944163
   5  4  0     -152.9143028863    -0.0004873461   0.006219132   0.002229870
   6  5  0     -152.9143619411    -0.0000590547   0.001597882   0.000792096
   7  6  0     -152.9143667335    -0.0000047924   0.000602142   0.000190142
   8  7  0     -152.9143673470    -0.0000006135   0.000162276   0.000051692
   9  8  0     -152.9143674173    -0.0000000703   0.000066167   0.000021603
  10  9  0     -152.9143674232    -0.0000000059   0.000014980   0.000004526
  11 10  0     -152.9143674237    -0.0000000005   0.000002854   0.000001435
  12 11  0     -152.9143674237    -0.0000000000   0.000000866   0.000000194
  13 12  0     -152.9143674237    -0.0000000000   0.000000231   0.000000046

          -----------------
          DENSITY CONVERGED
          -----------------
     TIME TO FORM FOCK OPERATORS=       0.2 SECONDS (       0.0 SEC/ITER)
     TIME TO SOLVE SCF EQUATIONS=       0.0 SECONDS (       0.0 SEC/ITER)

 FINAL RHF ENERGY IS     -152.9143674237 AFTER  13 ITERATIONS

          ------------
          EIGENVECTORS
          ------------

                      1          2          3          4          5
                  -20.5679   -11.3397   -11.2436    -1.3910    -1.0184
                     A          A          A          A          A   
    1  C  1  S    0.000001   0.003214   0.995697  -0.016333  -0.176775
    2  C  1  S    0.000012   0.000246   0.028674   0.030326   0.328171
    3  C  1  X   -0.000014  -0.000151   0.000082   0.025273   0.037188
    4  C  1  Y   -0.000021   0.000066  -0.000209  -0.004808  -0.029216
    5  C  1  Z   -0.000000  -0.000000  -0.000000   0.000000  -0.000002
    6  C  1  S   -0.000162   0.002596  -0.015336   0.013312   0.325075
    7  C  1  X   -0.000105   0.001325  -0.000808   0.004246   0.005648
    8  C  1  Y    0.000125  -0.000926   0.000541   0.007571  -0.008162
    9  C  1  Z   -0.000000   0.000000   0.000000  -0.000001  -0.000002
   10  C  1 XX   -0.000035  -0.000513  -0.001919   0.007412   0.008904
   11  C  1 YY    0.000029  -0.000208  -0.001880  -0.000023   0.008146
   12  C  1 ZZ   -0.000015  -0.000068  -0.001919  -0.000531   0.007649
   13  C  1 XY   -0.000039   0.000158  -0.000004  -0.002059  -0.001546
   14  C  1 XZ    0.000000  -0.000000  -0.000000   0.000000  -0.000002
   15  C  1 YZ    0.000000  -0.000000  -0.000000   0.000000   0.000002
   16  C  2  S   -0.000003   0.995752  -0.003526  -0.113134  -0.080562
   17  C  2  S    0.000440   0.026577  -0.000037   0.215657   0.167283
   18  C  2  X   -0.000087   0.000500  -0.000058   0.145399  -0.175362
   19  C  2  Y   -0.000055   0.000394  -0.000072   0.096615  -0.003308
   20  C  2  Z   -0.000000  -0.000000  -0.000000  -0.000003  -0.000000
   21  C  2  S   -0.000211  -0.008064   0.003810   0.074341   0.114760
   22  C  2  X   -0.000550   0.002378  -0.002018  -0.014667  -0.033510
   23  C  2  Y   -0.000287   0.000953   0.000971  -0.016860  -0.016080
   24  C  2  Z    0.000000  -0.000000   0.000000   0.000000  -0.000001
   25  C  2 XX   -0.000587  -0.001130  -0.000522   0.017683   0.009895
   26  C  2 YY   -0.000266  -0.001669  -0.000182  -0.001181   0.005085
   27  C  2 ZZ   -0.000023  -0.002483  -0.000166  -0.016757  -0.005880
   28  C  2 XY   -0.000388   0.000497   0.000144   0.025470  -0.015067
   29  C  2 XZ    0.000000  -0.000000  -0.000000  -0.000001   0.000000
   30  C  2 YZ    0.000000  -0.000000   0.000000  -0.000001  -0.000000
   31  O  3  S    0.994698  -0.000362  -0.000022  -0.195669   0.053334
   32  O  3  S    0.020962   0.000393  -0.000152   0.434628  -0.121614
   33  O  3  X   -0.001321  -0.000233   0.000039  -0.116335  -0.032101
   34  O  3  Y   -0.000832  -0.000164  -0.000010  -0.072784   0.008238
   35  O  3  Z    0.000000   0.000000   0.000000   0.000002  -0.000001
   36  O  3  S    0.004553  -0.001630   0.000396   0.385942  -0.132987
   37  O  3  X    0.000004   0.001068  -0.000009  -0.043252  -0.016077
   38  O  3  Y   -0.000020   0.000863  -0.000320  -0.025420   0.002667
   39  O  3  Z    0.000000  -0.000000  -0.000000   0.000001   0.000000
   40  O  3 XX   -0.003652  -0.000053  -0.000030   0.013068   0.001802
   41  O  3 YY   -0.003784  -0.000072   0.000008   0.003751  -0.003263
   42  O  3 ZZ   -0.004197   0.000253  -0.000181  -0.001382   0.000144
   43  O  3 XY    0.000173  -0.000082   0.000061   0.010836  -0.000281
   44  O  3 XZ   -0.000000   0.000000   0.000000  -0.000000   0.000000
   45  O  3 YZ   -0.000000   0.000000  -0.000000  -0.000000   0.000000
   46  H  4  S   -0.000030  -0.000081  -0.000123   0.027804   0.053729
   47  H  4  S   -0.000133   0.002147   0.000224  -0.009686   0.006733
   48  H  5  S    0.000005  -0.000060   0.000142   0.007279   0.103813
   49  H  5  S   -0.000065   0.000262   0.002453  -0.002243   0.018425
   50  H  6  S    0.000016  -0.000143   0.000139   0.005107   0.112151
   51  H  6  S   -0.000027   0.000255   0.002567   0.000479   0.023130
   52  H  7  S    0.000016  -0.000143   0.000139   0.005107   0.112150
   53  H  7  S   -0.000027   0.000255   0.002567   0.000480   0.023129

                      6          7          8          9         10
                   -0.7987    -0.6706    -0.6209    -0.6016    -0.5594
                     A          A          A          A          A   
    1  C  1  S    0.071133  -0.013471   0.014211   0.000006  -0.003746
    2  C  1  S   -0.129771   0.020437  -0.022257  -0.000007   0.009718
    3  C  1  X    0.125504  -0.208557   0.228533   0.000101   0.138797
    4  C  1  Y   -0.098480  -0.100357  -0.152199  -0.000020   0.377909
    5  C  1  Z   -0.000008   0.000013  -0.000169   0.385163  -0.000039
    6  C  1  S   -0.189881   0.042173  -0.058132  -0.000029   0.012531
    7  C  1  X    0.037602  -0.090723   0.105501   0.000047   0.077432
    8  C  1  Y   -0.020519  -0.064679  -0.083003  -0.000009   0.225443
    9  C  1  Z   -0.000004   0.000005  -0.000089   0.205337  -0.000020
   10  C  1 XX    0.008869  -0.010157   0.012625   0.000011  -0.010900
   11  C  1 YY   -0.008749  -0.003566  -0.009831   0.000003   0.032959
   12  C  1 ZZ   -0.008956   0.015749  -0.008920  -0.000018  -0.022226
   13  C  1 XY   -0.012204   0.006910  -0.014207  -0.000004  -0.006178
   14  C  1 XZ    0.000003  -0.000005   0.000012  -0.019982   0.000007
   15  C  1 YZ   -0.000001  -0.000003   0.000008  -0.020977   0.000008
   16  C  2  S   -0.134511   0.038669  -0.005682  -0.000010  -0.000872
   17  C  2  S    0.283452  -0.096696   0.001449   0.000019  -0.005005
   18  C  2  X   -0.002563   0.013779  -0.370607  -0.000172  -0.046489
   19  C  2  Y   -0.188056  -0.326821  -0.007590  -0.000016  -0.160545
   20  C  2  Z    0.000002   0.000006  -0.000065   0.187203  -0.000018
   21  C  2  S    0.279104  -0.031844   0.071728   0.000051   0.039537
   22  C  2  X   -0.041017   0.037440  -0.098435  -0.000051  -0.005768
   23  C  2  Y   -0.086901  -0.095946   0.025997   0.000006  -0.079124
   24  C  2  Z    0.000001   0.000001  -0.000031   0.094434  -0.000011
   25  C  2 XX   -0.004169  -0.000419  -0.006243  -0.000005  -0.010463
   26  C  2 YY    0.019498   0.006010   0.009440   0.000009   0.016688
   27  C  2 ZZ   -0.010862   0.004311   0.003793   0.000000   0.001038
   28  C  2 XY   -0.001581  -0.007218  -0.014026  -0.000007  -0.017834
   29  C  2 XZ    0.000000   0.000000   0.000001   0.001425  -0.000001
   30  C  2 YZ   -0.000001   0.000000  -0.000004   0.010228  -0.000001
   31  O  3  S    0.071993  -0.052444  -0.048031  -0.000018  -0.009507
   32  O  3  S   -0.167043   0.120550   0.105394   0.000037   0.016854
   33  O  3  X   -0.102364   0.376963   0.199838   0.000083   0.203107
   34  O  3  Y   -0.161353  -0.067644   0.378741   0.000184  -0.000063
   35  O  3  Z    0.000002  -0.000002  -0.000073   0.194054  -0.000029
   36  O  3  S   -0.226368   0.209142   0.227779   0.000098   0.071981
   37  O  3  X   -0.054656   0.216524   0.107543   0.000042   0.121728
   38  O  3  Y   -0.082164  -0.043258   0.225172   0.000112  -0.002319
   39  O  3  Z    0.000001  -0.000001  -0.000048   0.129538  -0.000020
   40  O  3 XX    0.000518  -0.026402  -0.006166  -0.000003  -0.013803
   41  O  3 YY    0.005098   0.012563  -0.014158  -0.000008   0.004077
   42  O  3 ZZ   -0.002064   0.004278   0.003712   0.000001   0.000657
   43  O  3 XY    0.011494  -0.005363  -0.022006  -0.000010  -0.004119
   44  O  3 XZ   -0.000000   0.000000   0.000006  -0.015714   0.000002
   45  O  3 YZ   -0.000000  -0.000000   0.000004  -0.009664   0.000001
   46  H  4  S    0.204085   0.133831   0.008737   0.000023   0.102357
   47  H  4  S    0.090672   0.100911   0.012393   0.000023   0.083956
   48  H  5  S   -0.104796  -0.049673  -0.100304   0.000005   0.257008
   49  H  5  S   -0.052148  -0.021271  -0.051596   0.000009   0.190699
   50  H  6  S   -0.072152   0.092973  -0.056812  -0.200086  -0.124249
   51  H  6  S   -0.031243   0.059674  -0.041051  -0.151931  -0.098766
   52  H  7  S   -0.072170   0.093016  -0.057006   0.199971  -0.124339
   53  H  7  S   -0.031248   0.059700  -0.041188   0.151841  -0.098840

                     11         12         13         14         15
                   -0.4998    -0.4220     0.1547     0.2458     0.2753
                     A          A          A          A          A   
    1  C  1  S   -0.000002   0.030995  -0.000004  -0.124526  -0.080251
    2  C  1  S    0.000004  -0.059471  -0.000003   0.077603   0.062769
    3  C  1  X    0.000005  -0.234283  -0.000008  -0.181702   0.073647
    4  C  1  Y    0.000003   0.088498  -0.000002  -0.015525   0.094662
    5  C  1  Z   -0.203800  -0.000034   0.005793  -0.000054  -0.000026
    6  C  1  S    0.000012  -0.199683   0.000069   2.316178   1.410851
    7  C  1  X    0.000001  -0.152998  -0.000028  -0.626721   0.319053
    8  C  1  Y   -0.000003   0.062684   0.000003   0.024272   0.106187
    9  C  1  Z   -0.121844  -0.000030   0.114976  -0.000238  -0.000124
   10  C  1 XX   -0.000004  -0.010224  -0.000005  -0.005609   0.000732
   11  C  1 YY   -0.000002   0.006440  -0.000003  -0.006899  -0.011372
   12  C  1 ZZ    0.000007   0.005172   0.000005  -0.014558   0.001503
   13  C  1 XY   -0.000001   0.009874   0.000001  -0.005389   0.011854
   14  C  1 XZ    0.021298   0.000000   0.035292  -0.000002  -0.000002
   15  C  1 YZ    0.010023   0.000001  -0.005986   0.000000  -0.000002
   16  C  2  S    0.000004   0.004109   0.000005  -0.024136   0.099106
   17  C  2  S   -0.000009  -0.021700  -0.000010   0.084180  -0.090313
   18  C  2  X    0.000018   0.124071   0.000016  -0.006299   0.052824
   19  C  2  Y    0.000005  -0.169721   0.000004  -0.115398   0.240429
   20  C  2  Z    0.261613   0.000002   0.423532   0.000004  -0.000007
   21  C  2  S   -0.000015   0.018861  -0.000038   0.203879  -1.707363
   22  C  2  X    0.000013  -0.008401   0.000019   0.022485   0.398337
   23  C  2  Y    0.000002  -0.046012   0.000020  -0.433346   0.778353
   24  C  2  Z    0.179556   0.000002   0.676924   0.000043   0.000008
   25  C  2 XX    0.000003  -0.045106   0.000000   0.004551   0.003666
   26  C  2 YY   -0.000003   0.048956  -0.000000   0.007390   0.010517
   27  C  2 ZZ   -0.000001  -0.001482   0.000001  -0.003095   0.002907
   28  C  2 XY    0.000000   0.021884   0.000000  -0.000557  -0.009442
   29  C  2 XZ    0.034427   0.000002  -0.026297   0.000001   0.000001
   30  C  2 YZ    0.017122  -0.000001  -0.016688  -0.000002  -0.000002
   31  O  3  S    0.000000   0.000094  -0.000001  -0.010873   0.001493
   32  O  3  S    0.000002  -0.004288   0.000003   0.013846   0.024459
   33  O  3  X    0.000015  -0.288679  -0.000011  -0.038154  -0.012077
   34  O  3  Y   -0.000031   0.449065  -0.000001   0.059070  -0.039811
   35  O  3  Z    0.462207   0.000014  -0.368626  -0.000004   0.000005
   36  O  3  S   -0.000007   0.016663  -0.000004   0.169003  -0.154751
   37  O  3  X    0.000014  -0.230392  -0.000011  -0.124014   0.041046
   38  O  3  Y   -0.000021   0.353095  -0.000002   0.080051  -0.110596
   39  O  3  Z    0.339135   0.000011  -0.506856  -0.000010  -0.000001
   40  O  3 XX   -0.000001   0.013111   0.000001   0.002997   0.012440
   41  O  3 YY    0.000002  -0.015050   0.000000  -0.005509   0.008563
   42  O  3 ZZ    0.000001  -0.001535   0.000001  -0.004885   0.004435
   43  O  3 XY    0.000001  -0.007880   0.000000   0.004698  -0.002689
   44  O  3 XZ   -0.031545  -0.000001   0.000646   0.000001   0.000001
   45  O  3 YZ   -0.020059  -0.000000   0.000401  -0.000000  -0.000001
   46  H  4  S   -0.000008   0.186347   0.000003   0.033785   0.049202
   47  H  4  S   -0.000009   0.242471   0.000030  -0.625799   1.805501
   48  H  5  S   -0.000006   0.034946  -0.000009   0.001461  -0.024951
   49  H  5  S   -0.000002   0.083303  -0.000055  -0.746351  -0.980037
   50  H  6  S    0.123333   0.037440   0.094080  -0.007930   0.015664
   51  H  6  S    0.120412   0.057463   0.320017  -1.292711  -0.196096
   52  H  7  S   -0.123308   0.037427  -0.094071  -0.007909   0.015684
   53  H  7  S   -0.120390   0.057448  -0.319998  -1.292444  -0.195752

                     16         17         18         19         20
                    0.3004     0.3030     0.4195     0.4461     0.7448
                     A          A          A          A          A   
    1  C  1  S   -0.004069   0.000027  -0.060397   0.045841   0.000005
    2  C  1  S    0.004841  -0.000023  -0.022597  -0.022600  -0.000116
    3  C  1  X   -0.026392   0.000034   0.021626  -0.123181  -0.000211
    4  C  1  Y   -0.262679  -0.000026  -0.131633  -0.103535   0.000243
    5  C  1  Z    0.000029  -0.335709  -0.000030   0.000009  -0.435113
    6  C  1  S   -0.058533  -0.000547   1.759266  -0.599267  -0.000051
    7  C  1  X   -0.261599   0.000116   1.534637  -1.401801  -0.000177
    8  C  1  Y   -1.437454  -0.000140  -0.957670  -0.434070  -0.000336
    9  C  1  Z    0.000095  -1.547550  -0.000114   0.000051   0.909083
   10  C  1 XX   -0.007775   0.000006  -0.020928   0.037784  -0.000035
   11  C  1 YY    0.021261   0.000003  -0.009574  -0.032663   0.000001
   12  C  1 ZZ   -0.010538  -0.000004   0.018971  -0.004998   0.000008
   13  C  1 XY    0.004506  -0.000001   0.022863  -0.004953  -0.000005
   14  C  1 XZ    0.000003  -0.001650  -0.000002  -0.000001   0.037135
   15  C  1 YZ    0.000005  -0.010305   0.000001  -0.000004   0.067808
   16  C  2  S    0.060084  -0.000007   0.034868  -0.069318  -0.000033
   17  C  2  S   -0.042303   0.000023  -0.087972   0.022566  -0.000153
   18  C  2  X    0.005084  -0.000039   0.286378  -0.151480   0.000073
   19  C  2  Y    0.060834   0.000019  -0.192127   0.244738   0.000040
   20  C  2  Z   -0.000016   0.068223  -0.000001   0.000001  -0.831838
   21  C  2  S   -1.182786  -0.000028  -0.450630   2.325531   0.000664
   22  C  2  X   -0.109067  -0.000150   2.366172   0.891684  -0.000148
   23  C  2  Y    0.394235   0.000021  -0.366903   1.843275   0.000273
   24  C  2  Z   -0.000062   0.499713   0.000035  -0.000049   0.601481
   25  C  2 XX    0.021950   0.000002  -0.002111   0.024651  -0.000052
   26  C  2 YY   -0.004016   0.000001  -0.002496   0.000300  -0.000041
   27  C  2 ZZ   -0.007695  -0.000002   0.000154   0.008275   0.000025
   28  C  2 XY    0.018787  -0.000000   0.002320   0.007798   0.000028
   29  C  2 XZ   -0.000002   0.008311   0.000001  -0.000000  -0.007851
   30  C  2 YZ    0.000004  -0.019501  -0.000002   0.000001   0.004372
   31  O  3  S   -0.025013  -0.000003   0.059893   0.095155   0.000014
   32  O  3  S    0.032101  -0.000012  -0.027228  -0.038539  -0.000049
   33  O  3  X   -0.071991   0.000013  -0.024342   0.121610   0.000014
   34  O  3  Y   -0.086593  -0.000028   0.106099   0.014546   0.000004
   35  O  3  Z    0.000002  -0.053529  -0.000005  -0.000005  -0.030665
   36  O  3  S    0.321875   0.000112  -1.338455  -2.126871  -0.000199
   37  O  3  X   -0.145416  -0.000008   0.202876   0.872708   0.000169
   38  O  3  Y   -0.185892  -0.000058   0.571274   0.291251   0.000018
   39  O  3  Z    0.000022  -0.172257  -0.000020  -0.000006   0.005376
   40  O  3 XX   -0.006983  -0.000004   0.007195   0.010269  -0.000006
   41  O  3 YY   -0.002089  -0.000005   0.032305   0.035444  -0.000011
   42  O  3 ZZ   -0.015383  -0.000007   0.037566   0.071227   0.000005
   43  O  3 XY    0.003703   0.000000  -0.027212  -0.041888   0.000008
   44  O  3 XZ   -0.000001   0.007992   0.000001  -0.000000   0.049109
   45  O  3 YZ    0.000001  -0.003870   0.000000   0.000001   0.046198
   46  H  4  S   -0.014192  -0.000002   0.002921  -0.065762  -0.000145
   47  H  4  S    0.827165   0.000022  -0.646976   0.814903   0.000075
   48  H  5  S    0.088679   0.000003  -0.005070  -0.126691   0.000097
   49  H  5  S    1.809876   0.000511   0.426615   0.617007  -0.000050
   50  H  6  S   -0.033449  -0.031295   0.088708  -0.028812   0.312653
   51  H  6  S   -0.737770  -1.597177  -0.034549  -0.486979   0.176245
   52  H  7  S   -0.033476   0.031264   0.088706  -0.028747  -0.312728
   53  H  7  S   -0.738286   1.597320  -0.034213  -0.487414  -0.176429

                     21         22         23         24         25
                    0.7577     0.7923     0.8060     0.9100     0.9690
                     A          A          A          A          A   
    1  C  1  S   -0.016956   0.009424   0.000001  -0.020901  -0.033275
    2  C  1  S    0.255775  -0.117148   0.000047   0.170740  -0.025212
    3  C  1  X    0.672453  -0.564681   0.000099   0.428210   0.042323
    4  C  1  Y   -0.577871  -0.384190  -0.000028   0.265541  -0.112564
    5  C  1  Z   -0.000085  -0.000143  -0.624108   0.000015  -0.000013
    6  C  1  S    0.148537  -0.443617  -0.000034  -1.052289  -0.277601
    7  C  1  X   -0.309611   0.702166  -0.000329  -1.468480  -0.759632
    8  C  1  Y    0.921191   1.214701   0.000097  -0.859292   0.407576
    9  C  1  Z    0.000340   0.000288   1.508524   0.000069   0.000019
   10  C  1 XX    0.047068  -0.012428  -0.000008  -0.023979  -0.084794
   11  C  1 YY   -0.032469  -0.104417  -0.000006  -0.000070   0.031404
   12  C  1 ZZ    0.035468   0.084747   0.000028   0.001185  -0.000443
   13  C  1 XY   -0.020287   0.025851  -0.000022   0.111059  -0.024858
   14  C  1 XZ    0.000014  -0.000012   0.069169   0.000021   0.000006
   15  C  1 YZ    0.000019  -0.000007   0.069896   0.000017  -0.000011
   16  C  2  S    0.075577  -0.013065  -0.000000  -0.001512   0.031068
   17  C  2  S    0.236048  -0.006306  -0.000047   0.225511  -1.016842
   18  C  2  X   -0.124870   0.098941  -0.000010   0.724765  -0.242665
   19  C  2  Y   -0.046045  -0.091092   0.000095  -0.485301  -0.728803
   20  C  2  Z   -0.000375   0.000006   0.677505   0.000046   0.000033
   21  C  2  S   -0.692529  -0.403425   0.000416   0.547864   1.499980
   22  C  2  X    0.352415  -1.140021   0.000049  -0.980146  -0.417517
   23  C  2  Y   -0.472311   0.062848  -0.000083   2.337695   1.153957
   24  C  2  Z    0.000302  -0.000085  -1.241007  -0.000138  -0.000056
   25  C  2 XX    0.138721  -0.079776   0.000015   0.037368   0.070401
   26  C  2 YY    0.069238   0.026454  -0.000013   0.075361  -0.119272
   27  C  2 ZZ   -0.061548   0.010861  -0.000004  -0.010938  -0.072786
   28  C  2 XY   -0.071861  -0.004091  -0.000003  -0.072907   0.124108
   29  C  2 XZ   -0.000007   0.000003  -0.006479  -0.000007  -0.000005
   30  C  2 YZ   -0.000000  -0.000001   0.045310   0.000010   0.000003
   31  O  3  S   -0.020557  -0.014087   0.000005   0.029828  -0.036363
   32  O  3  S    0.151848  -0.037594   0.000023  -0.121996   0.100262
   33  O  3  X   -0.082965   0.182929  -0.000039   0.133880  -0.208869
   34  O  3  Y    0.052257  -0.176489   0.000045  -0.130218  -0.208370
   35  O  3  Z   -0.000012   0.000002   0.036425   0.000006   0.000023
   36  O  3  S    0.082142   0.732291  -0.000169  -0.433944  -0.236257
   37  O  3  X   -0.231523  -0.152414   0.000068   0.508765  -0.129008
   38  O  3  Y    0.033328  -0.244061   0.000049   0.029306  -0.199968
   39  O  3  Z   -0.000003   0.000025   0.174442   0.000016  -0.000005
   40  O  3 XX    0.023408   0.026963   0.000005  -0.055909  -0.152259
   41  O  3 YY    0.048327  -0.018605   0.000007   0.020042   0.017739
   42  O  3 ZZ    0.013840  -0.029651   0.000015  -0.037017   0.080081
   43  O  3 XY   -0.014670   0.005552  -0.000001   0.060985  -0.102074
   44  O  3 XZ    0.000024  -0.000003  -0.062591  -0.000006   0.000002
   45  O  3 YZ    0.000020   0.000002  -0.009483   0.000001   0.000001
   46  H  4  S    0.261771   0.298324  -0.000053   0.269645  -0.216358
   47  H  4  S   -0.162512   0.078246  -0.000046   1.068449   0.529069
   48  H  5  S   -0.293175  -0.403280  -0.000012  -0.038377  -0.119883
   49  H  5  S   -0.103762  -0.233671  -0.000077   0.471920  -0.432813
   50  H  6  S    0.034565   0.272436   0.317804  -0.051456  -0.208540
   51  H  6  S    0.150594   0.113015   0.161255  -0.454358  -0.061441
   52  H  7  S    0.034327   0.272412  -0.317807  -0.051547  -0.208539
   53  H  7  S    0.150369   0.112972  -0.161359  -0.454506  -0.061441

                     26         27         28         29         30
                    0.9760     1.1026     1.1124     1.1156     1.1863
                     A          A          A          A          A   
    1  C  1  S   -0.037864  -0.011109  -0.013170   0.000004  -0.019474
    2  C  1  S    0.060340  -0.047439  -0.282825   0.000559   0.654315
    3  C  1  X    0.102511   0.138360   0.261867  -0.000144  -0.029707
    4  C  1  Y   -0.456336   0.223225   0.368693  -0.000221   0.639359
    5  C  1  Z    0.000094   0.000327  -0.000806  -0.877618   0.000115
    6  C  1  S   -0.516881  -0.060923   0.608535  -0.001278  -1.185527
    7  C  1  X   -0.561971  -0.409306  -0.586987   0.000322   0.303668
    8  C  1  Y    1.412607  -0.287801  -0.697182   0.000488  -0.528022
    9  C  1  Z   -0.000265  -0.000493   0.001108   1.232048  -0.000186
   10  C  1 XX   -0.104449  -0.018978   0.023611   0.000030   0.091358
   11  C  1 YY    0.005837  -0.028386  -0.113193   0.000131  -0.146384
   12  C  1 ZZ    0.055822   0.010174   0.028294  -0.000066   0.174426
   13  C  1 XY   -0.011977   0.050028   0.081682  -0.000040  -0.092633
   14  C  1 XZ   -0.000014   0.000062  -0.000188  -0.195853   0.000001
   15  C  1 YZ   -0.000029   0.000026  -0.000091  -0.088664  -0.000041
   16  C  2  S   -0.041738   0.046614  -0.047479   0.000070   0.011695
   17  C  2  S   -0.682038  -0.906596  -0.730991   0.000378   0.201889
   18  C  2  X    0.740371   0.019365  -0.049835   0.000103  -0.036569
   19  C  2  Y    0.362714   0.555264   0.076352   0.000112   0.001361
   20  C  2  Z   -0.000003   0.000001  -0.000007  -0.018779  -0.000000
   21  C  2  S    2.429831   2.235663   0.954202  -0.000010  -0.391696
   22  C  2  X   -1.354735  -0.030980  -0.007935  -0.000042  -0.023103
   23  C  2  Y   -0.983754  -0.710277  -0.254025   0.000020  -0.612476
   24  C  2  Z    0.000079   0.000034  -0.000075  -0.058247   0.000025
   25  C  2 XX   -0.040025  -0.038165  -0.237001   0.000229   0.078366
   26  C  2 YY   -0.175905   0.115474  -0.026034   0.000065  -0.039314
   27  C  2 ZZ    0.029643  -0.157438   0.030765  -0.000095   0.003462
   28  C  2 XY   -0.047337   0.095166  -0.184950   0.000190   0.017347
   29  C  2 XZ    0.000004  -0.000031   0.000081   0.085404  -0.000016
   30  C  2 YZ   -0.000006   0.000009  -0.000037  -0.045514   0.000005
   31  O  3  S    0.024562  -0.011085   0.009023  -0.000012  -0.013747
   32  O  3  S   -0.112986  -0.177166   0.441901  -0.000429  -0.101701
   33  O  3  X    0.028029  -0.287879   0.474178  -0.000558  -0.215954
   34  O  3  Y    0.134546  -0.263651   0.289460  -0.000362  -0.042204
   35  O  3  Z    0.000022   0.000064  -0.000181  -0.183467  -0.000000
   36  O  3  S    0.233011   0.078886  -0.733011   0.000622   0.511851
   37  O  3  X    0.274135   0.441966  -0.814040   0.000941   0.101362
   38  O  3  Y    0.195902   0.323562  -0.462851   0.000580   0.157492
   39  O  3  Z   -0.000037  -0.000050   0.000149   0.139631   0.000002
   40  O  3 XX    0.017734  -0.079499   0.244620  -0.000253  -0.091428
   41  O  3 YY    0.002100  -0.159477   0.188188  -0.000211  -0.014114
   42  O  3 ZZ   -0.018707  -0.052141   0.180832  -0.000177  -0.068079
   43  O  3 XY    0.082581  -0.085133   0.046265  -0.000062   0.002716
   44  O  3 XZ    0.000002   0.000008  -0.000021  -0.019639   0.000001
   45  O  3 YZ   -0.000006   0.000003  -0.000000  -0.001535   0.000001
   46  H  4  S   -0.433150   0.778605   0.102921   0.000175  -0.381500
   47  H  4  S   -0.559117  -1.654233  -0.576216  -0.000047  -0.014014
   48  H  5  S   -0.116516  -0.101862  -0.292509   0.000203  -0.951102
   49  H  5  S   -0.661797   0.301885   0.644066  -0.000345   1.463190
   50  H  6  S   -0.168961   0.015345   0.122372  -0.671637   0.061277
   51  H  6  S    0.041618  -0.249116  -0.632970   1.296561   0.076236
   52  H  7  S   -0.168907   0.014907   0.123678   0.671222   0.061209
   53  H  7  S    0.041922  -0.248229  -0.635513  -1.295088   0.076472

                     31         32         33         34         35
                    1.1986     1.2940     1.3529     1.4798     1.6678
                     A          A          A          A          A   
    1  C  1  S    0.027935   0.000012  -0.033203  -0.144892  -0.000033
    2  C  1  S   -1.185653   0.000149  -0.149988  -1.838292  -0.000368
    3  C  1  X    0.466134  -0.000007  -0.111954  -0.114153  -0.000042
    4  C  1  Y    0.096641  -0.000032  -0.039142   0.056235   0.000021
    5  C  1  Z   -0.000082   0.143325   0.000011  -0.000060   0.145650
    6  C  1  S    2.407625  -0.000503  -0.109116   6.474011   0.001291
    7  C  1  X   -0.595482  -0.000088  -0.173717   1.327578   0.000208
    8  C  1  Y    0.167833   0.000119  -0.088713  -0.402808  -0.000089
    9  C  1  Z    0.000124  -0.139203  -0.000038   0.000074   0.040520
   10  C  1 XX   -0.158634  -0.000004  -0.028193  -0.021342  -0.000007
   11  C  1 YY   -0.120469   0.000013  -0.023922  -0.095655  -0.000056
   12  C  1 ZZ    0.075751   0.000021   0.004945  -0.179119   0.000012
   13  C  1 XY    0.005465  -0.000006   0.034448  -0.066379  -0.000085
   14  C  1 XZ   -0.000073   0.028079   0.000013   0.000089  -0.347740
   15  C  1 YZ   -0.000024   0.050657  -0.000015  -0.000128   0.486364
   16  C  2  S   -0.007390  -0.000006   0.003169   0.038767   0.000006
   17  C  2  S    0.034560  -0.000093   0.077258   0.596736   0.000094
   18  C  2  X    0.004309   0.000004   0.132532  -0.031088   0.000004
   19  C  2  Y   -0.110337   0.000009  -0.256361   0.071101  -0.000003
   20  C  2  Z    0.000007   0.132941   0.000020   0.000041  -0.031644
   21  C  2  S   -0.139759   0.000395  -0.485840  -3.573573  -0.000794
   22  C  2  X   -0.264922  -0.000142  -0.710786   1.645666   0.000219
   23  C  2  Y   -0.053188   0.000032   1.296600  -1.524375  -0.000251
   24  C  2  Z   -0.000036  -0.549842  -0.000066  -0.000132   0.072605
   25  C  2 XX    0.015901   0.000003  -0.133211   0.024885   0.000011
   26  C  2 YY   -0.041217  -0.000022   0.162400   0.100826   0.000018
   27  C  2 ZZ    0.038351   0.000007  -0.007311  -0.108820  -0.000036
   28  C  2 XY    0.091626  -0.000002   0.051328  -0.039504  -0.000023
   29  C  2 XZ    0.000016  -0.084374  -0.000013  -0.000092   0.564132
   30  C  2 YZ   -0.000011  -0.007666  -0.000002   0.000029  -0.175991
   31  O  3  S   -0.012004   0.000001  -0.003458  -0.015468  -0.000007
   32  O  3  S   -0.159017   0.000013  -0.064870  -0.196512  -0.000119
   33  O  3  X   -0.238198   0.000020  -0.420102   0.117562   0.000031
   34  O  3  Y   -0.005252  -0.000046   0.727326  -0.119338   0.000005
   35  O  3  Z   -0.000040  -0.956879  -0.000066  -0.000072  -0.088232
   36  O  3  S    0.491831  -0.000063   0.184807   0.867906   0.000393
   37  O  3  X    0.229173  -0.000003   0.691820  -0.551539  -0.000167
   38  O  3  Y   -0.012105   0.000057  -1.281278   0.348299  -0.000020
   39  O  3  Z    0.000043   1.242571   0.000098   0.000155  -0.091265
   40  O  3 XX   -0.086297  -0.000003   0.074821  -0.012645  -0.000026
   41  O  3 YY   -0.068674   0.000005  -0.100417   0.048591   0.000005
   42  O  3 ZZ   -0.055537   0.000015  -0.029211  -0.223757  -0.000071
   43  O  3 XY   -0.012581   0.000003  -0.052648  -0.019132  -0.000021
   44  O  3 XZ   -0.000002   0.039261   0.000005   0.000019  -0.098652
   45  O  3 YZ   -0.000001   0.031379   0.000005   0.000028  -0.271059
   46  H  4  S   -0.334687  -0.000019   0.160914   0.031522   0.000027
   47  H  4  S    0.319763  -0.000011   0.678387  -0.425036  -0.000048
   48  H  5  S    0.070597   0.000053  -0.146331  -0.501557  -0.000145
   49  H  5  S   -0.520328  -0.000017   0.091487  -0.719707  -0.000136
   50  H  6  S    0.615087   0.106271  -0.175793  -0.545028   0.142624
   51  H  6  S   -1.108087  -0.271114  -0.027574  -0.542103  -0.066415
   52  H  7  S    0.615326  -0.106187  -0.175791  -0.544940  -0.142917
   53  H  7  S   -1.108504   0.271200  -0.027529  -0.542235   0.066167

                     36         37         38         39         40
                    1.7263     1.8113     1.9794     2.1063     2.1089
                     A          A          A          A          A   
    1  C  1  S    0.013702   0.000003   0.041125   0.023414  -0.000055
    2  C  1  S    0.199277   0.000023   0.258291  -0.369092   0.000886
    3  C  1  X    0.041919  -0.000006  -0.117021  -0.283534   0.000663
    4  C  1  Y   -0.067944  -0.000016  -0.057002   0.062633  -0.000086
    5  C  1  Z   -0.000033   0.041916   0.000008   0.000174   0.067443
    6  C  1  S   -0.598837  -0.000106  -1.512440  -0.165332   0.000258
    7  C  1  X    0.183762   0.000082  -0.274840   0.063597  -0.000306
    8  C  1  Y    0.766784   0.000143   0.641129  -0.095751  -0.000062
    9  C  1  Z    0.000096  -0.320643  -0.000054  -0.000912  -0.323593
   10  C  1 XX    0.015044   0.000021   0.448408   0.369783  -0.001057
   11  C  1 YY    0.009551   0.000016  -0.100891  -0.214604   0.000552
   12  C  1 ZZ    0.002589  -0.000034  -0.355199  -0.147689   0.000465
   13  C  1 XY   -0.083003   0.000038   0.439102  -0.045347  -0.000239
   14  C  1 XZ   -0.000016   0.098876   0.000052  -0.000793  -0.340193
   15  C  1 YZ   -0.000055  -0.025874   0.000196   0.001102   0.417558
   16  C  2  S   -0.035229  -0.000003  -0.027181   0.015497  -0.000043
   17  C  2  S   -0.160721  -0.000038  -0.469102  -0.206081   0.000434
   18  C  2  X   -0.108873  -0.000003   0.029305   0.021948   0.000055
   19  C  2  Y    0.010815   0.000003  -0.062886   0.082421  -0.000205
   20  C  2  Z    0.000002  -0.197083   0.000015   0.000253   0.102352
   21  C  2  S   -2.482381  -0.000032   1.654945   0.108489   0.000207
   22  C  2  X   -2.019617  -0.000152  -0.947133  -0.527612   0.001474
   23  C  2  Y   -1.606355  -0.000182  -0.397235   0.622799  -0.000894
   24  C  2  Z    0.000025   0.212259   0.000043   0.000524   0.203619
   25  C  2 XX   -0.068552  -0.000004   0.019778   0.300410  -0.000612
   26  C  2 YY    0.051101   0.000034   0.283613  -0.370329   0.000851
   27  C  2 ZZ    0.003057  -0.000031  -0.335192   0.044141  -0.000202
   28  C  2 XY   -0.256850  -0.000006  -0.230472  -0.271379   0.000683
   29  C  2 XZ   -0.000032   0.143350  -0.000047  -0.000414  -0.155806
   30  C  2 YZ   -0.000015   0.722701  -0.000027  -0.000140  -0.071918
   31  O  3  S   -0.110531  -0.000006  -0.011364  -0.003572   0.000025
   32  O  3  S   -1.809548  -0.000074   0.101872   0.089016  -0.000085
   33  O  3  X    0.246015  -0.000003  -0.171609  -0.245131   0.000654
   34  O  3  Y    0.169774   0.000001  -0.061236   0.179997  -0.000371
   35  O  3  Z    0.000008  -0.123229   0.000029   0.000217   0.086027
   36  O  3  S    5.820192   0.000297   0.152435  -0.046151  -0.000649
   37  O  3  X   -1.648258  -0.000065   0.163011   0.305679  -0.000547
   38  O  3  Y   -0.992100  -0.000037   0.017808  -0.347501   0.000853
   39  O  3  Z    0.000026  -0.100395  -0.000026  -0.000293  -0.116315
   40  O  3 XX   -0.562666  -0.000022   0.096620  -0.497782   0.001329
   41  O  3 YY   -0.386800  -0.000008   0.356092   0.263116  -0.000476
   42  O  3 ZZ   -0.440449  -0.000032  -0.444310   0.279253  -0.000861
   43  O  3 XY   -0.128285  -0.000020  -0.203238   0.370973  -0.000997
   44  O  3 XZ    0.000019  -0.504650   0.000047  -0.000525  -0.218771
   45  O  3 YZ    0.000018   0.043247   0.000029   0.001984   0.803146
   46  H  4  S   -0.026730  -0.000042  -0.497472   0.476987  -0.001028
   47  H  4  S   -0.308308  -0.000067  -0.276047   0.114179  -0.000121
   48  H  5  S    0.004629  -0.000006   0.136158   0.185761  -0.000430
   49  H  5  S   -0.255050  -0.000047  -0.150198  -0.039156   0.000219
   50  H  6  S    0.097018  -0.067099   0.180356   0.068818  -0.015718
   51  H  6  S    0.194385  -0.141593   0.128212  -0.054026  -0.127945
   52  H  7  S    0.097033   0.067159   0.180346   0.068933   0.015382
   53  H  7  S    0.194288   0.141674   0.128324  -0.053262   0.128072

                     41         42         43         44         45
                    2.1410     2.3736     2.3761     2.4790     2.6252
                     A          A          A          A          A   
    1  C  1  S    0.044469   0.000003  -0.009662   0.007686  -0.000005
    2  C  1  S    0.221863  -0.000211   0.075794   0.146090  -0.000041
    3  C  1  X   -0.089649  -0.000009   0.032750   0.042227   0.000073
    4  C  1  Y    0.145102   0.000120  -0.046101   0.123329   0.000013
    5  C  1  Z   -0.000032  -0.084970  -0.000181   0.000021  -0.105110
    6  C  1  S   -1.606781   0.000364   0.042210  -0.546448   0.000257
    7  C  1  X   -0.714946   0.000816  -0.264113  -0.025851   0.000309
    8  C  1  Y   -0.543421   0.000308  -0.132035   0.621716   0.000028
    9  C  1  Z    0.000128  -0.608175  -0.001241   0.000230  -0.227748
   10  C  1 XX   -0.246189   0.000439  -0.282960  -0.227164   0.000037
   11  C  1 YY    0.048997   0.000332  -0.121508   0.847815  -0.000089
   12  C  1 ZZ    0.171852  -0.000819   0.421884  -0.613397   0.000049
   13  C  1 XY   -0.647933  -0.000863   0.376817   0.221189  -0.000167
   14  C  1 XZ    0.000085   0.087197   0.000202   0.000016   0.974970
   15  C  1 YZ   -0.000315   0.735287   0.001475  -0.000024   0.374613
   16  C  2  S   -0.022459  -0.000062   0.032870  -0.036992   0.000007
   17  C  2  S   -0.330171  -0.000431   0.254985   0.007419  -0.000012
   18  C  2  X    0.227656   0.000630  -0.303388  -0.046278   0.000099
   19  C  2  Y   -0.012574  -0.000258   0.147835   0.174471  -0.000013
   20  C  2  Z   -0.000051   0.055917   0.000112  -0.000011  -0.079897
   21  C  2  S    1.950827   0.000668  -0.599484   0.266691  -0.000401
   22  C  2  X   -0.063016   0.000261  -0.059029  -0.334813   0.000073
   23  C  2  Y    1.718755  -0.000668   0.218768   0.080452  -0.000288
   24  C  2  Z   -0.000105   0.380615   0.000756  -0.000095  -0.024338
   25  C  2 XX    0.328749   0.000433  -0.208540   0.255167   0.000053
   26  C  2 YY   -0.126242   0.000550  -0.312148  -0.268941  -0.000102
   27  C  2 ZZ   -0.246102  -0.001321   0.689335  -0.068991   0.000060
   28  C  2 XY   -0.035190   0.000175  -0.025868   0.429248   0.000102
   29  C  2 XZ    0.000031  -0.359830  -0.000690   0.000067   0.234033
   30  C  2 YZ    0.000055   0.502509   0.000992  -0.000096  -0.385638
   31  O  3  S    0.037264   0.000000  -0.001179  -0.006433  -0.000001
   32  O  3  S    0.354199  -0.000207   0.042357  -0.286083  -0.000122
   33  O  3  X    0.054418   0.000446  -0.186200   0.213162   0.000065
   34  O  3  Y    0.162635   0.000171  -0.064742   0.246618   0.000028
   35  O  3  Z   -0.000034   0.080909   0.000159  -0.000014  -0.015045
   36  O  3  S   -1.844720  -0.000099   0.190700   0.385088   0.000288
   37  O  3  X    0.599272  -0.000236   0.053423  -0.057530  -0.000135
   38  O  3  Y   -0.055241   0.000197  -0.113333  -0.290409   0.000017
   39  O  3  Z    0.000043  -0.207966  -0.000409   0.000038   0.055521
   40  O  3 XX    0.222549   0.000320  -0.153849  -0.199581   0.000077
   41  O  3 YY    0.460178  -0.001260   0.612807   0.166066  -0.000100
   42  O  3 ZZ   -0.431368   0.000686  -0.366121  -0.206312  -0.000028
   43  O  3 XY   -0.223607   0.000269  -0.145868   0.104371  -0.000077
   44  O  3 XZ    0.000075   0.461450   0.000895  -0.000054  -0.232481
   45  O  3 YZ   -0.000349  -0.233181  -0.000446   0.000020   0.141007
   46  H  4  S    0.289908  -0.000684   0.382580   0.231346   0.000036
   47  H  4  S    0.414767  -0.000281   0.103187  -0.034885  -0.000107
   48  H  5  S    0.253030  -0.000347   0.079434  -0.702005  -0.000008
   49  H  5  S    0.333213  -0.000056   0.034250   0.016057  -0.000013
   50  H  6  S    0.172152  -0.410325  -0.255910   0.300936  -0.564768
   51  H  6  S   -0.098642  -0.064867   0.009224   0.058583   0.128428
   52  H  7  S    0.172130   0.411345  -0.254179   0.300730   0.564938
   53  H  7  S   -0.098797   0.064861   0.009418   0.058523  -0.128390

                     46         47         48         49         50
                    2.6867     2.8860     2.9213     3.2049     3.3173
                     A          A          A          A          A   
    1  C  1  S    0.047275   0.048280   0.000001  -0.038512  -0.023415
    2  C  1  S    0.285121  -0.030274   0.000044   0.206566   0.120752
    3  C  1  X   -0.156476  -0.255431   0.000017   0.233703   0.076152
    4  C  1  Y    0.002981   0.108568  -0.000008  -0.144069  -0.048696
    5  C  1  Z   -0.000027  -0.000015   0.033148   0.000003  -0.000006
    6  C  1  S   -1.721362  -1.179113  -0.000065   0.200533   0.195916
    7  C  1  X   -0.938562  -0.631590   0.000021   0.193124   0.171080
    8  C  1  Y    0.045856   0.217605  -0.000010  -0.218866   0.110915
    9  C  1  Z   -0.000075  -0.000040   0.028852  -0.000018   0.000009
   10  C  1 XX   -0.420936  -0.723718   0.000064   0.192348   0.000772
   11  C  1 YY   -0.191311   0.719357  -0.000071   0.005241  -0.017939
   12  C  1 ZZ    0.662095   0.112087  -0.000009  -0.321847  -0.129857
   13  C  1 XY    0.346816   0.069594  -0.000000  -0.514714  -0.149246
   14  C  1 XZ    0.000063   0.000147   0.141642   0.000051   0.000024
   15  C  1 YZ    0.000036   0.000085  -0.164036   0.000003   0.000011
   16  C  2  S   -0.105161  -0.004607  -0.000002   0.068347  -0.032356
   17  C  2  S   -0.060754   0.003404  -0.000017   0.063456  -1.323977
   18  C  2  X   -0.261624  -0.206995   0.000019   0.323724  -1.105907
   19  C  2  Y    0.141663   0.064757  -0.000003   0.150041  -0.709551
   20  C  2  Z   -0.000009   0.000013   0.256053  -0.000005   0.000014
   21  C  2  S    1.784785   1.352427  -0.000017  -0.281692  -1.644876
   22  C  2  X   -0.528338  -0.581076   0.000008   0.297174  -0.645666
   23  C  2  Y    0.874030   0.615037  -0.000011   0.516477  -0.572517
   24  C  2  Z    0.000014   0.000019   0.226009  -0.000003   0.000014
   25  C  2 XX    0.224350  -0.080111   0.000028  -0.827108  -0.617510
   26  C  2 YY    0.341054   0.320294  -0.000019   0.942948   0.156418
   27  C  2 ZZ   -0.851753  -0.138427  -0.000018   0.221565   0.439825
   28  C  2 XY    0.247120  -0.886931   0.000086   0.482366  -0.493301
   29  C  2 XZ   -0.000009   0.000112   0.886658   0.000007   0.000015
   30  C  2 YZ   -0.000035  -0.000002   0.444207  -0.000020   0.000004
   31  O  3  S    0.005582   0.010185  -0.000000  -0.001940  -0.045574
   32  O  3  S   -0.179785   0.580957  -0.000049   0.302125  -0.672392
   33  O  3  X    0.246398  -0.392133   0.000034   0.015716  -0.281112
   34  O  3  Y    0.197224  -0.189073   0.000019  -0.048233  -0.195719
   35  O  3  Z   -0.000002   0.000006  -0.017632   0.000002   0.000005
   36  O  3  S   -0.315645  -0.928947   0.000060  -0.780896   2.929642
   37  O  3  X    0.138972   0.540573  -0.000038   0.576576  -1.459582
   38  O  3  Y   -0.307470   0.082205  -0.000019  -0.106795  -0.963186
   39  O  3  Z   -0.000002  -0.000045  -0.442418  -0.000006   0.000020
   40  O  3 XX   -0.372622  -0.064859   0.000016  -0.837634   0.777206
   41  O  3 YY    0.248912   0.086996   0.000007   0.637448   0.057491
   42  O  3 ZZ   -0.016220   0.285164  -0.000047   0.103246  -0.661665
   43  O  3 XY    0.380090   0.041060   0.000011   0.124137   1.172973
   44  O  3 XZ   -0.000014   0.000062   0.830370   0.000004  -0.000026
   45  O  3 YZ   -0.000001   0.000064   0.571038  -0.000005  -0.000017
   46  H  4  S   -0.189198  -0.220785   0.000018  -0.268486  -0.018106
   47  H  4  S    0.243523   0.264574  -0.000016   0.430397  -0.015424
   48  H  5  S    0.275022  -0.338066   0.000057  -0.000549  -0.019010
   49  H  5  S    0.067422   0.177137  -0.000005   0.090634  -0.051010
   50  H  6  S   -0.167139   0.092358   0.013863   0.111636   0.031107
   51  H  6  S    0.057671  -0.056652   0.026199  -0.032526   0.014907
   52  H  7  S   -0.166947   0.092585  -0.013835   0.111683   0.031146
   53  H  7  S    0.057594  -0.056735  -0.026154  -0.032519   0.014880

                     51         52         53
                    4.2281     4.4836     4.7507
                     A          A          A   
    1  C  1  S   -0.004089  -0.286240  -0.402777
    2  C  1  S    0.052019   1.666310   2.367952
    3  C  1  X    0.029069   0.102308  -0.151994
    4  C  1  Y   -0.039739  -0.041932   0.070173
    5  C  1  Z   -0.000011   0.000004  -0.000004
    6  C  1  S    0.187481   1.184652   2.493817
    7  C  1  X    0.234459  -0.083445   0.150914
    8  C  1  Y    0.463470   0.110773  -0.166492
    9  C  1  Z    0.000033  -0.000033   0.000010
   10  C  1 XX    0.012120  -0.912668  -1.759438
   11  C  1 YY   -0.074821  -1.065542  -1.571399
   12  C  1 ZZ    0.008850  -1.129845  -1.503763
   13  C  1 XY    0.074692  -0.099602   0.127757
   14  C  1 XZ    0.000008   0.000017  -0.000004
   15  C  1 YZ    0.000014   0.000007   0.000003
   16  C  2  S    0.025821  -0.386604   0.274752
   17  C  2  S   -0.408925   2.394760  -1.603688
   18  C  2  X   -0.000017  -0.201639   0.063242
   19  C  2  Y    0.051303  -0.108266   0.175845
   20  C  2  Z   -0.000003   0.000005   0.000000
   21  C  2  S   -2.286388   0.504839  -0.947000
   22  C  2  X   -1.155260  -0.280831   0.647985
   23  C  2  Y   -1.203383  -0.355753   0.124919
   24  C  2  Z    0.000024  -0.000004  -0.000028
   25  C  2 XX    0.299680  -1.624158   1.470530
   26  C  2 YY    0.134773  -1.536185   1.050982
   27  C  2 ZZ    0.262235  -1.401998   0.949382
   28  C  2 XY    0.036346  -0.200663  -0.023283
   29  C  2 XZ    0.000001   0.000005  -0.000000
   30  C  2 YZ    0.000002   0.000001  -0.000006
   31  O  3  S   -0.536689  -0.048448   0.054714
   32  O  3  S   -0.254060   0.041563   0.076788
   33  O  3  X    0.242614  -0.187614   0.106044
   34  O  3  Y    0.146499  -0.108742   0.082037
   35  O  3  Z   -0.000004   0.000000  -0.000005
   36  O  3  S    6.111935   0.793405  -0.968622
   37  O  3  X   -1.178681  -0.345410   0.363525
   38  O  3  Y   -0.620759  -0.221080   0.307810
   39  O  3  Z    0.000015   0.000013   0.000006
   40  O  3 XX   -1.593268   0.035953   0.016572
   41  O  3 YY   -1.817094  -0.092936   0.050863
   42  O  3 ZZ   -1.840470  -0.196058   0.276056
   43  O  3 XY    0.120664   0.172880  -0.189177
   44  O  3 XZ   -0.000003  -0.000007  -0.000000
   45  O  3 YZ   -0.000000  -0.000003   0.000004
   46  H  4  S    0.028813   0.148275  -0.058068
   47  H  4  S   -0.221022  -0.402798   0.237808
   48  H  5  S   -0.003734   0.082766   0.074600
   49  H  5  S   -0.266569  -0.330154  -0.381764
   50  H  6  S   -0.012051   0.100887   0.048953
   51  H  6  S    0.104678  -0.321073  -0.405087
   52  H  7  S   -0.012025   0.100911   0.048963
   53  H  7  S    0.104645  -0.321043  -0.405128
 ...... END OF RHF CALCULATION ......
 STEP CPU TIME =     0.20 TOTAL CPU TIME =          0.3 (      0.0 MIN)
 TOTAL WALL CLOCK TIME=          0.4 SECONDS, CPU UTILIZATION IS    91.67%

     ----------------------------------------------------------------
     PROPERTY VALUES FOR THE RHF   SELF-CONSISTENT FIELD WAVEFUNCTION
     ----------------------------------------------------------------

          -----------------
          ENERGY COMPONENTS
          -----------------

         WAVEFUNCTION NORMALIZATION =       1.0000000000

                ONE ELECTRON ENERGY =    -345.2765602807
                TWO ELECTRON ENERGY =     122.9046116120
           NUCLEAR REPULSION ENERGY =      69.4575812450
                                      ------------------
                       TOTAL ENERGY =    -152.9143674237

 ELECTRON-ELECTRON POTENTIAL ENERGY =     122.9046116120
  NUCLEUS-ELECTRON POTENTIAL ENERGY =    -497.7640925207
   NUCLEUS-NUCLEUS POTENTIAL ENERGY =      69.4575812450
                                      ------------------
             TOTAL POTENTIAL ENERGY =    -305.4018996636
               TOTAL KINETIC ENERGY =     152.4875322399
                 VIRIAL RATIO (V/T) =       2.0027991481

          ---------------------------------------
          MULLIKEN AND LOWDIN POPULATION ANALYSES
          ---------------------------------------

               ----- POPULATIONS IN EACH AO -----
                             MULLIKEN      LOWDIN
              1  C  1  S      1.99659     1.98082
              2  C  1  S      0.62856     0.35418
              3  C  1  X      0.68419     0.62021
              4  C  1  Y      0.70560     0.64013
              5  C  1  Z      0.69165     0.62307
              6  C  1  S      0.67842     0.33687
              7  C  1  X      0.30261     0.41406
              8  C  1  Y      0.40821     0.49109
              9  C  1  Z      0.40828     0.50632
             10  C  1 XX      0.01360     0.15265
             11  C  1 YY      0.02334     0.16192
             12  C  1 ZZ      0.02000     0.15581
             13  C  1 XY      0.00688     0.01115
             14  C  1 XZ      0.01006     0.01698
             15  C  1 YZ      0.00516     0.00669
             16  C  2  S      1.99675     1.97522
             17  C  2  S      0.69566     0.36240
             18  C  2  X      0.73241     0.64764
             19  C  2  Y      0.72619     0.63942
             20  C  2  Z      0.38510     0.34945
             21  C  2  S      0.45636     0.30691
             22  C  2  X      0.08357     0.28095
             23  C  2  Y      0.21737     0.38383
             24  C  2  Z      0.26177     0.31949
             25  C  2 XX      0.04283     0.22170
             26  C  2 YY      0.04138     0.20218
             27  C  2 ZZ     -0.02348     0.09879
             28  C  2 XY      0.02696     0.04984
             29  C  2 XZ      0.01611     0.02888
             30  C  2 YZ      0.00503     0.00804
             31  O  3  S      1.99559     1.97777
             32  O  3  S      0.91650     0.71505
             33  O  3  X      0.98741     0.93069
             34  O  3  Y      1.08301     1.04083
             35  O  3  Z      0.75110     0.70764
             36  O  3  S      0.94718     0.47027
             37  O  3  X      0.52838     0.59187
             38  O  3  Y      0.63709     0.67978
             39  O  3  Z      0.59108     0.60914
             40  O  3 XX      0.01301     0.18679
             41  O  3 YY      0.00612     0.17803
             42  O  3 ZZ      0.00115     0.17004
             43  O  3 XY      0.00869     0.01640
             44  O  3 XZ      0.01019     0.01125
             45  O  3 YZ      0.00412     0.00457
             46  H  4  S      0.53243     0.50303
             47  H  4  S      0.32619     0.37654
             48  H  5  S      0.51531     0.48145
             49  H  5  S      0.27536     0.34441
             50  H  6  S      0.51423     0.47831
             51  H  6  S      0.29723     0.35058
             52  H  7  S      0.51424     0.47831
             53  H  7  S      0.29721     0.35057

          ----- MULLIKEN ATOMIC OVERLAP POPULATIONS -----
          (OFF-DIAGONAL ELEMENTS NEED TO BE MULTIPLIED BY 2)

             1           2           3           4           5

    1    5.3180291
    2    0.3144809   4.4979214
    3   -0.0715948   0.5589009   8.0369452
    4   -0.0935647   0.3811871  -0.0513154   0.6125055
    5    0.3739554  -0.0313547   0.0053234   0.0040493   0.4747240
    6    0.3709263  -0.0285691   0.0011824   0.0028806  -0.0180110
    7    0.3709296  -0.0285569   0.0011832   0.0028802  -0.0180196

             6           7

    6    0.5089928
    7   -0.0259400   0.5089761

          TOTAL MULLIKEN AND LOWDIN ATOMIC POPULATIONS
       ATOM         MULL.POP.    CHARGE          LOW.POP.     CHARGE
    1 C             6.583162   -0.583162         6.471933   -0.471933
    2 C             5.664010    0.335990         5.874728    0.125272
    3 O             8.480625   -0.480625         8.290128   -0.290128
    4 H             0.858623    0.141377         0.879570    0.120430
    5 H             0.790667    0.209333         0.825868    0.174132
    6 H             0.811462    0.188538         0.828888    0.171112
    7 H             0.811452    0.188548         0.828885    0.171115

          ---------------------
          ELECTROSTATIC MOMENTS
          ---------------------

 POINT   1           X           Y           Z (BOHR)    CHARGE
                -0.000000    0.000000   -0.000000       -0.00 (A.U.)
         DX          DY          DZ         /D/  (DEBYE)
    -2.819825   -1.303292    0.000032    3.106443
 ...... END OF PROPERTY EVALUATION ......
 STEP CPU TIME =     0.00 TOTAL CPU TIME =          0.3 (      0.0 MIN)
 TOTAL WALL CLOCK TIME=          0.4 SECONDS, CPU UTILIZATION IS    89.19%

          ---------------------------------------------
             ATOMIC ORBITAL BASIS CI-SINGLES ENERGY
             PROGRAM WRITTEN BY SIMON P. WEBB
          ---------------------------------------------

 # CORE ORBITALS      =    3
 # OCCUPIED ORBITALS  =    9
 # MOLECULAR ORBITALS =   53
 # BASIS FUNCTIONS    =   53

 NUMBER OF CIS SPIN-ADAPTED ANTISYMMETRIZED PRODUCTS (SAPS) IS     369

 APPROXIMATING CIS HAMILTONIAN DIAGONAL ELEMENTS USING ONLY ORBITAL ENERGIES

 -CIS- HAM. DIAGONAL ELEMENTS  TOOK      0.000 SECONDS

 MIN MEMORY REQ. FOR CIS ENERGY FOCK-LIKE BUILDS =      5618 WORDS
 MEMORY REQ. FOR SINGLE BATCH BUILDS             =    123596 WORDS
 MEMORY AVAILABLE                                =    864469 WORDS

 SINGLE BATCH ENERGY CALCULATION WILL BE PERFORMED

 UNIT VECTOR GUESS AT CIS COEFFICIENTS ...

 -----------------------------------------------------------------
 USING DAVIDSON ALGORITHM TO FIND CIS EIGENVALUES AND EIGENVECTORS
 -----------------------------------------------------------------

 NUMBER OF STATES REQUESTED =    11
 NUMBER OF GUESS VECTORS    =    22
 MAX. NUMB. OF EXPAN. VECS. =    88
 MAX. NUMB. OF ITERATIONS   =    50
 CONVERGENCE CRITERION      =    1.0E-05

 STARTING DAVIDSON ITERATIONS

 STATE      ITERATION      ENERGY         RESIDUE NORM
   1            1     -152.7161196332     0.12546412
   2            1     -152.5215640185     0.14324014
   3            1     -152.4931291253     0.21044236
   4            1     -152.4809636916     0.11262884
   5            1     -152.4529574279     0.14172653
   6            1     -152.4388134388     0.07762365
   7            1     -152.4266889481     0.09104204
   8            1     -152.4066083531     0.08557146
   9            1     -152.3990055020     0.07741986
  10            1     -152.3957888483     0.07662081
  11            1     -152.3869886556     0.16091060

   1            2     -152.7312936264     0.00881887
   2            2     -152.5470534515     0.02308396
   3            2     -152.5368258273     0.05722107
   4            2     -152.5033943964     0.02622225
   5            2     -152.4696515630     0.03018542
   6            2     -152.4510752730     0.02268961
   7            2     -152.4376887544     0.02292057
   8            2     -152.4158712282     0.01672366
   9            2     -152.4147199327     0.02985523
  10            2     -152.4087271495     0.02659377
  11            2     -152.4065187732     0.02886850

   1            3     -152.7313484632     0.00105263
   2            3     -152.5475434561     0.00522513
   3            3     -152.5424759617     0.01671881
   4            3     -152.5043292145     0.00783993
   5            3     -152.4710898703     0.00993509
   6            3     -152.4517935490     0.00586096
   7            3     -152.4385305011     0.00757452
   8            3     -152.4163072507     0.00655610
   9            3     -152.4162138568     0.00604258
  10            3     -152.4100230596     0.01076712
  11            3     -152.4084411365     0.01284431

   1            4     -152.7313492418     0.00010930
   2            4     -152.5475801680     0.00142906
   3            4     -152.5429022317     0.00476033
   4            4     -152.5043975367     0.00172394
   5            4     -152.4712725467     0.00349194
   6            4     -152.4518525945     0.00259180
   7            4     -152.4386274171     0.00303798
   8            4     -152.4164163790     0.00451694
   9            4     -152.4162831568     0.00298091
  10            4     -152.4103427524     0.00705576
  11            4     -152.4089609070     0.00941983

   1            5     -152.7313492519     0.00001515
   2            5     -152.5475821876     0.00024030
   3            5     -152.5429263064     0.00132646
   4            5     -152.5044019832     0.00052639
   5            5     -152.4712904210     0.00134534
   6            5     -152.4518630310     0.00098505
   7            5     -152.4386514781     0.00190439
   8            5     -152.4164501861     0.00152193
   9            5     -152.4163237773     0.00242512
  10            5     -152.4104561041     0.00450279
  11            5     -152.4091898777     0.00740966

   1            6     -152.7313492521     0.00000173
   2            6     -152.5475822371     0.00004270
   3            6     -152.5429282258     0.00030811
   4            6     -152.5044023390     0.00015219
   5            6     -152.4712929091     0.00043421
   6            6     -152.4518643339     0.00033743
   7            6     -152.4386578452     0.00079223
   8            6     -152.4164533172     0.00040800
   9            6     -152.4163326564     0.00092624
  10            6     -152.4104945302     0.00162256
  11            6     -152.4093177913     0.00446442

   1            7     -152.7313492521     0.00000017
   2            7     -152.5475822388     0.00000753
   3            7     -152.5429283104     0.00005841
   4            7     -152.5044023680     0.00003345
   5            7     -152.4712931018     0.00009883
   6            7     -152.4518644594     0.00010202
   7            7     -152.4386585712     0.00022563
   8            7     -152.4164535147     0.00009270
   9            7     -152.4163341070     0.00031377
  10            7     -152.4104986342     0.00046286
  11            7     -152.4093434570     0.00158596

   1            8     -152.7313492521     0.00000002
   2            8     -152.5475822388     0.00000106
   3            8     -152.5429283128     0.00000903
   4            8     -152.5044023689     0.00000514
   5            8     -152.4712931103     0.00001879
   6            8     -152.4518644685     0.00002279
   7            8     -152.4386586257     0.00005900
   8            8     -152.4164535255     0.00002605
   9            8     -152.4163342149     0.00006459
  10            8     -152.4104988806     0.00010901
  11            8     -152.4093461232     0.00043548

   1            9     -152.7313492521     0.00000000
   2            9     -152.5475822388     0.00000015
   3            9     -152.5429283129     0.00000191
   4            9     -152.5044023690     0.00000095
   5            9     -152.4712931105     0.00000408
   6            9     -152.4518644688     0.00000576
   7            9     -152.4386586281     0.00001403
   8            9     -152.4164535261     0.00000593
   9            9     -152.4163342188     0.00001621
  10            9     -152.4104988916     0.00002856
  11            9     -152.4093462530     0.00010607

   1           10     -152.7313492521     0.00000000
   2           10     -152.5475822388     0.00000002
   3           10     -152.5429283129     0.00000034
   4           10     -152.5044023690     0.00000014
   5           10     -152.4712931105     0.00000093
   6           10     -152.4518644688     0.00000141
   7           10     -152.4386586283     0.00000446
   8           10     -152.4164535261     0.00000159
   9           10     -152.4163342191     0.00000369
  10           10     -152.4104988924     0.00000711
  11           10     -152.4093462640     0.00004128

   1           11     -152.7313492521     0.00000000
   2           11     -152.5475822388     0.00000000
   3           11     -152.5429283129     0.00000007
   4           11     -152.5044023690     0.00000004
   5           11     -152.4712931105     0.00000026
   6           11     -152.4518644688     0.00000045
   7           11     -152.4386586283     0.00000159
   8           11     -152.4164535261     0.00000045
   9           11     -152.4163342191     0.00000127
  10           11     -152.4104988925     0.00000228
  11           11     -152.4093462662     0.00002126

   1           12     -152.7313492521     0.00000000
   2           12     -152.5475822388     0.00000000
   3           12     -152.5429283129     0.00000002
   4           12     -152.5044023690     0.00000001
   5           12     -152.4712931105     0.00000009
   6           12     -152.4518644688     0.00000018
   7           12     -152.4386586283     0.00000068
   8           12     -152.4164535261     0.00000012
   9           12     -152.4163342191     0.00000048
  10           12     -152.4104988925     0.00000082
  11           12     -152.4093462669     0.00001214

   1           13     -152.7313492521     0.00000000
   2           13     -152.5475822388     0.00000000
   3           13     -152.5429283129     0.00000000
   4           13     -152.5044023690     0.00000000
   5           13     -152.4712931105     0.00000003
   6           13     -152.4518644688     0.00000007
   7           13     -152.4386586283     0.00000034
   8           13     -152.4164535261     0.00000006
   9           13     -152.4163342191     0.00000022
  10           13     -152.4104988925     0.00000043
  11           13     -152.4093462673     0.00000973


 ALL STATES CONVERGED IN   13 ITERATIONS

 CONVERGED STATE    1 ENERGY=     -152.7313492521
 CONVERGED STATE    2 ENERGY=     -152.5475822388
 CONVERGED STATE    3 ENERGY=     -152.5429283129
 CONVERGED STATE    4 ENERGY=     -152.5044023690
 CONVERGED STATE    5 ENERGY=     -152.4712931105
 CONVERGED STATE    6 ENERGY=     -152.4518644688
 CONVERGED STATE    7 ENERGY=     -152.4386586283
 CONVERGED STATE    8 ENERGY=     -152.4164535261
 CONVERGED STATE    9 ENERGY=     -152.4163342191
 CONVERGED STATE   10 ENERGY=     -152.4104988925
[...]
   20  C  2  Z    0.160380  -0.017315   0.278647   0.406250   0.153128
   21  C  2  S   -0.430028   0.751685   0.231284  -0.155971   0.137322
   22  C  2  X   -0.085884  -1.008785  -0.002355  -0.054513   0.421042
   23  C  2  Y    0.142941   0.267208   0.344887  -1.353399  -0.718203
   24  C  2  Z   -0.494288   0.028192  -0.173122  -0.574156  -0.095284
   25  C  2 XX   -0.264728  -0.141995   0.095650   0.854848   0.302608
   26  C  2 YY    0.275897   0.362218   0.587808  -0.160083  -0.243826
   27  C  2 ZZ   -0.212200   0.437268   0.447326   0.306768  -0.015329
   28  C  2 XY   -0.225237  -0.005996   0.027420   0.128197  -0.077133
   29  C  2 XZ   -0.207137  -0.014878   0.248999  -0.003225   0.346201
   30  C  2 YZ   -0.234781  -0.004683   0.134385  -0.111884   0.182527
   31  O  3  S    0.032480   0.108093  -0.015086  -0.029714   0.028397
   32  O  3  S   -0.067697  -0.267741  -0.270037   0.069739   0.301470
   33  O  3  X    0.085489  -0.030827  -0.146833   0.022418   0.148225
   34  O  3  Y    0.058565  -0.139007   0.014794   0.056170   0.049783
   35  O  3  Z   -0.028573   0.001785  -0.023292  -0.073970   0.044733
   36  O  3  S    0.010206  -0.263184   0.464288   0.252692  -0.761632
   37  O  3  X   -0.106766   0.328054   0.104476   0.189826  -0.326232
   38  O  3  Y   -0.182542   0.149043  -0.204784   0.546920   0.207476
   39  O  3  Z    0.243007  -0.000675  -0.045178   0.225210  -0.206961
   40  O  3 XX    0.107804  -0.009874  -0.195003  -0.027709   0.421913
   41  O  3 YY    0.248897   0.404047   0.182117  -0.327610  -0.254316
   42  O  3 ZZ   -0.026916   0.494629  -0.325610  -0.049805   0.414045
   43  O  3 XY   -0.009103  -0.065646   0.207355  -0.490780  -0.107788
   44  O  3 XZ   -0.326050  -0.008599   0.153454  -0.135562   0.228510
   45  O  3 YZ   -0.104916  -0.011142   0.177590   0.072711   0.191160
   46  H  4  S    0.077682  -0.331480  -0.233975  -0.077536   0.029342
   47  H  4  S   -0.160397   0.635906   0.275452  -0.630764  -0.495351
   48  H  5  S    0.253973   0.623576   0.105985  -0.259993   0.241247
   49  H  5  S    0.535595  -0.757888   0.666095  -0.286557   0.100429
   50  H  6  S   -0.115099  -0.164555   0.533962  -0.503190   0.332149
   51  H  6  S    0.985259   0.438633  -0.900703   0.666641   0.829554
   52  H  7  S    0.404566  -0.090717   0.442532   0.239075  -0.314237
   53  H  7  S   -0.802812   0.495440  -0.465665  -0.533311   0.517972

                     41         42         43         44         45

                    0.0000    -0.0000    -0.0000    -0.0000    -0.0000

    1  C  1  S    0.002562   0.039886  -0.177120   0.093902  -0.047578
    2  C  1  S   -0.050561  -0.435702  -0.322642  -0.787873   0.442146
    3  C  1  X   -0.234215   0.255602   0.102542   0.127511  -0.380834
    4  C  1  Y    0.010320  -0.026841  -0.077636   0.012328  -0.437559
    5  C  1  Z    0.066209   0.064586   0.013579   0.143356  -0.075378
    6  C  1  S    0.182693  -0.066616   4.425294  -0.962793   0.321415
    7  C  1  X   -0.218696  -0.217628   1.424249  -0.402355   0.781571
    8  C  1  Y   -0.377417  -0.588130   0.526357  -0.720966   0.732047
    9  C  1  Z    0.018054  -0.067493  -0.013747  -0.022087   0.057322
   10  C  1 XX   -0.341619   0.300503  -0.218593   0.445793  -0.635053
   11  C  1 YY   -0.025710   0.305404  -0.349849  -0.062768  -0.540169
   12  C  1 ZZ    0.134341   0.385440  -0.462599   0.349876  -0.260728
   13  C  1 XY    0.005476  -0.372251   0.128295  -0.037113  -0.084658
   14  C  1 XZ    0.126612   0.013931  -0.068047  -0.108118   0.005212
   15  C  1 YZ    0.001805  -0.094669  -0.042473  -0.098885   0.001791
   16  C  2  S    0.082689  -0.089014   0.071454  -0.006137  -0.007369
   17  C  2  S    0.472374   1.096747  -0.408457   0.118710   0.078908
   18  C  2  X   -0.369621   0.441462  -0.480050   0.467667  -0.266304
   19  C  2  Y   -0.021567   0.335113  -0.049919  -0.283270   0.147529
   20  C  2  Z    0.262690   0.108740  -0.030603   0.057076  -0.013798
   21  C  2  S   -1.969314   0.167469  -6.293200  -0.173721  -0.568399
   22  C  2  X    0.198939   0.292083  -0.921601  -1.221071  -0.008459
   23  C  2  Y    1.483630  -0.105594  -3.361599   1.398111  -0.119143
   24  C  2  Z   -0.115346   0.006669   0.044123  -0.139799   0.071378
   25  C  2 XX    0.420602  -0.675369   0.006104  -0.359914   0.208382
   26  C  2 YY    0.222875  -0.758747   0.115264  -0.410963  -0.155871
   27  C  2 ZZ    0.000942  -0.091399   0.603283   0.247648   0.266921
   28  C  2 XY   -0.314393  -0.174271  -0.221802   0.120055   0.338539
   29  C  2 XZ    0.282301   0.360784   0.027939  -0.100684   0.144470
   30  C  2 YZ    0.135680   0.207571   0.029245  -0.063991   0.086250
   31  O  3  S    0.000166  -0.001331  -0.346354  -0.103923   0.068928
   32  O  3  S    0.067988  -0.114275  -1.294737   0.389945  -0.365452
   33  O  3  X    0.071837  -0.097930   0.231107  -0.024293   0.039814
   34  O  3  Y   -0.296114  -0.045652   0.059613  -0.050277  -0.008968
   35  O  3  Z   -0.037190   0.140577   0.017896  -0.071785   0.082023
   36  O  3  S   -0.168700   0.158509   7.853184   0.425507   0.057395
   37  O  3  X   -0.023564   0.265264  -2.602127   0.146146   0.107117
   38  O  3  Y    0.035823   0.286589  -0.970651  -0.424267  -0.059499
   39  O  3  Z   -0.071534  -0.334691  -0.043841   0.167124  -0.182142
   40  O  3 XX   -0.297212  -0.024430  -0.631151  -0.444233   0.117965
   41  O  3 YY    0.121190  -0.066481  -1.141305  -0.203195   0.465651
   42  O  3 ZZ    0.220584  -0.303829  -1.217325  -0.078683  -0.106532
   43  O  3 XY    0.066942  -0.224371   0.335132   0.109131   0.030974
   44  O  3 XZ    0.301001   0.016602   0.006039  -0.017612  -0.004099
   45  O  3 YZ    0.250010   0.080904  -0.005463  -0.004463   0.011536
   46  H  4  S    0.234100   0.444851   0.034330   0.240164   0.253303
   47  H  4  S    1.609051  -0.315348  -0.593623   0.893610  -0.106588
   48  H  5  S   -0.054341  -0.238359  -0.085448   0.430531   0.406151
   49  H  5  S    0.171528   0.740111  -1.026447   0.502066  -0.535210
   50  H  6  S   -0.325534  -0.010319  -0.105051   0.105469   0.221740
   51  H  6  S    0.224128  -0.359578  -0.355753  -0.152860   0.273480
   52  H  7  S   -0.012847  -0.351676  -0.329110  -0.091708   0.145874
   53  H  7  S   -0.202192   0.137967  -0.115186  -0.128862   0.392246

                     46         47         48         49         50

                   -0.0000    -0.0000    -0.0000    -0.0000    -0.0000

    1  C  1  S    0.028610  -0.045204  -0.007576   0.084837   0.177197
    2  C  1  S   -0.238969   0.772271   0.113544  -0.986153  -1.170942
    3  C  1  X   -0.478462  -0.000355  -0.106257   0.321827   0.116099
    4  C  1  Y   -0.017044  -0.002867   0.228724   0.187428   0.125414
    5  C  1  Z    0.135105  -0.287238  -0.009163  -0.040001  -0.254285
    6  C  1  S   -0.978319  -1.544611   0.069997   0.310937  -0.577824
    7  C  1  X    0.222227  -1.007298   0.220375  -1.031332  -0.138624
    8  C  1  Y    0.216564   0.322914  -0.036695  -0.097663  -0.340917
    9  C  1  Z   -0.427743   0.714410   0.129200   0.014858   0.634707
   10  C  1 XX   -0.060724   0.165640   0.148927   0.039885   0.750279
   11  C  1 YY    0.431316  -0.356609  -0.247217   0.648847   0.152982
   12  C  1 ZZ    0.093927  -0.115474  -0.070929   0.460334   0.796331
   13  C  1 XY   -0.075833   0.021995  -0.138555  -0.066754   0.131863
   14  C  1 XZ    0.133208  -0.247364  -0.026157   0.004615  -0.222981
   15  C  1 YZ    0.065633  -0.037645  -0.012370   0.021425  -0.034693
   16  C  2  S   -0.016879  -0.148746  -0.083061  -0.011827   0.165612
   17  C  2  S   -0.655703  -0.246681   0.155610  -0.187752  -1.364432
   18  C  2  X    0.322690  -0.294199  -0.005587   0.218561  -0.092929
   19  C  2  Y   -0.218201  -0.089370   0.233804   0.251682  -0.013723
   20  C  2  Z   -0.050688   0.044484   0.081123  -0.049774   0.012751
   21  C  2  S    0.262900   1.677714  -0.291486   1.009895  -0.595610
   22  C  2  X   -0.698550  -1.592841   0.016486  -0.195860   0.104551
   23  C  2  Y    0.950084   0.112749  -0.189216   0.590339   0.068554
   24  C  2  Z    0.159298  -0.083589  -0.077301   0.024878  -0.100497
   25  C  2 XX    0.118121  -0.667350  -0.419745   0.444143   0.810166
   26  C  2 YY    0.156118  -0.615554   0.202537  -0.249287   0.642136
   27  C  2 ZZ    0.121966  -0.568269  -0.024718  -0.425531   0.873261
   28  C  2 XY   -0.184919  -0.058197   0.197120   0.549051   0.016645
   29  C  2 XZ   -0.040520   0.043170   0.022308  -0.044552  -0.024245
   30  C  2 YZ    0.019382  -0.011739  -0.002644  -0.024488  -0.050835
   31  O  3  S    0.104902  -0.035123  -0.036253   0.061385   0.109512
   32  O  3  S   -0.266310  -0.243255  -0.058334  -0.453638  -0.759308
   33  O  3  X    0.348143   0.034196   0.411749   0.268414   0.068561
   34  O  3  Y    0.259334  -0.128427  -0.137200  -0.003045   0.278218
   35  O  3  Z   -0.066685  -0.021274  -0.045713   0.017840  -0.007414
   36  O  3  S   -0.451383   1.239695   0.501865  -0.416349   0.329875
   37  O  3  X   -0.157088  -0.740395  -0.206982   0.102540  -0.078440
   38  O  3  Y   -0.487100  -0.607953   0.045087   0.198900  -0.284165
   39  O  3  Z    0.061337   0.009279   0.056455  -0.004369   0.033504
   40  O  3 XX    0.386720   0.100034   0.223703   0.055309   0.138766
   41  O  3 YY    0.384783   0.443649  -0.419311  -0.031168   0.268710
   42  O  3 ZZ    0.056553  -0.439200  -0.330703   0.233466   0.259982
   43  O  3 XY   -0.122763   0.087470   0.448832  -0.004857   0.096252
   44  O  3 XZ    0.165289   0.114820   0.097433  -0.068443  -0.000778
   45  O  3 YZ    0.047561   0.078352   0.073075  -0.050493   0.008642
   46  H  4  S   -0.322518   0.312778   0.048421   0.034263   0.072672
   47  H  4  S    0.867294  -0.234904   0.009659   0.554771  -0.049194
   48  H  5  S   -0.236558   0.025654  -0.252299  -0.105351  -0.115866
   49  H  5  S   -0.068028   0.065393   0.143231  -0.192651   0.643079
   50  H  6  S   -0.220215   0.059204   0.065411  -0.035166  -0.186490
   51  H  6  S    0.108951   0.122579   0.178461  -0.494900   0.667205
   52  H  7  S   -0.194147   0.170706   0.182973  -0.016311  -0.097943
   53  H  7  S    0.628314  -0.940589  -0.184546  -0.484269  -0.259204

                     51         52         53

                   -0.0000    -0.0000    -0.0000

    1  C  1  S   -0.071009   0.034846   0.123296
    2  C  1  S    0.863268   0.111759  -0.757231
    3  C  1  X   -0.073121   0.129003   0.155103
    4  C  1  Y   -0.165706   0.035732  -0.005346
    5  C  1  Z    0.190423   0.429162  -0.111861
    6  C  1  S   -0.896355  -0.063192  -0.174368
    7  C  1  X    0.109233   0.216840  -0.203985
    8  C  1  Y   -0.180527   0.088730  -0.010233
    9  C  1  Z    0.048825  -0.442520   0.094026
   10  C  1 XX    0.050416   0.192491   0.192446
   11  C  1 YY   -0.399799   0.106050   0.301351
   12  C  1 ZZ   -0.356332  -0.098597   0.400233
   13  C  1 XY   -0.137236  -0.403609   0.250945
   14  C  1 XZ   -0.173001  -0.255035   0.058377
   15  C  1 YZ   -0.252806  -0.193300   0.056755
   16  C  2  S    0.138761   0.111339   0.079634
   17  C  2  S   -0.827428  -0.128002  -0.070857
   18  C  2  X    0.134572  -0.043411  -0.082044
   19  C  2  Y   -0.262818   0.146933   0.191012
   20  C  2  Z    0.091832  -0.078564  -0.017990
   21  C  2  S   -0.735363  -0.995311  -0.075847
   22  C  2  X   -0.115465   0.602313   0.218644
   23  C  2  Y    0.975450   0.032356   0.022682
   24  C  2  Z   -0.308143  -0.099729   0.037101
   25  C  2 XX    0.420741   0.413101  -0.029380
   26  C  2 YY    0.738436   0.052262   0.370660
   27  C  2 ZZ    0.141149   0.519277   0.224775
   28  C  2 XY    0.242084   0.148254   0.228140
   29  C  2 XZ    0.064557  -0.452187   0.054491
   30  C  2 YZ   -0.001565  -0.212889   0.022778
   31  O  3  S   -0.000026  -0.022154  -0.043818
   32  O  3  S   -0.109461   0.049285   0.090487
   33  O  3  X    0.055871   0.140163   0.098481
   34  O  3  Y    0.005880  -0.033750  -0.205391
   35  O  3  Z    0.159069  -0.224428   0.052522
   36  O  3  S   -0.069746  -0.069874   0.042430
   37  O  3  X    0.143323  -0.096373   0.050808
   38  O  3  Y   -0.222695   0.213414   0.155529
   39  O  3  Z   -0.127184   0.511759  -0.097535
   40  O  3 XX   -0.064398  -0.078515  -0.069652
   41  O  3 YY   -0.000433  -0.013435  -0.295673
   42  O  3 ZZ    0.004387  -0.169825  -0.107598
   43  O  3 XY    0.015843  -0.324454  -0.750225
   44  O  3 XZ   -0.489878  -0.032341  -0.035330
   45  O  3 YZ   -0.184604  -0.104395  -0.011803
   46  H  4  S   -0.242312   0.207100  -0.088437
   47  H  4  S    1.096711   0.299803   0.242604
   48  H  5  S    0.009348  -0.046681   0.010805
   49  H  5  S    0.390366  -0.069527   0.120023
   50  H  6  S    0.229962   0.553311  -0.070060
   51  H  6  S   -0.002990  -0.249083   0.178572
   52  H  7  S   -0.465739  -0.157450   0.099022
   53  H  7  S    0.521524   0.576646   0.010171

 THE CIS NATURAL ORBITALS HAVE BEEN PUNCHED.

 ..... DONE WITH CIS ENERGY .....

 STEP CPU TIME =     1.24 TOTAL CPU TIME =          1.6 (      0.0 MIN)
 TOTAL WALL CLOCK TIME=          1.6 SECONDS, CPU UTILIZATION IS    96.32%

     -------------------------------------------------------------
     CIS   PROPERTIES...FOR THE WAVEFUNCTION OF EXCITED STATE    1
                 USING THE EXPECTATION VALUE DENSITY
     -------------------------------------------------------------

          -----------------
          ENERGY COMPONENTS
          -----------------

         WAVEFUNCTION NORMALIZATION =       1.0000000000

                ONE ELECTRON ENERGY =    -344.6475391983
                TWO ELECTRON ENERGY =     122.4586087012
           NUCLEAR REPULSION ENERGY =      69.4575812450
                                      ------------------
                       TOTAL ENERGY =    -152.7313492521

 ELECTRON-ELECTRON POTENTIAL ENERGY =     122.4586087012
  NUCLEUS-ELECTRON POTENTIAL ENERGY =    -496.8772597008
   NUCLEUS-NUCLEUS POTENTIAL ENERGY =      69.4575812450
                                      ------------------
             TOTAL POTENTIAL ENERGY =    -304.9610697546
               TOTAL KINETIC ENERGY =     152.2297205025
                 VIRIAL RATIO (V/T) =       2.0032952090

          ---------------------------------------
          MULLIKEN AND LOWDIN POPULATION ANALYSES
          ---------------------------------------

               ----- POPULATIONS IN EACH AO -----
                             MULLIKEN      LOWDIN
              1  C  1  S      1.99652     1.98058
              2  C  1  S      0.62042     0.34709
              3  C  1  X      0.62932     0.56617
              4  C  1  Y      0.69966     0.63444
              5  C  1  Z      0.69238     0.62446
              6  C  1  S      0.67498     0.33571
              7  C  1  X      0.28578     0.40066
              8  C  1  Y      0.40585     0.48910
              9  C  1  Z      0.40398     0.50716
             10  C  1 XX      0.01282     0.14867
             11  C  1 YY      0.02363     0.15972
             12  C  1 ZZ      0.02029     0.15321
             13  C  1 XY      0.00662     0.01097
             14  C  1 XZ      0.01625     0.03009
             15  C  1 YZ      0.00528     0.00703
             16  C  2  S      1.99675     1.97522
             17  C  2  S      0.69554     0.36230
             18  C  2  X      0.72367     0.63895
             19  C  2  Y      0.70776     0.62291
             20  C  2  Z      0.72217     0.68893
             21  C  2  S      0.45565     0.30665
             22  C  2  X      0.08348     0.28081
             23  C  2  Y      0.21495     0.37864
             24  C  2  Z      0.57182     0.56824
             25  C  2 XX      0.03311     0.20307
             26  C  2 YY      0.03164     0.18676
             27  C  2 ZZ     -0.02348     0.09876
             28  C  2 XY      0.02335     0.04181
             29  C  2 XZ      0.01865     0.03800
             30  C  2 YZ      0.00648     0.01412
             31  O  3  S      1.99559     1.97777
             32  O  3  S      0.91648     0.71504
             33  O  3  X      0.85437     0.79941
             34  O  3  Y      0.75404     0.71550
             35  O  3  Z      0.99112     0.96266
             36  O  3  S      0.94717     0.47026
             37  O  3  X      0.44613     0.51257
             38  O  3  Y      0.43813     0.48288
             39  O  3  Z      0.66620     0.67947
             40  O  3 XX      0.01324     0.18674
             41  O  3 YY      0.00634     0.17797
             42  O  3 ZZ      0.00115     0.17003
             43  O  3 XY      0.00877     0.01639
             44  O  3 XZ      0.01243     0.02474
             45  O  3 YZ      0.00518     0.01034
             46  H  4  S      0.47961     0.44550
             47  H  4  S      0.27934     0.34074
             48  H  5  S      0.51483     0.48095
             49  H  5  S      0.27122     0.34193
             50  H  6  S      0.52276     0.49009
             51  H  6  S      0.29893     0.35436
             52  H  7  S      0.52276     0.49009
             53  H  7  S      0.29891     0.35435

          ----- MULLIKEN ATOMIC OVERLAP POPULATIONS -----
          (OFF-DIAGONAL ELEMENTS NEED TO BE MULTIPLIED BY 2)

             1           2           3           4           5

    1    5.1613887
    2    0.2769350   5.4313978
    3   -0.0385489   0.3282919   7.7908938
    4   -0.0604114   0.3543552  -0.0276280   0.4881978
    5    0.3841233  -0.0302130   0.0000974   0.0030056   0.4685687
    6    0.3851503  -0.0496322   0.0016140   0.0007143  -0.0197631
    7    0.3851436  -0.0496029   0.0016138   0.0007138  -0.0197695

             6           7

    6    0.5417347
    7   -0.0381331   0.5417061

          TOTAL MULLIKEN AND LOWDIN ATOMIC POPULATIONS
       ATOM         MULL.POP.    CHARGE          LOW.POP.     CHARGE
    1 C             6.493781   -0.493781         6.395061   -0.395061
    2 C             6.261532   -0.261532         6.405171   -0.405171
    3 O             8.056334   -0.056334         7.901771    0.098229
    4 H             0.758947    0.241053         0.786241    0.213759
    5 H             0.786049    0.213951         0.822881    0.177119
    6 H             0.821685    0.178315         0.844442    0.155558
    7 H             0.821672    0.178328         0.844433    0.155567

          ---------------------
          ELECTROSTATIC MOMENTS
          ---------------------

 POINT   1           X           Y           Z (BOHR)    CHARGE
                -0.000000    0.000000   -0.000000        0.00 (A.U.)
         DX          DY          DZ         /D/  (DEBYE)
    -0.902217   -0.234484    0.000067    0.932191
 ...... END OF PROPERTY EVALUATION ......
 STEP CPU TIME =     0.00 TOTAL CPU TIME =          1.6 (      0.0 MIN)
 TOTAL WALL CLOCK TIME=          1.6 SECONDS, CPU UTILIZATION IS    96.32%
                580000  WORDS OF DYNAMIC MEMORY USED
 EXECUTION OF GAMESS TERMINATED NORMALLY Thu Oct 17 19:53:39 2019
 DDI: 263640 bytes (0.3 MB / 0 MWords) used by master data server.

 ----------------------------------------
 CPU timing information for all processes
 ========================================
 0: 1.429 + 0.157 = 1.587
 ----------------------------------------
 ddikick.x: exited gracefully.
----- accounting info -----
Files used on the master node crcfe01.crc.nd.edu were:
-rw-r--r-- 1 cdrisko campus      465 Oct 17 19:53 /afs/crc.nd.edu/user/c/cdrisko/acetaldehyde_CIS.F05
-rw-r--r-- 1 cdrisko campus   151575 Oct 17 19:53 /afs/crc.nd.edu/user/c/cdrisko/acetaldehyde_CIS.F07
-rw-r--r-- 1 cdrisko campus 10800960 Oct 17 19:53 /afs/crc.nd.edu/user/c/cdrisko/acetaldehyde_CIS.F08
-rw-r--r-- 1 cdrisko campus  1636000 Oct 17 19:53 /afs/crc.nd.edu/user/c/cdrisko/acetaldehyde_CIS.F10
-rw-r--r-- 1 cdrisko campus    32560 Oct 17 19:53 /afs/crc.nd.edu/user/c/cdrisko/acetaldehyde_CIS.F12
Thu Oct 17 19:53:42 EDT 2019
0.396u 0.230s 0:05.26 11.7%	0+0k 0+328io 0pf+0w
