----- GAMESS execution script 'rungms' -----
This job is running on host crcfe02.crc.nd.edu
under operating system Linux at Sun Sep 29 10:45:20 EDT 2019
Available scratch disk space (Kbyte units) at beginning of the job is
Filesystem      1K-blocks  Used  Available Use% Mounted on
AFS            2147483647     0 2147483647   0% /afs
GAMESS temporary binary files will be written to /afs/crc.nd.edu/user/c/cdrisko
GAMESS supplementary output files will be written to /afs/crc.nd.edu/user/c/cdrisko/scr
Copying input file SO2.inp to your run's scratch directory...

 Distributed Data Interface kickoff program.
 Initiating 1 compute processes on 1 nodes to run the following command:
 /afs/crc.nd.edu/x86_64_linux/g/gamess/nov-2017/gamess/gamess.00.x SO2 

          ******************************************************
          *         GAMESS VERSION = 11 NOV 2017 (R3)         *
          *             FROM IOWA STATE UNIVERSITY             *
          * M.W.SCHMIDT, K.K.BALDRIDGE, J.A.BOATZ, S.T.ELBERT, *
          *   M.S.GORDON, J.H.JENSEN, S.KOSEKI, N.MATSUNAGA,   *
          *          K.A.NGUYEN, S.J.SU, T.L.WINDUS,           *
          *       TOGETHER WITH M.DUPUIS, J.A.MONTGOMERY       *
          *         J.COMPUT.CHEM.  14, 1347-1363(1993)        *
          **************** 64 BIT INTEL VERSION ****************

  SINCE 1993, STUDENTS AND POSTDOCS WORKING AT IOWA STATE UNIVERSITY
  AND ALSO IN THEIR VARIOUS JOBS AFTER LEAVING ISU HAVE MADE IMPORTANT
  CONTRIBUTIONS TO THE CODE:
     IVANA ADAMOVIC, CHRISTINE AIKENS, YURI ALEXEEV, POOJA ARORA,
     ANDREY ASADCHEV, ROB BELL, PRADIPTA BANDYOPADHYAY, JONATHAN BENTZ,
     BRETT BODE, KURT BRORSEN, CALEB CARLIN, GALINA CHABAN, WEI CHEN,
     CHEOL HO CHOI, PAUL DAY, ALBERT DEFUSCO, NUWAN DESILVA, TIM DUDLEY,
     DMITRI FEDOROV, ALEX FINDLATER, GRAHAM FLETCHER, MARK FREITAG,
     KURT GLAESEMANN, ANASTASIA GUININA,
     DAN KEMP, GRANT MERRILL, NORIYUKI MINEZAWA, JONATHAN MULLIN,
     TAKESHI NAGATA, SEAN NEDD, HEATHER NETZLOFF, BOSILJKA NJEGIC, RYAN OLSON,
     MIKE PAK, BUU PHAM,
     SPENCER PRUITT, LUKE ROSKOP, JIM SHOEMAKER, LYUDMILA SLIPCHENKO,
     TONY SMITH, SAROM SOK LEANG, JIE SONG, TETSUYA TAKETSUGU, SIMON WEBB,
     PENG XU, SOOHAENG YOO, FEDERICO ZAHARIEV

  ADDITIONAL CODE HAS BEEN PROVIDED BY COLLABORATORS IN OTHER GROUPS:
     IOWA STATE UNIVERSITY:
          JOE IVANIC, AARON WEST, LAIMUTIS BYTAUTAS, KLAUS RUEDENBERG
     UNIVERSITY OF TOKYO: KIMIHIKO HIRAO, TAKAHITO NAKAJIMA,
          TAKAO TSUNEDA, MUNEAKI KAMIYA, SUSUMU YANAGISAWA,
          KIYOSHI YAGI, MAHITO CHIBA, SEIKEN TOKURA, NAOAKI KAWAKAMI
     UNIVERSITY OF AARHUS: FRANK JENSEN
     UNIVERSITY OF IOWA: VISVALDAS KAIRYS, HUI LI
     NATIONAL INST. OF STANDARDS AND TECHNOLOGY: WALT STEVENS, DAVID GARMER
     UNIVERSITY OF PISA: BENEDETTA MENNUCCI, JACOPO TOMASI
     UNIVERSITY OF MEMPHIS: HENRY KURTZ, PRAKASHAN KORAMBATH
     UNIVERSITY OF ALBERTA: TOBY ZENG, MARIUSZ KLOBUKOWSKI
     UNIVERSITY OF NEW ENGLAND: MARK SPACKMAN
     MIE UNIVERSITY: HIROAKI UMEDA
     NAT. INST. OF ADVANCED INDUSTRIAL SCIENCE AND TECHNOLOGY: KAZUO KITAURA
     MICHIGAN STATE UNIVERSITY:
          KAROL KOWALSKI, MARTA WLOCH, JEFFREY GOUR, JESSE LUTZ,
          WEI LI, PIOTR PIECUCH
     UNIVERSITY OF SILESIA: MONIKA MUSIAL, STANISLAW KUCHARSKI
     FACULTES UNIVERSITAIRES NOTRE-DAME DE LA PAIX:
          OLIVIER QUINET, BENOIT CHAMPAGNE
     UNIVERSITY OF CALIFORNIA - SANTA BARBARA: BERNARD KIRTMAN
     INSTITUTE FOR MOLECULAR SCIENCE:
          KAZUYA ISHIMURA, MICHIO KATOUDA, AND SHIGERU NAGASE
     UNIVERSITY OF NOTRE DAME: ANNA POMOGAEVA, DAN CHIPMAN
     KYUSHU UNIVERSITY:
          HARUYUKI NAKANO,
          FENG LONG GU, JACEK KORCHOWIEC, MARCIN MAKOWSKI, AND YURIKO AOKI,
          HIROTOSHI MORI AND EISAKU MIYOSHI
     PENNSYLVANIA STATE UNIVERSITY:
          TZVETELIN IORDANOV, CHET SWALINA, JONATHAN SKONE,
          SHARON HAMMES-SCHIFFER
     WASEDA UNIVERSITY:
          MASATO KOBAYASHI, TOMOKO AKAMA, TSUGUKI TOUMA,
          TAKESHI YOSHIKAWA, YASUHIRO IKABATA, JUNJI SEINO,
          YUYA NAKAJIMA, HIROMI NAKAI
     NANJING UNIVERSITY: SHUHUA LI
     UNIVERSITY OF NEBRASKA:
          PEIFENG SU, DEJUN SI, NANDUN THELLAMUREGE, YALI WANG, HUI LI
     UNIVERSITY OF ZURICH: ROBERTO PEVERATI, KIM BALDRIDGE
     N. COPERNICUS UNIVERSITY AND JACKSON STATE UNIVERSITY:
          MARIA BARYSZ
     UNIVERSITY OF COPENHAGEN: Jimmy Kromann, CASPER STEINMANN
     TOKYO INSTITUTE OF TECHNOLOGY: HIROYA NAKATA
     NAGOYA UNIVERSITY: YOSHIO NISHIMOTO, STEPHAN IRLE
     MOSCOW STATE UNIVERSITY: VLADIMIR MIRONOV

 EXECUTION OF GAMESS BEGUN Sun Sep 29 10:45:20 2019

            ECHO OF THE FIRST FEW INPUT CARDS -
 INPUT CARD> $BASIS GBASIS=PCSEG-1 $END                                                     
 INPUT CARD> $CONTRL COORD=ZMT ISPHER=1 RUNTYP=ENERGY DFTTYP=PBE MULT=1 $END                
 INPUT CARD>                                                                                
 INPUT CARD> $DATA                                                                          
 INPUT CARD>Title SO2 single-point calculation template with Z-Matrix                       
 INPUT CARD>C1                                                                              
 INPUT CARD>S                                                                               
 INPUT CARD>O 1 1.40                                                                        
 INPUT CARD>O 1 1.40 2 95                                                                   
 INPUT CARD> $END                                                                           
    1000000 WORDS OF MEMORY AVAILABLE

     BASIS OPTIONS
     -------------
     GBASIS=PCSEG-1      IGAUSS=       0      POLAR=NONE    
     NDFUNC=       0     NFFUNC=       0     DIFFSP=       F
     NPFUNC=       0      DIFFS=       F     BASNAM=        


     RUN TITLE
     ---------
 Title SO2 single-point calculation template with Z-Matrix                       

 THE POINT GROUP OF THE MOLECULE IS C1      
 THE ORDER OF THE PRINCIPAL AXIS IS     0

 YOUR FULLY SUBSTITUTED Z-MATRIX IS
 S   
 O      1   1.4000000
 O      1   1.4000000  2   95.0000

 THE MOMENTS OF INERTIA ARE (AMU-ANGSTROM**2)
 IXX=    14.305   IYY=    34.082   IZZ=    48.387

 ATOM      ATOMIC                      COORDINATES (BOHR)
           CHARGE         X                   Y                   Z
 S          16.0     0.0000000000       -0.8939242639        0.0000000000
 O           8.0     1.9505530009        0.8934282575        0.0000000000
 O           8.0    -1.9505530009        0.8934282575        0.0000000000

          INTERNUCLEAR DISTANCES (ANGS.)
          ------------------------------

                1 S          2 O          3 O     

   1 S       0.0000000    1.4000000 *  1.4000000 *
   2 O       1.4000000 *  0.0000000    2.0643765 *
   3 O       1.4000000 *  2.0643765 *  0.0000000  

  * ... LESS THAN  3.000


     ATOMIC BASIS SET
     ----------------
 THE CONTRACTED PRIMITIVE FUNCTIONS HAVE BEEN UNNORMALIZED
 THE CONTRACTED BASIS FUNCTIONS ARE NOW NORMALIZED TO UNITY

  SHELL TYPE  PRIMITIVE        EXPONENT          CONTRACTION COEFFICIENT(S)

 S         

      1   S       1         49299.4000000    0.000677492991
      1   S       2          7395.8400000    0.005232317766
      1   S       3          1683.3000000    0.026769459077
      1   S       4           476.1440000    0.102869580705
      1   S       5           154.3290000    0.286438127414
      1   S       6            55.0288000    0.454278639081
      1   S       7            20.5029000    0.271743121997

      2   S       8            45.9596000   -0.088421914560
      2   S       9             4.9274000    0.564350486135
      2   S      10             1.9179900    0.505415953466

      3   S      11             0.3684980    1.000000000000

      4   S      12             0.1291650    1.000000000000

      5   P      13           451.6620000    0.003707705453
      5   P      14           106.0980000    0.029219352245
      5   P      15            33.6996000    0.124444551509
      5   P      16            12.3054000    0.321808587656
      5   P      17             4.7141200    0.462822172957
      5   P      18             1.7810500    0.266513371364

      6   P      19             0.8722350    0.349265132972
      6   P      20             0.3102780    0.717115018770

      7   P      21             0.1001940    1.000000000000

      8   D      22             0.5500000    1.000000000000

 O         

      9   S      23          2288.6400000    0.005451138222
      9   S      24           344.4160000    0.040718922842
      9   S      25            78.2538000    0.181369420873
      9   S      26            21.7195000    0.465536820246
      9   S      27             6.5590700    0.451211321214

     10   S      28            10.4656000   -0.150211201174
     10   S      29             0.9643510    1.052867983385

     11   S      30             0.2851270    1.000000000000

     12   P      31            17.0590000    0.068749256972
     12   P      32             3.6899900    0.351671941499
     12   P      33             0.9929960    0.724532099722

     13   P      34             0.2449240    1.000000000000

     14   D      35             1.0000000    1.000000000000

 O         

     15   S      36          2288.6400000    0.005451138222
     15   S      37           344.4160000    0.040718922842
     15   S      38            78.2538000    0.181369420873
     15   S      39            21.7195000    0.465536820246
     15   S      40             6.5590700    0.451211321214

     16   S      41            10.4656000   -0.150211201174
     16   S      42             0.9643510    1.052867983385

     17   S      43             0.2851270    1.000000000000

     18   P      44            17.0590000    0.068749256972
     18   P      45             3.6899900    0.351671941499
     18   P      46             0.9929960    0.724532099722

     19   P      47             0.2449240    1.000000000000

     20   D      48             1.0000000    1.000000000000

 TOTAL NUMBER OF BASIS SET SHELLS             =   20
 NUMBER OF CARTESIAN GAUSSIAN BASIS FUNCTIONS =   49
 NOTE: THIS RUN WILL RESTRICT THE MO VARIATION SPACE TO SPHERICAL HARMONICS.
 THE NUMBER OF ORBITALS KEPT IN THE VARIATIONAL SPACE WILL BE PRINTED LATER.
 NUMBER OF ELECTRONS                          =   32
 CHARGE OF MOLECULE                           =    0
 SPIN MULTIPLICITY                            =    1
 NUMBER OF OCCUPIED ORBITALS (ALPHA)          =   16
 NUMBER OF OCCUPIED ORBITALS (BETA )          =   16
 TOTAL NUMBER OF ATOMS                        =    3
 THE NUCLEAR REPULSION ENERGY IS      113.1694438024

     LEBEDEV GRID-BASED DFT OPTIONS
     ------------------------------
     DFTTYP=PBE     
     NRAD  =      96     NLEB  =     302
     NRAD0 =      24     NLEB0 =     110
     SWOFF =    5.00E-03 (PURE SCF -> DFT)
     SWITCH=    3.00E-04 (COARSE -> TIGHT GRID)
     THRESH=    0.00E+00 GTHRE=    1.00E+00

 GRIMME'S EMPIRICAL DISPERSION CORRECTION= F

     $CONTRL OPTIONS
     ---------------
 SCFTYP=RHF          RUNTYP=ENERGY       EXETYP=RUN     
 MPLEVL=       0     CITYP =NONE         CCTYP =NONE         VBTYP =NONE    
 DFTTYP=PBE          TDDFT =NONE    
 MULT  =       1     ICHARG=       0     NZVAR =       0     COORD =ZMT     
 PP    =NONE         RELWFN=NONE         LOCAL =NONE         NUMGRD=       F
 ISPHER=       1     NOSYM =       0     MAXIT =      30     UNITS =ANGS    
 PLTORB=       F     MOLPLT=       F     AIMPAC=       F     FRIEND=        
 NPRINT=       7     IREST =       0     GEOM  =INPUT   
 NORMF =       0     NORMP =       0     ITOL  =      20     ICUT  =       9
 INTTYP=BEST         GRDTYP=BEST         QMTTOL= 1.0E-06

     $SYSTEM OPTIONS
     ---------------
  REPLICATED MEMORY=     1000000 WORDS (ON EVERY NODE).
 DISTRIBUTED MEMDDI=           0 MILLION WORDS IN AGGREGATE,
 MEMDDI DISTRIBUTED OVER   1 PROCESSORS IS           0 WORDS/PROCESSOR.
 TOTAL MEMORY REQUESTED ON EACH PROCESSOR=     1000000 WORDS.
 TIMLIM=      525600.00 MINUTES, OR     365.0 DAYS.
 PARALL= F  BALTYP=  DLB     KDIAG=    0  COREFL= F
 MXSEQ2=     300 MXSEQ3=     150  mem10=         0

          ----------------
          PROPERTIES INPUT
          ----------------

     MOMENTS            FIELD           POTENTIAL          DENSITY
 IEMOM =       1   IEFLD =       0   IEPOT =       0   IEDEN =       0
 WHERE =COMASS     WHERE =NUCLEI     WHERE =NUCLEI     WHERE =NUCLEI  
 OUTPUT=BOTH       OUTPUT=BOTH       OUTPUT=BOTH       OUTPUT=BOTH    
 IEMINT=       0   IEFINT=       0                     IEDINT=       0
                                                       MORB  =       0
          EXTRAPOLATION IN EFFECT
          DIIS IN EFFECT
 ORBITAL PRINTING OPTION: NPREO=     1    49     2     1

     -------------------------------
     INTEGRAL TRANSFORMATION OPTIONS
     -------------------------------
     NWORD  =            0
     CUTOFF = 1.0E-09     MPTRAN =       0
     DIRTRF =       F     AOINTS =DUP     

          ----------------------
          INTEGRAL INPUT OPTIONS
          ----------------------
 NOPK  =       1 NORDER=       0 SCHWRZ=       F

   --- ENCODED Z MATRIX ---
 COORD  TYPE   I   J   K   L   M   N
    1      1    2   1
    2      1    3   1
    3      2    3   1   2

 THE DETERMINANT OF THE G MATRIX IS 10**(    -4)

 THE DETERMINANT OF THE G MATRIX IS 10**(    -4)
 * * * WARNING * * *
 YOUR B MATRIX HAS A SMALL DETERMINANT.
 THIS SUGGESTS YOU MAY HAVE BADLY CHOSEN COORDINATES.

     ------------------------------------------
     THE POINT GROUP IS C1 , NAXIS= 0, ORDER= 1
     ------------------------------------------

 -- VARIATIONAL SPACE WILL BE RESTRICTED TO PURE SPHERICAL HARMONICS ONLY --
 AFTER EXCLUDING CONTAMINANT COMBINATIONS FROM THE CARTESIAN GAUSSIAN BASIS
 SET, THE NUMBER OF SPHERICAL HARMONICS KEPT IN THE VARIATION SPACE IS   46

     DIMENSIONS OF THE SYMMETRY SUBSPACES ARE
 A   =   46

 ..... DONE SETTING UP THE RUN .....
 STEP CPU TIME =     0.03 TOTAL CPU TIME =          0.0 (      0.0 MIN)
 TOTAL WALL CLOCK TIME=          0.0 SECONDS, CPU UTILIZATION IS    75.00%

          ********************
          1 ELECTRON INTEGRALS
          ********************
 ...... END OF ONE-ELECTRON INTEGRALS ......
 STEP CPU TIME =     0.01 TOTAL CPU TIME =          0.0 (      0.0 MIN)
 TOTAL WALL CLOCK TIME=          0.1 SECONDS, CPU UTILIZATION IS    80.00%

          -------------
          GUESS OPTIONS
          -------------
          GUESS =HUCKEL            NORB  =       0          NORDER=       0
          MIX   =       F          PRTMO =       F          PUNMO =       F
          TOLZ  = 1.0E-08          TOLE  = 1.0E-05
          SYMDEN=       F          PURIFY=       F

 INITIAL GUESS ORBITALS GENERATED BY HUCKEL   ROUTINE.
 HUCKEL GUESS REQUIRES     21634 WORDS.

 STATISTICS FOR GENERATION OF SYMMETRY ORBITAL -Q- MATRIX
 NUMBER OF CARTESIAN ATOMIC ORBITALS=         49
 NUMBER OF SPHERICAL CONTAMINANTS DROPPED=     3
 NUMBER OF LINEARLY DEPENDENT MOS DROPPED=     0
 TOTAL NUMBER OF MOS IN VARIATION SPACE=      46

 SYMMETRIES FOR INITIAL GUESS ORBITALS FOLLOW.   BOTH SET(S).
    16 ORBITALS ARE OCCUPIED (    7 CORE ORBITALS).
     8=A        9=A       10=A       11=A       12=A       13=A       14=A   
    15=A       16=A       17=A       18=A       19=A       20=A       21=A   
    22=A       23=A       24=A       25=A       26=A   
 ...... END OF INITIAL ORBITAL SELECTION ......
 STEP CPU TIME =     0.01 TOTAL CPU TIME =          0.0 (      0.0 MIN)
 TOTAL WALL CLOCK TIME=          0.1 SECONDS, CPU UTILIZATION IS   100.00%

                    ----------------------
                    AO INTEGRAL TECHNOLOGY
                    ----------------------
     S,P,L SHELL ROTATED AXIS INTEGRALS, REPROGRAMMED BY
        KAZUYA ISHIMURA (IMS) AND JOSE SIERRA (SYNSTAR).
     S,P,D,L SHELL ROTATED AXIS INTEGRALS PROGRAMMED BY
        KAZUYA ISHIMURA (INSTITUTE FOR MOLECULAR SCIENCE).
     S,P,D,F,G SHELL TO TOTAL QUARTET ANGULAR MOMENTUM SUM 5,
        ERIC PROGRAM BY GRAHAM FLETCHER (ELORET AND NASA ADVANCED
        SUPERCOMPUTING DIVISION, AMES RESEARCH CENTER).
     S,P,D,F,G,L SHELL GENERAL RYS QUADRATURE PROGRAMMED BY
        MICHEL DUPUIS (PACIFIC NORTHWEST NATIONAL LABORATORY).

          --------------------
          2 ELECTRON INTEGRALS
          --------------------

 THE -PK- OPTION IS OFF, THE INTEGRALS ARE NOT IN SUPERMATRIX FORM.
 STORING   15000 INTEGRALS/RECORD ON DISK, USING 12 BYTES/INTEGRAL.
 TWO ELECTRON INTEGRAL EVALUATION REQUIRES   90606 WORDS OF MEMORY.
 II,JST,KST,LST =  1  1  1  1 NREC =         1 INTLOC =    1
 II,JST,KST,LST =  2  1  1  1 NREC =         1 INTLOC =    2
 II,JST,KST,LST =  3  1  1  1 NREC =         1 INTLOC =    7
 II,JST,KST,LST =  4  1  1  1 NREC =         1 INTLOC =   22
 II,JST,KST,LST =  5  1  1  1 NREC =         1 INTLOC =   56
 II,JST,KST,LST =  6  1  1  1 NREC =         1 INTLOC =  125
 II,JST,KST,LST =  7  1  1  1 NREC =         1 INTLOC =  329
 II,JST,KST,LST =  8  1  1  1 NREC =         1 INTLOC =  776
 II,JST,KST,LST =  9  1  1  1 NREC =         1 INTLOC = 2864
 II,JST,KST,LST = 10  1  1  1 NREC =         1 INTLOC = 4998
 II,JST,KST,LST = 11  1  1  1 NREC =         1 INTLOC = 7666
 II,JST,KST,LST = 12  1  1  1 NREC =         1 INTLOC =10784
 II,JST,KST,LST = 13  1  1  1 NREC =         2 INTLOC = 6718
 II,JST,KST,LST = 14  1  1  1 NREC =         3 INTLOC = 6993
 II,JST,KST,LST = 15  1  1  1 NREC =         6 INTLOC = 9045
 II,JST,KST,LST = 16  1  1  1 NREC =         7 INTLOC = 3659
 II,JST,KST,LST = 17  1  1  1 NREC =         8 INTLOC = 1047
 II,JST,KST,LST = 18  1  1  1 NREC =         8 INTLOC =14679
 II,JST,KST,LST = 19  1  1  1 NREC =        11 INTLOC =12328
 II,JST,KST,LST = 20  1  1  1 NREC =        15 INTLOC = 5282
 TOTAL NUMBER OF NONZERO TWO-ELECTRON INTEGRALS =              353927
         24 INTEGRAL RECORDS WERE STORED ON DISK FILE  8.
  ...... END OF TWO-ELECTRON INTEGRALS .....
 STEP CPU TIME =     0.10 TOTAL CPU TIME =          0.2 (      0.0 MIN)
 TOTAL WALL CLOCK TIME=          0.2 SECONDS, CPU UTILIZATION IS    93.75%

          --------------------------
               R-PBE SCF CALCULATION
          --------------------------

     NUCLEAR ENERGY =       113.1694438024
     MAXIT =   30     NPUNCH=    2
     EXTRAP=T  DAMP=F  SHIFT=F  RSTRCT=F  DIIS=T  DEM=F  SOSCF=F
         DENSITY MATRIX CONVERGENCE THRESHOLD=  1.00E-05
     COARSE -> FINE DFT GRID SWITCH THRESHOLD=  3.00E-04 (SWITCH IN $DFT)
                   HF -> DFT SWITCH THRESHOLD=  5.00E-03 (SWOFF IN $DFT)
     MEMORY REQUIRED FOR RHF ITERS=    183108 WORDS.

 DFT CODE IS SWITCHING FROM THE FINE GRID NRAD= 96,  NLEB=  302
                      TO THE COARSE GRID NRAD0= 24, NLEB0=  110

     EXCHANGE FUNCTIONAL   =PBE       
     CORRELATION FUNCTIONAL=PBE       
     DFT THRESHOLD         =.460E-07
     GRID CHANGE THRESHOLD =.300E-03
 FOR AN EULER-MACLAURIN QUADRATURE USING  96 RADIAL POINTS:
 SMALLEST GAUSSIAN PRIMITIVE EXPONENT=        0.1001940000 OF TYPE -P-
 ON ATOM NUMBER   1 HAS RADIAL NORMALIZATION=  1.000000
  LARGEST GAUSSIAN PRIMITIVE EXPONENT=    49299.4000000000 OF TYPE -S-
 ON ATOM NUMBER   1 HAS RADIAL NORMALIZATION=  1.000000
 DFT IS SWITCHED OFF, PERFORMING PURE SCF UNTIL SWOFF THRESHOLD IS REACHED.

 ITER EX DEM     TOTAL ENERGY        E CHANGE  DENSITY CHANGE    DIIS ERROR
   1  0  0     -546.0189615592  -546.0189615592   0.586576402   0.850022583
          * * *   INITIATING DIIS PROCEDURE   * * *
   2  1  0     -546.8848104413    -0.8658488822   0.376815984   0.233562057
   3  2  0     -546.9712785597    -0.0864681184   0.140423173   0.131446589
   4  3  0     -547.0538757734    -0.0825972137   0.015581377   0.010682939
   5  4  0     -547.0545031958    -0.0006274224   0.005314042   0.004064721
   6  5  0     -547.0545754562    -0.0000722605   0.001385557   0.001383522
 CONVERGED TO SWOFF, SO DFT CALCULATION IS NOW SWITCHED ON.
          * * *   INITIATING DIIS PROCEDURE   * * *
   7  6  0     -548.1703036817    -1.1157282255   0.296486116   0.091758091
   8  7  0     -548.1784480178    -0.0081443361   0.248201092   0.079659285
   9  8  0     -548.1770020565     0.0014459613   0.093175375   0.075951760
  10  9  0     -548.2020345214    -0.0250324649   0.020159682   0.009028187
  11 10  0     -548.2023763796    -0.0003418583   0.001390860   0.000947642
  12 11  0     -548.2023784980    -0.0000021184   0.000302849   0.000305143
  13 12  0     -548.2023787111    -0.0000002131   0.000079393   0.000028421
 DFT CODE IS SWITCHING BACK TO THE FINE GRID
          * * *   INITIATING DIIS PROCEDURE   * * *
  14 13  0     -548.1826952626     0.0196834485   0.006255426   0.007173034
  15 14  0     -548.1828132849    -0.0001180223   0.006342214   0.003013587
  16 15  0     -548.1827860213     0.0000272636   0.005285448   0.003448582
  17 16  0     -548.1828366364    -0.0000506151   0.001399844   0.000756344
  18 17  0     -548.1828363937     0.0000002427   0.000901775   0.001014466
  19 18  0     -548.1828390819    -0.0000026883   0.000136005   0.000053267
  20 19  0     -548.1828390961    -0.0000000142   0.000004281   0.000003388
  21 20  0     -548.1828390962    -0.0000000000   0.000001045   0.000000788
  22 21  0     -548.1828390962    -0.0000000000   0.000000129   0.000000057

          -----------------
          DENSITY CONVERGED
          -----------------
     TIME TO FORM FOCK OPERATORS=       2.6 SECONDS (       0.1 SEC/ITER)
     TIME TO SOLVE SCF EQUATIONS=       0.0 SECONDS (       0.0 SEC/ITER)

 FINAL R-PBE ENERGY IS     -548.1828390962 AFTER  22 ITERATIONS
 DFT EXCHANGE + CORRELATION ENERGY =       -42.6411265272
 TOTAL ELECTRON NUMBER             =        32.0000268944

          ------------
          EIGENVECTORS
          ------------

                      1          2          3          4          5
                  -88.2147   -18.7693   -18.7693    -7.8387    -5.8635
                     A          A          A          A          A   
    1  S  1  S    0.997745  -0.000001  -0.000054  -0.308336  -0.000000
    2  S  1  S    0.008365   0.000006   0.000360   1.031382   0.000000
    3  S  1  S   -0.003517   0.000000   0.000012   0.028714  -0.000000
    4  S  1  S    0.000594   0.000131   0.008191  -0.005903  -0.000000
    5  S  1  X   -0.000000  -0.000107   0.000002  -0.000000   0.994289
    6  S  1  Y    0.000201   0.000000   0.000008   0.009623  -0.000001
    7  S  1  Z    0.000000   0.000000   0.000000   0.000000   0.000000
    8  S  1  X    0.000000  -0.001092   0.000017  -0.000000   0.018103
    9  S  1  Y   -0.000834   0.000021   0.001353   0.001529  -0.000000
   10  S  1  Z    0.000000   0.000000   0.000000   0.000000   0.000000
   11  S  1  X    0.000000  -0.002568   0.000041   0.000000  -0.002732
   12  S  1  Y   -0.000009   0.000058   0.003659  -0.000266  -0.000000
   13  S  1  Z    0.000000   0.000000   0.000000   0.000000   0.000000
   14  S  1 XX   -0.000193   0.000002   0.000123   0.000394  -0.000000
   15  S  1 YY   -0.000097  -0.000002  -0.000101   0.000017  -0.000000
   16  S  1 ZZ    0.000290  -0.000000  -0.000022  -0.000411   0.000000
   17  S  1 XY    0.000000   0.000772  -0.000012  -0.000000   0.001616
   18  S  1 XZ    0.000000   0.000000   0.000000   0.000000   0.000000
   19  S  1 YZ    0.000000   0.000000   0.000000   0.000000   0.000000
   20  O  2  S   -0.000025  -0.690966   0.713382  -0.000256  -0.000609
   21  O  2  S   -0.000124  -0.023809   0.024425  -0.000206   0.000425
   22  O  2  S    0.000709   0.010810  -0.012685  -0.000267  -0.001246
   23  O  2  X   -0.000122   0.000987  -0.000783  -0.000077  -0.000769
   24  O  2  Y   -0.000095   0.000938  -0.000780  -0.000102  -0.000744
   25  O  2  Z    0.000000   0.000000   0.000000   0.000000   0.000000
   26  O  2  X   -0.000459  -0.002135   0.001850   0.000692   0.000835
   27  O  2  Y   -0.000462  -0.001512   0.001705   0.000736   0.001010
   28  O  2  Z    0.000000   0.000000   0.000000   0.000000   0.000000
   29  O  2 XX    0.000107   0.000347   0.000202   0.000180   0.000277
   30  O  2 YY    0.000055  -0.000093  -0.000134   0.000119   0.000304
   31  O  2 ZZ   -0.000162  -0.000254  -0.000067  -0.000299  -0.000581
   32  O  2 XY    0.000285  -0.000039  -0.000236   0.000529   0.000986
   33  O  2 XZ    0.000000   0.000000   0.000000   0.000000   0.000000
   34  O  2 YZ    0.000000   0.000000   0.000000   0.000000   0.000000
   35  O  3  S   -0.000025   0.713372   0.690976  -0.000256   0.000609
   36  O  3  S   -0.000124   0.024576   0.023653  -0.000206  -0.000425
   37  O  3  S    0.000709  -0.011209  -0.012334  -0.000267   0.001246
   38  O  3  X    0.000122   0.001012   0.000751   0.000077  -0.000769
   39  O  3  Y   -0.000095  -0.000963  -0.000750  -0.000102   0.000744
   40  O  3  Z    0.000000   0.000000   0.000000   0.000000   0.000000
   41  O  3  X    0.000459  -0.002193  -0.001781  -0.000692   0.000835
   42  O  3  Y   -0.000462   0.001565   0.001656   0.000736  -0.001010
   43  O  3  Z    0.000000   0.000000   0.000000   0.000000   0.000000
   44  O  3 XX    0.000107  -0.000341   0.000213   0.000180  -0.000277
   45  O  3 YY    0.000055   0.000089  -0.000137   0.000119  -0.000304
   46  O  3 ZZ   -0.000162   0.000252  -0.000075  -0.000299   0.000581
   47  O  3 XY   -0.000285  -0.000032   0.000237  -0.000529   0.000986
   48  O  3 XZ    0.000000   0.000000   0.000000   0.000000   0.000000
   49  O  3 YZ    0.000000   0.000000   0.000000   0.000000   0.000000

                      6          7          8          9         10
                   -5.8635    -5.8580    -1.0974    -0.9482    -0.5804
                     A          A          A          A          A   
    1  S  1  S    0.000000   0.003113   0.052524  -0.000000   0.065895
    2  S  1  S    0.000000  -0.010783  -0.319928   0.000000  -0.422098
    3  S  1  S    0.000000   0.000092   0.441500  -0.000000   0.652220
    4  S  1  S    0.000000   0.002417   0.062496   0.000006   0.252206
    5  S  1  X    0.000000   0.000001  -0.000000   0.141294   0.000000
    6  S  1  Y    0.000000   0.994422  -0.092016  -0.000000   0.097358
    7  S  1  Z    0.994780   0.000000   0.000000   0.000000   0.000000
    8  S  1  X    0.000000   0.000000   0.000001  -0.316344  -0.000001
    9  S  1  Y    0.000000   0.017395   0.193772   0.000002  -0.240939
   10  S  1  Z    0.016520   0.000000   0.000000   0.000000   0.000000
   11  S  1  X    0.000000  -0.000000   0.000001   0.010858  -0.000001
   12  S  1  Y    0.000000  -0.002303  -0.019235   0.000003  -0.066152
   13  S  1  Z   -0.003140   0.000000   0.000000   0.000000   0.000000
   14  S  1 XX    0.000000  -0.000293   0.022847   0.000000   0.005833
   15  S  1 YY    0.000000   0.001135   0.020509   0.000000  -0.031255
   16  S  1 ZZ    0.000000  -0.000843  -0.043356  -0.000001   0.025422
   17  S  1 XY    0.000000   0.000000   0.000001  -0.107251  -0.000000
   18  S  1 XZ   -0.000000   0.000000   0.000000   0.000000   0.000000
   19  S  1 YZ    0.000747   0.000000   0.000000   0.000000   0.000000
   20  O  2  S    0.000000  -0.000561  -0.132095   0.162168   0.097816
   21  O  2  S    0.000000   0.000572   0.266311  -0.332688  -0.206867
   22  O  2  S    0.000000  -0.001464   0.197084  -0.272774  -0.267372
   23  O  2  X    0.000000  -0.000787  -0.104183   0.070094  -0.048691
   24  O  2  Y    0.000000  -0.000756  -0.082689   0.096519  -0.138277
   25  O  2  Z    0.000031   0.000000   0.000000   0.000000   0.000000
   26  O  2  X    0.000000   0.000908  -0.017280   0.007207  -0.022581
   27  O  2  Y    0.000000   0.000404  -0.015687   0.013104  -0.065456
   28  O  2  Z   -0.000321   0.000000   0.000000   0.000000   0.000000
   29  O  2 XX    0.000000   0.000337   0.003567  -0.000105  -0.002278
   30  O  2 YY    0.000000   0.000258   0.002824  -0.003003   0.006617
   31  O  2 ZZ    0.000000  -0.000595  -0.006391   0.003108  -0.004340
   32  O  2 XY    0.000000   0.001034   0.013879  -0.009408   0.007648
   33  O  2 XZ   -0.000038   0.000000   0.000000   0.000000   0.000000
   34  O  2 YZ   -0.000062   0.000000   0.000000   0.000000   0.000000
   35  O  3  S    0.000000  -0.000561  -0.132095  -0.162168   0.097816
   36  O  3  S    0.000000   0.000572   0.266310   0.332689  -0.206867
   37  O  3  S    0.000000  -0.001464   0.197090   0.272764  -0.267374
   38  O  3  X    0.000000   0.000787   0.104184   0.070094   0.048692
   39  O  3  Y    0.000000  -0.000756  -0.082689  -0.096519  -0.138277
   40  O  3  Z    0.000031   0.000000   0.000000   0.000000   0.000000
   41  O  3  X    0.000000  -0.000908   0.017282   0.007203   0.022581
   42  O  3  Y    0.000000   0.000404  -0.015688  -0.013102  -0.065456
   43  O  3  Z   -0.000321   0.000000   0.000000   0.000000   0.000000
   44  O  3 XX    0.000000   0.000337   0.003567   0.000105  -0.002278
   45  O  3 YY    0.000000   0.000258   0.002824   0.003003   0.006617
   46  O  3 ZZ    0.000000  -0.000595  -0.006392  -0.003108  -0.004340
   47  O  3 XY    0.000000  -0.001034  -0.013879  -0.009408  -0.007648
   48  O  3 XZ    0.000038   0.000000   0.000000   0.000000   0.000000
   49  O  3 YZ   -0.000062   0.000000   0.000000   0.000000   0.000000

                     11         12         13         14         15
                   -0.4668    -0.4444    -0.4257    -0.3125    -0.3100
                     A          A          A          A          A   
    1  S  1  S    0.000000  -0.000050   0.000000   0.000000   0.017273
    2  S  1  S    0.000000  -0.001335  -0.000001   0.000000  -0.112722
    3  S  1  S    0.000000   0.046263   0.000000   0.000000   0.138147
    4  S  1  S    0.000000  -0.173938   0.000001   0.000000   0.364710
    5  S  1  X    0.000000  -0.000000  -0.178891   0.000000   0.000000
    6  S  1  Y    0.000000  -0.178690   0.000000   0.000000   0.122957
    7  S  1  Z   -0.216132   0.000000   0.000000  -0.000000   0.000000
    8  S  1  X    0.000000   0.000001   0.487654   0.000000  -0.000000
    9  S  1  Y    0.000000   0.478413  -0.000001   0.000000  -0.333911
   10  S  1  Z    0.574237   0.000000   0.000000   0.000001   0.000000
   11  S  1  X    0.000000   0.000001   0.014026   0.000000   0.000001
   12  S  1  Y    0.000000   0.028176   0.000000   0.000000  -0.054412
   13  S  1  Z    0.111641   0.000000   0.000000   0.000000   0.000000
   14  S  1 XX    0.000000  -0.061239  -0.000000   0.000000  -0.140895
   15  S  1 YY    0.000000   0.079847   0.000000   0.000000   0.091263
   16  S  1 ZZ    0.000000  -0.018608   0.000000   0.000000   0.049632
   17  S  1 XY    0.000000   0.000000   0.051564   0.000000  -0.000000
   18  S  1 XZ   -0.000000   0.000000   0.000000   0.133457   0.000000
   19  S  1 YZ    0.070691   0.000000   0.000000  -0.000000   0.000000
   20  O  2  S    0.000000   0.060927   0.076911   0.000000  -0.000002
   21  O  2  S    0.000000  -0.127698  -0.158951   0.000000  -0.004732
   22  O  2  S    0.000000  -0.210633  -0.290073   0.000000  -0.008616
   23  O  2  X    0.000000  -0.347484  -0.179058   0.000000  -0.078687
   24  O  2  Y    0.000000   0.008506  -0.321088   0.000000   0.407765
   25  O  2  Z    0.302802   0.000000   0.000000   0.469642   0.000000
   26  O  2  X    0.000000  -0.182371  -0.078546   0.000000  -0.077611
   27  O  2  Y    0.000000   0.023277  -0.155747   0.000000   0.284298
   28  O  2  Z    0.170134   0.000000   0.000000   0.334453   0.000000
   29  O  2 XX    0.000000   0.018083  -0.002677   0.000000   0.009761
   30  O  2 YY    0.000000  -0.011233   0.011768   0.000000  -0.014856
   31  O  2 ZZ    0.000000  -0.006850  -0.009091   0.000000   0.005095
   32  O  2 XY    0.000000   0.008564   0.011627   0.000000  -0.011842
   33  O  2 XZ   -0.017939   0.000000   0.000000  -0.015447   0.000000
   34  O  2 YZ   -0.015638   0.000000   0.000000  -0.018539   0.000000
   35  O  3  S    0.000000   0.060927  -0.076910   0.000000  -0.000002
   36  O  3  S    0.000000  -0.127699   0.158949   0.000000  -0.004733
   37  O  3  S    0.000000  -0.210631   0.290072   0.000000  -0.008615
   38  O  3  X    0.000000   0.347485  -0.179057   0.000000   0.078690
   39  O  3  Y    0.000000   0.008506   0.321088   0.000000   0.407765
   40  O  3  Z    0.302803   0.000000   0.000000  -0.469642   0.000000
   41  O  3  X    0.000000   0.182373  -0.078546   0.000000   0.077613
   42  O  3  Y    0.000000   0.023277   0.155747   0.000000   0.284298
   43  O  3  Z    0.170135   0.000000   0.000000  -0.334453   0.000000
   44  O  3 XX    0.000000   0.018083   0.002677   0.000000   0.009761
   45  O  3 YY    0.000000  -0.011234  -0.011768   0.000000  -0.014856
   46  O  3 ZZ    0.000000  -0.006850   0.009091   0.000000   0.005095
   47  O  3 XY    0.000000  -0.008564   0.011627   0.000000   0.011842
   48  O  3 XZ    0.017939   0.000000   0.000000  -0.015447   0.000000
   49  O  3 YZ   -0.015638   0.000000   0.000000   0.018539   0.000000

                     16         17         18         19         20
                   -0.2550    -0.1582    -0.0124     0.0645     0.1967
                     A          A          A          A          A   
    1  S  1  S   -0.000000   0.000000  -0.000000   0.022469   0.000000
    2  S  1  S    0.000000   0.000000   0.000001  -0.152680   0.000000
    3  S  1  S   -0.000002   0.000000  -0.000001   0.145325   0.000000
    4  S  1  S    0.000009   0.000000  -0.000010   1.055754   0.000000
    5  S  1  X   -0.012949   0.000000  -0.163106  -0.000002   0.000000
    6  S  1  Y   -0.000001   0.000000   0.000001  -0.079314   0.000000
    7  S  1  Z    0.000000  -0.223224   0.000000   0.000000   0.249595
    8  S  1  X    0.034157   0.000000   0.500582   0.000009   0.000000
    9  S  1  Y    0.000003   0.000000  -0.000004   0.267559   0.000000
   10  S  1  Z    0.000000   0.672474   0.000000   0.000000  -0.976487
   11  S  1  X    0.168390   0.000000   0.877170   0.000001   0.000000
   12  S  1  Y    0.000006   0.000000  -0.000008   1.225784   0.000000
   13  S  1  Z    0.000000   0.383047   0.000000   0.000000   1.291156
   14  S  1 XX    0.000001   0.000000   0.000000  -0.086903   0.000000
   15  S  1 YY   -0.000000   0.000000   0.000000  -0.172149   0.000000
   16  S  1 ZZ   -0.000001   0.000000  -0.000001   0.259052   0.000000
   17  S  1 XY   -0.124579   0.000000  -0.250163  -0.000001   0.000000
   18  S  1 XZ    0.000000  -0.000000   0.000000   0.000000   0.000000
   19  S  1 YZ    0.000000  -0.119760   0.000000   0.000000  -0.091881
   20  O  2  S    0.012837   0.000000   0.041190   0.063196   0.000000
   21  O  2  S   -0.032896   0.000000  -0.078010  -0.095611   0.000000
   22  O  2  S   -0.066051   0.000000  -0.384805  -0.752638   0.000000
   23  O  2  X    0.450919   0.000000  -0.049384   0.160340   0.000000
   24  O  2  Y   -0.188961   0.000000   0.295274   0.069016   0.000000
   25  O  2  Z    0.000000  -0.360974   0.000000   0.000000   0.007089
   26  O  2  X    0.295372   0.000000  -0.094895   0.284987   0.000000
   27  O  2  Y   -0.150205   0.000000   0.273845   0.039267   0.000000
   28  O  2  Z    0.000000  -0.337821   0.000000   0.000000  -0.099925
   29  O  2 XX   -0.019643   0.000000   0.003026  -0.006803   0.000000
   30  O  2 YY    0.019583   0.000000   0.002135  -0.004905   0.000000
   31  O  2 ZZ    0.000061   0.000000  -0.005162   0.011708   0.000000
   32  O  2 XY   -0.007159   0.000000   0.004594   0.003412   0.000000
   33  O  2 XZ    0.000000   0.005145   0.000000   0.000000   0.020059
   34  O  2 YZ    0.000000   0.000037   0.000000   0.000000   0.014122
   35  O  3  S   -0.012837   0.000000  -0.041191   0.063196   0.000000
   36  O  3  S    0.032898   0.000000   0.078008  -0.095615   0.000000
   37  O  3  S    0.066039   0.000000   0.384820  -0.752627   0.000000
   38  O  3  X    0.450917   0.000000  -0.049382  -0.160345   0.000000
   39  O  3  Y    0.188959   0.000000  -0.295275   0.069010   0.000000
   40  O  3  Z    0.000000  -0.360974   0.000000   0.000000   0.007089
   41  O  3  X    0.295366   0.000000  -0.094889  -0.284982   0.000000
   42  O  3  Y    0.150206   0.000000  -0.273847   0.039260   0.000000
   43  O  3  Z    0.000000  -0.337821   0.000000   0.000000  -0.099925
   44  O  3 XX    0.019643   0.000000  -0.003026  -0.006802   0.000000
   45  O  3 YY   -0.019583   0.000000  -0.002135  -0.004905   0.000000
   46  O  3 ZZ   -0.000060   0.000000   0.005161   0.011707   0.000000
   47  O  3 XY   -0.007159   0.000000   0.004594  -0.003412   0.000000
   48  O  3 XZ    0.000000  -0.005145   0.000000   0.000000  -0.020059
   49  O  3 YZ    0.000000   0.000037   0.000000   0.000000   0.014122

                     21         22         23         24         25
                    0.2305     0.2888     0.3403     0.5529     0.5574
                     A          A          A          A          A   
    1  S  1  S   -0.048850  -0.000000  -0.050776   0.000000   0.000000
    2  S  1  S    0.358338   0.000001   0.369440   0.000000   0.000000
    3  S  1  S   -1.378592  -0.000007  -1.320784   0.000000   0.000000
    4  S  1  S    1.871371   0.000004   1.365296   0.000000   0.000000
    5  S  1  X   -0.000002   0.267728  -0.000001   0.000000   0.000000
    6  S  1  Y   -0.204125  -0.000001   0.203719   0.000000   0.000000
    7  S  1  Z    0.000000   0.000000   0.000000  -0.000000   0.014312
    8  S  1  X    0.000008  -1.015665   0.000005   0.000000   0.000000
    9  S  1  Y    0.833157   0.000002  -0.755988   0.000000   0.000000
   10  S  1  Z    0.000000   0.000000   0.000000   0.000001  -0.083791
   11  S  1  X   -0.000006   1.323261   0.000003   0.000000   0.000000
   12  S  1  Y   -0.462000  -0.000003   0.972915   0.000000   0.000000
   13  S  1  Z    0.000000   0.000000   0.000000  -0.000001   0.181917
   14  S  1 XX   -0.096000  -0.000002   0.282187   0.000000   0.000000
   15  S  1 YY   -0.040801  -0.000002   0.075516   0.000000   0.000000
   16  S  1 ZZ    0.136801   0.000004  -0.357702   0.000000   0.000000
   17  S  1 XY   -0.000000   0.326696   0.000004   0.000000   0.000000
   18  S  1 XZ    0.000000   0.000000   0.000000   0.950503   0.000008
   19  S  1 YZ    0.000000   0.000000   0.000000  -0.000008   0.922061
   20  O  2  S    0.024559   0.002914  -0.000908   0.000000   0.000000
   21  O  2  S   -0.054378   0.056620   0.063327   0.000000   0.000000
   22  O  2  S   -0.341274  -0.366929  -0.452062   0.000000   0.000000
   23  O  2  X    0.011869  -0.180146  -0.254290   0.000000   0.000000
   24  O  2  Y   -0.026269  -0.146082  -0.197233   0.000000   0.000000
   25  O  2  Z    0.000000   0.000000   0.000000  -0.301508  -0.332599
   26  O  2  X    0.141431  -0.086071  -0.046072   0.000000   0.000000
   27  O  2  Y    0.125053  -0.001556  -0.048463   0.000000   0.000000
   28  O  2  Z    0.000000   0.000000   0.000000  -0.002048   0.029873
   29  O  2 XX    0.004075   0.006075  -0.035170   0.000000   0.000000
   30  O  2 YY   -0.017184  -0.027294   0.015198   0.000000   0.000000
   31  O  2 ZZ    0.013109   0.021219   0.019972   0.000000   0.000000
   32  O  2 XY   -0.010908  -0.030861  -0.043907   0.000000   0.000000
   33  O  2 XZ    0.000000   0.000000   0.000000  -0.013123  -0.050063
   34  O  2 YZ    0.000000   0.000000   0.000000  -0.050554  -0.002964
   35  O  3  S    0.024559  -0.002913  -0.000908   0.000000   0.000000
   36  O  3  S   -0.054380  -0.056625   0.063322   0.000000   0.000000
   37  O  3  S   -0.341271   0.366934  -0.452046   0.000000   0.000000
   38  O  3  X   -0.011869  -0.180148   0.254286   0.000000   0.000000
   39  O  3  Y   -0.026271   0.146083  -0.197233   0.000000   0.000000
   40  O  3  Z    0.000000   0.000000   0.000000   0.301514  -0.332594
   41  O  3  X   -0.141425  -0.086068   0.046083   0.000000   0.000000
   42  O  3  Y    0.125049   0.001553  -0.048471   0.000000   0.000000
   43  O  3  Z    0.000000   0.000000   0.000000   0.002047   0.029873
   44  O  3 XX    0.004076  -0.006075  -0.035169   0.000000   0.000000
   45  O  3 YY   -0.017184   0.027294   0.015198   0.000000   0.000000
   46  O  3 ZZ    0.013109  -0.021219   0.019971   0.000000   0.000000
   47  O  3 XY    0.010908  -0.030861   0.043906   0.000000   0.000000
   48  O  3 XZ    0.000000   0.000000   0.000000  -0.013124   0.050063
   49  O  3 YZ    0.000000   0.000000   0.000000   0.050554  -0.002963

                     26         27         28         29         30
                    0.6090     0.6465     0.6686     0.7658     0.8079
                     A          A          A          A          A   
    1  S  1  S    0.015630   0.023039  -0.000000   0.004322   0.000000
    2  S  1  S   -0.124592  -0.180834   0.000003  -0.034237   0.000000
    3  S  1  S    0.547302   0.779266  -0.000015   0.185823   0.000000
    4  S  1  S    0.653820   0.575427  -0.000022  -0.116694   0.000000
    5  S  1  X   -0.000001  -0.000004  -0.173582  -0.000000   0.000000
    6  S  1  Y   -0.086118  -0.138615   0.000003  -0.012970   0.000000
    7  S  1  Z    0.000000   0.000000   0.000000   0.000000   0.000000
    8  S  1  X    0.000008   0.000022   1.038546   0.000002   0.000000
    9  S  1  Y    0.499041   0.755713  -0.000017   0.030009   0.000000
   10  S  1  Z    0.000000   0.000000   0.000000   0.000000  -0.000001
   11  S  1  X    0.000002   0.000001  -0.007729  -0.000001   0.000000
   12  S  1  Y    0.261990  -0.131510  -0.000001  -0.467609   0.000000
   13  S  1  Z    0.000000   0.000000   0.000000   0.000000  -0.000005
   14  S  1 XX   -0.354113   0.785304  -0.000014   0.321625   0.000000
   15  S  1 YY    0.824308  -0.341855   0.000002  -0.380394   0.000000
   16  S  1 ZZ   -0.470195  -0.443449   0.000011   0.058768   0.000000
   17  S  1 XY    0.000005   0.000012   0.537374   0.000001   0.000000
   18  S  1 XZ    0.000000   0.000000   0.000000   0.000000   0.364996
   19  S  1 YZ    0.000000   0.000000   0.000000   0.000000  -0.000004
   20  O  2  S    0.045050   0.049465   0.069277   0.006099   0.000000
   21  O  2  S   -0.109909  -0.133332  -0.166583  -0.025516   0.000000
   22  O  2  S   -0.454886  -0.419080  -0.580300   0.089254   0.000000
   23  O  2  X    0.047991  -0.238516  -0.175771   0.384131   0.000000
   24  O  2  Y   -0.290989   0.110486  -0.230064  -0.434356   0.000000
   25  O  2  Z    0.000000   0.000000   0.000000   0.000000   0.583074
   26  O  2  X    0.536051   0.568004   0.908832  -0.451591   0.000000
   27  O  2  Y    0.419244   0.566205   0.843436   0.658825   0.000000
   28  O  2  Z    0.000000   0.000000   0.000000   0.000000  -0.852574
   29  O  2 XX    0.052921  -0.022594  -0.001393  -0.021500   0.000000
   30  O  2 YY   -0.038993   0.045359   0.005000   0.036953   0.000000
   31  O  2 ZZ   -0.013929  -0.022765  -0.003607  -0.015453   0.000000
   32  O  2 XY   -0.003437   0.017052   0.005659  -0.002237   0.000000
   33  O  2 XZ    0.000000   0.000000   0.000000   0.000000  -0.045829
   34  O  2 YZ    0.000000   0.000000   0.000000   0.000000  -0.030629
   35  O  3  S    0.045049   0.049463  -0.069280   0.006099   0.000000
   36  O  3  S   -0.109911  -0.133330   0.166592  -0.025513   0.000000
   37  O  3  S   -0.454871  -0.419049   0.580323   0.089254   0.000000
   38  O  3  X   -0.047998   0.238504  -0.175783  -0.384131   0.000000
   39  O  3  Y   -0.290987   0.110493   0.230069  -0.434355   0.000000
   40  O  3  Z    0.000000   0.000000   0.000000   0.000000  -0.583084
   41  O  3  X   -0.536031  -0.567960   0.908863   0.451594   0.000000
   42  O  3  Y    0.419233   0.566171  -0.843470   0.658822   0.000000
   43  O  3  Z    0.000000   0.000000   0.000000   0.000000   0.852589
   44  O  3 XX    0.052922  -0.022594   0.001394  -0.021501   0.000000
   45  O  3 YY   -0.038993   0.045359  -0.005001   0.036953   0.000000
   46  O  3 ZZ   -0.013929  -0.022766   0.003607  -0.015453   0.000000
   47  O  3 XY    0.003437  -0.017052   0.005660   0.002237   0.000000
   48  O  3 XZ    0.000000   0.000000   0.000000   0.000000  -0.045830
   49  O  3 YZ    0.000000   0.000000   0.000000   0.000000   0.030630

                     31         32         33         34         35
                    0.8253     0.9366     0.9462     1.2001     1.4300
                     A          A          A          A          A   
    1  S  1  S    0.000000   0.000000  -0.008957   0.000000  -0.002352
    2  S  1  S    0.000000  -0.000001   0.047018   0.000000   0.028534
    3  S  1  S    0.000000  -0.000012   0.387491   0.000001   0.024973
    4  S  1  S    0.000000   0.000013  -0.305013  -0.000012  -2.106610
    5  S  1  X    0.000000  -0.016010  -0.000001  -0.147320   0.000017
    6  S  1  Y    0.000000  -0.000003   0.094709   0.000001   0.089600
    7  S  1  Z    0.004615   0.000000   0.000000   0.000000   0.000000
    8  S  1  X    0.000000   0.049026   0.000001   0.572100  -0.000203
    9  S  1  Y    0.000000   0.000007  -0.200037  -0.000003  -0.629099
   10  S  1  Z   -0.077639   0.000000   0.000000   0.000000   0.000000
   11  S  1  X    0.000000  -0.668444  -0.000022   0.390007  -0.000216
   12  S  1  Y    0.000000   0.000007  -0.173443  -0.000005  -0.890976
   13  S  1  Z   -0.635335   0.000000   0.000000   0.000000   0.000000
   14  S  1 XX    0.000000   0.000013  -0.424034  -0.000001  -0.152919
   15  S  1 YY    0.000000   0.000010  -0.321450  -0.000002  -0.200372
   16  S  1 ZZ    0.000000  -0.000023   0.745484   0.000003   0.353291
   17  S  1 XY    0.000000   0.042369   0.000001   1.103217  -0.000001
   18  S  1 XZ   -0.000003   0.000000   0.000000   0.000000   0.000000
   19  S  1 YZ   -0.434007   0.000000   0.000000   0.000000   0.000000
   20  O  2  S    0.000000   0.013186  -0.043583   0.028048   0.067070
   21  O  2  S    0.000000  -0.092908   0.293294   0.036364  -1.229169
   22  O  2  S    0.000000   0.168270   0.054720  -0.759872   2.356286
   23  O  2  X    0.000000  -0.428722  -0.486526   0.446833  -0.110573
   24  O  2  Y    0.000000   0.453823  -0.378219   0.434356  -0.067133
   25  O  2  Z   -0.568226   0.000000   0.000000   0.000000   0.000000
   26  O  2  X    0.000000   0.837169   0.332461  -0.064480  -0.377484
   27  O  2  Y    0.000000  -0.695933   0.347402   0.009692  -0.309234
   28  O  2  Z    0.926803   0.000000   0.000000   0.000000   0.000000
   29  O  2 XX    0.000000   0.062459  -0.042173  -0.018581   0.034466
   30  O  2 YY    0.000000  -0.035494   0.011655   0.015163  -0.027323
   31  O  2 ZZ    0.000000  -0.026964   0.030518   0.003418  -0.007143
   32  O  2 XY    0.000000  -0.022981   0.046323   0.063040  -0.153195
   33  O  2 XZ    0.029810   0.000000   0.000000   0.000000   0.000000
   34  O  2 YZ    0.036180   0.000000   0.000000   0.000000   0.000000
   35  O  3  S    0.000000  -0.013185  -0.043585  -0.028047   0.067003
   36  O  3  S    0.000000   0.092904   0.293307  -0.036377  -1.228140
   37  O  3  S    0.000000  -0.168289   0.054702   0.759897   2.354801
   38  O  3  X    0.000000  -0.428754   0.486499   0.446835   0.110646
   39  O  3  Y    0.000000  -0.453799  -0.378245  -0.434358  -0.067183
   40  O  3  Z   -0.568216   0.000000   0.000000   0.000000   0.000000
   41  O  3  X    0.000000   0.837191  -0.332408  -0.064477   0.377087
   42  O  3  Y    0.000000   0.695910   0.347443  -0.009695  -0.308925
   43  O  3  Z    0.926789   0.000000   0.000000   0.000000   0.000000
   44  O  3 XX    0.000000  -0.062457  -0.042177   0.018582   0.034588
   45  O  3 YY    0.000000   0.035494   0.011658  -0.015164  -0.027321
   46  O  3 ZZ    0.000000   0.026963   0.030520  -0.003419  -0.007267
   47  O  3 XY    0.000000  -0.022978  -0.046324   0.063041   0.153146
   48  O  3 XZ   -0.029809   0.000000   0.000000   0.000000   0.000000
   49  O  3 YZ    0.036179   0.000000   0.000000   0.000000   0.000000

                     36         37         38         39         40
                    1.4358     2.0636     2.0837     2.0861     2.1000
                     A          A          A          A          A   
    1  S  1  S   -0.000001   0.000000  -0.000000   0.002174   0.000000
    2  S  1  S    0.000011   0.000000   0.000001  -0.015357   0.000000
    3  S  1  S    0.000014   0.000000  -0.000002   0.037833   0.000000
    4  S  1  S   -0.000876   0.000000   0.000016  -0.338327   0.000000
    5  S  1  X   -0.041318   0.000000  -0.025495  -0.000001   0.000000
    6  S  1  Y    0.000037   0.000000   0.000000  -0.005198   0.000000
    7  S  1  Z    0.000000  -0.012993   0.000000   0.000000   0.000000
    8  S  1  X    0.486045   0.000000   0.100455   0.000004   0.000000
    9  S  1  Y   -0.000261   0.000000   0.000001  -0.022061   0.000000
   10  S  1  Z    0.000000   0.055053   0.000000   0.000000  -0.000000
   11  S  1  X    0.505138   0.000000   0.012366   0.000001   0.000000
   12  S  1  Y   -0.000371   0.000000   0.000008  -0.178551   0.000000
   13  S  1  Z    0.000000   0.028129   0.000000   0.000000  -0.000000
   14  S  1 XX   -0.000064   0.000000  -0.000001   0.019756   0.000000
   15  S  1 YY   -0.000084   0.000000  -0.000005   0.108559   0.000000
   16  S  1 ZZ    0.000148   0.000000   0.000006  -0.128316   0.000000
   17  S  1 XY   -0.012754   0.000000  -0.124246  -0.000006   0.000000
   18  S  1 XZ    0.000000  -0.000000   0.000000   0.000000   0.002984
   19  S  1 YZ    0.000000  -0.045607   0.000000   0.000000   0.000000
   20  O  2  S   -0.080709   0.000000  -0.003622   0.014308   0.000000
   21  O  2  S    1.240143   0.000000   0.055550  -0.229512   0.000000
   22  O  2  S   -1.780514   0.000000  -0.054159   0.366350   0.000000
   23  O  2  X   -0.096218   0.000000   0.000365   0.052566   0.000000
   24  O  2  Y   -0.062789   0.000000  -0.031593   0.010042   0.000000
   25  O  2  Z    0.000000   0.036946   0.000000   0.000000   0.042229
   26  O  2  X    0.490046   0.000000  -0.011738  -0.101943   0.000000
   27  O  2  Y    0.367943   0.000000   0.036153  -0.036719   0.000000
   28  O  2  Z    0.000000  -0.057777   0.000000   0.000000  -0.066381
   29  O  2 XX    0.153584   0.000000   0.138703  -0.374332   0.000000
   30  O  2 YY    0.000828   0.000000  -0.615400  -0.253529   0.000000
   31  O  2 ZZ   -0.154411   0.000000   0.476697   0.627861   0.000000
   32  O  2 XY    0.059144   0.000000   0.298773   0.308526   0.000000
   33  O  2 XZ    0.000000  -0.392977   0.000000   0.000000   0.585631
   34  O  2 YZ    0.000000   0.587602   0.000000   0.000000  -0.399867
   35  O  3  S    0.080764   0.000000   0.003620   0.014308   0.000000
   36  O  3  S   -1.241154   0.000000  -0.055529  -0.229517   0.000000
   37  O  3  S    1.782462   0.000000   0.054125   0.366355   0.000000
   38  O  3  X   -0.096126   0.000000   0.000370  -0.052565   0.000000
   39  O  3  Y    0.062733   0.000000   0.031593   0.010045   0.000000
   40  O  3  Z    0.000000   0.036946   0.000000   0.000000  -0.042229
   41  O  3  X    0.490360   0.000000  -0.011748   0.101941   0.000000
   42  O  3  Y   -0.368197   0.000000  -0.036150  -0.036722   0.000000
   43  O  3  Z    0.000000  -0.057777   0.000000   0.000000   0.066381
   44  O  3 XX   -0.153555   0.000000  -0.138669  -0.374347   0.000000
   45  O  3 YY   -0.000851   0.000000   0.615423  -0.253472   0.000000
   46  O  3 ZZ    0.154406   0.000000  -0.476754   0.627820   0.000000
   47  O  3 XY    0.059272   0.000000   0.298801  -0.308499   0.000000
   48  O  3 XZ    0.000000   0.392982   0.000000   0.000000   0.585627
   49  O  3 YZ    0.000000   0.587606   0.000000   0.000000   0.399862

                     41         42         43         44         45
                    2.2736     2.3264     2.3543     2.4721     2.8553
                     A          A          A          A          A   
    1  S  1  S    0.000000  -0.000000   0.000000  -0.002903   0.039406
    2  S  1  S    0.000000   0.000001   0.000000   0.029422  -0.358483
    3  S  1  S    0.000000  -0.000005   0.000000  -0.169983   1.386295
    4  S  1  S    0.000000   0.000007   0.000000  -0.115991   0.846578
    5  S  1  X    0.000000  -0.047657   0.000000   0.000000  -0.000003
    6  S  1  Y    0.000000   0.000000   0.000000  -0.053130  -0.176538
    7  S  1  Z   -0.000000   0.000000  -0.086425   0.000000   0.000000
    8  S  1  X    0.000000   0.113047   0.000000  -0.000002   0.000016
    9  S  1  Y    0.000000  -0.000001   0.000000   0.144997   1.217655
   10  S  1  Z    0.000001   0.000000   0.354185   0.000000   0.000000
   11  S  1  X    0.000000   0.051752   0.000000   0.000000   0.000003
   12  S  1  Y    0.000000   0.000004   0.000000   0.033265   0.120373
   13  S  1  Z    0.000000   0.000000   0.075269   0.000000   0.000000
   14  S  1 XX    0.000000  -0.000001   0.000000  -0.568049   0.230011
   15  S  1 YY    0.000000   0.000001   0.000000   0.546003   0.196563
   16  S  1 ZZ    0.000000  -0.000000   0.000000   0.022046  -0.426574
   17  S  1 XY    0.000000   0.071394   0.000000  -0.000001   0.000010
   18  S  1 XZ   -0.470701   0.000000   0.000001   0.000000   0.000000
   19  S  1 YZ    0.000001   0.000000   0.449705   0.000000   0.000000
   20  O  2  S    0.000000   0.018220   0.000000   0.008584   0.005438
   21  O  2  S    0.000000  -0.293933   0.000000  -0.148301   0.468878
   22  O  2  S    0.000000   0.331747   0.000000   0.207316  -1.349213
   23  O  2  X    0.000000   0.169482   0.000000   0.044823   0.063534
   24  O  2  Y    0.000000  -0.025453   0.000000   0.023138   0.041865
   25  O  2  Z   -0.049537   0.000000   0.032988   0.000000   0.000000
   26  O  2  X    0.000000  -0.364859   0.000000   0.016315   0.587344
   27  O  2  Y    0.000000   0.096181   0.000000  -0.227348   0.536430
   28  O  2  Z    0.177520   0.000000  -0.199909   0.000000   0.000000
   29  O  2 XX    0.000000   0.664199   0.000000  -0.608143  -0.312623
   30  O  2 YY    0.000000  -0.337665   0.000000   0.725674  -0.080217
   31  O  2 ZZ    0.000000  -0.326534   0.000000  -0.117532   0.392839
   32  O  2 XY    0.000000  -0.280576   0.000000   0.070482  -0.752123
   33  O  2 XZ   -0.427312   0.000000   0.629610   0.000000   0.000000
   34  O  2 YZ   -0.613612   0.000000   0.427833   0.000000   0.000000
   35  O  3  S    0.000000  -0.018220   0.000000   0.008584   0.005437
   36  O  3  S    0.000000   0.293936   0.000000  -0.148301   0.468870
   37  O  3  S    0.000000  -0.331755   0.000000   0.207313  -1.349184
   38  O  3  X    0.000000   0.169482   0.000000  -0.044823  -0.063531
   39  O  3  Y    0.000000   0.025454   0.000000   0.023138   0.041863
   40  O  3  Z    0.049537   0.000000   0.032988   0.000000   0.000000
   41  O  3  X    0.000000  -0.364859   0.000000  -0.016316  -0.587334
   42  O  3  Y    0.000000  -0.096182   0.000000  -0.227346   0.536416
   43  O  3  Z   -0.177521   0.000000  -0.199908   0.000000   0.000000
   44  O  3 XX    0.000000  -0.664198   0.000000  -0.608142  -0.312621
   45  O  3 YY    0.000000   0.337669   0.000000   0.725672  -0.080210
   46  O  3 ZZ    0.000000   0.326529   0.000000  -0.117530   0.392831
   47  O  3 XY    0.000000  -0.280580   0.000000  -0.070479   0.752106
   48  O  3 XZ   -0.427315   0.000000  -0.629608   0.000000   0.000000
   49  O  3 YZ    0.613613   0.000000   0.427830   0.000000   0.000000

                     46
                    2.9035
                     A   
    1  S  1  S   -0.000000
    2  S  1  S    0.000004
    3  S  1  S   -0.000014
    4  S  1  S   -0.000015
    5  S  1  X   -0.231979
    6  S  1  Y    0.000002
    7  S  1  Z    0.000000
    8  S  1  X    1.568575
    9  S  1  Y   -0.000014
   10  S  1  Z    0.000000
   11  S  1  X    0.130893
   12  S  1  Y   -0.000004
   13  S  1  Z    0.000000
   14  S  1 XX   -0.000004
   15  S  1 YY   -0.000002
   16  S  1 ZZ    0.000006
   17  S  1 XY    0.893257
   18  S  1 XZ    0.000000
   19  S  1 YZ    0.000000
   20  O  2  S    0.011215
   21  O  2  S    0.530180
   22  O  2  S   -1.587913
   23  O  2  X    0.086559
   24  O  2  Y    0.116585
   25  O  2  Z    0.000000
   26  O  2  X    0.768218
   27  O  2  Y    0.631802
   28  O  2  Z    0.000000
   29  O  2 XX   -0.284512
   30  O  2 YY   -0.202215
   31  O  2 ZZ    0.486726
   32  O  2 XY   -0.755727
   33  O  2 XZ    0.000000
   34  O  2 YZ    0.000000
   35  O  3  S   -0.011215
   36  O  3  S   -0.530193
   37  O  3  S    1.587951
   38  O  3  X    0.086561
   39  O  3  Y   -0.116586
   40  O  3  Z    0.000000
   41  O  3  X    0.768233
   42  O  3  Y   -0.631816
   43  O  3  Z    0.000000
   44  O  3 XX    0.284516
   45  O  3 YY    0.202219
   46  O  3 ZZ   -0.486734
   47  O  3 XY   -0.755743
   48  O  3 XZ    0.000000
   49  O  3 YZ    0.000000
 ...... END OF RHF CALCULATION ......
 STEP CPU TIME =     2.66 TOTAL CPU TIME =          2.8 (      0.0 MIN)
 TOTAL WALL CLOCK TIME=          2.9 SECONDS, CPU UTILIZATION IS    98.25%

     ---------------------------------------------------------------------
     PROPERTIES FOR THE PBE      DFT FUNCTIONAL (RHF  TYPE) DENSITY MATRIX
     ---------------------------------------------------------------------

          -----------------
          ENERGY COMPONENTS
          -----------------

         WAVEFUNCTION NORMALIZATION =       1.0000000000

                ONE ELECTRON ENERGY =    -980.3979511329
                TWO ELECTRON ENERGY =     319.0456682344
           NUCLEAR REPULSION ENERGY =     113.1694438024
                                      ------------------
                       TOTAL ENERGY =    -548.1828390962

 ELECTRON-ELECTRON POTENTIAL ENERGY =     319.0456682344
  NUCLEUS-ELECTRON POTENTIAL ENERGY =   -1528.5901740433
   NUCLEUS-NUCLEUS POTENTIAL ENERGY =     113.1694438024
                                      ------------------
             TOTAL POTENTIAL ENERGY =   -1096.3750620066
               TOTAL KINETIC ENERGY =     548.1922229104
                 VIRIAL RATIO (V/T) =       1.9999828823

          ---------------------------------------
          MULLIKEN AND LOWDIN POPULATION ANALYSES
          ---------------------------------------

     ATOMIC MULLIKEN POPULATION IN EACH MOLECULAR ORBITAL

                      1          2          3          4          5

                  2.000000   2.000000   2.000000   2.000000   2.000000

    1             1.999898   0.000395   0.001668   2.000823   2.000179
    2             0.000051   0.967917   1.031051  -0.000411  -0.000089
    3             0.000051   1.031688   0.967281  -0.000411  -0.000089

                      6          7          8          9         10

                  2.000000   2.000000   2.000000   2.000000   2.000000

    1             2.000044   2.000120   0.787447   0.480405   1.199080
    2            -0.000022  -0.000060   0.606270   0.759804   0.400459
    3            -0.000022  -0.000060   0.606282   0.759791   0.400462

                     11         12         13         14         15

                  2.000000   2.000000   2.000000   2.000000   2.000000

    1             1.033242   0.614314   0.435420   0.106670   0.561207
    2             0.483378   0.692841   0.782291   0.946666   0.719395
    3             0.483381   0.692846   0.782289   0.946664   0.719398

                     16

                  2.000000

    1             0.212045
    2             0.893983
    3             0.893972

               ----- POPULATIONS IN EACH AO -----
                             MULLIKEN      LOWDIN
              1  S  1  S      1.99980     1.99922
              2  S  1  S      1.99187     1.87971
              3  S  1  S      1.28282     0.63211
              4  S  1  S      0.56558     0.47976
              5  S  1  X      1.99414     1.95933
              6  S  1  Y      1.99529     1.96721
              7  S  1  Z      1.99369     1.96012
              8  S  1  X      0.84494     0.68842
              9  S  1  Y      1.06477     0.93919
             10  S  1  Z      0.86069     0.75022
             11  S  1  X      0.11271     0.22969
             12  S  1  Y      0.07225     0.23586
             13  S  1  Z      0.14887     0.25595
             14  S  1 XX      0.03629     0.31986
             15  S  1 YY      0.15588     0.31932
             16  S  1 ZZ      0.17664     0.26072
             17  S  1 XY      0.10667     0.19900
             18  S  1 XZ      0.03004     0.12994
             19  S  1 YZ      0.00000     0.02868
             20  O  2  S      1.99540     1.97243
             21  O  2  S      0.93886     0.67917
             22  O  2  S      0.87669     0.50816
             23  O  2  X      1.06545     1.03305
             24  O  2  Y      0.96955     0.94236
             25  O  2  Z      0.87042     0.83441
             26  O  2  X      0.48648     0.58048
             27  O  2  Y      0.50496     0.61397
             28  O  2  Z      0.55124     0.59071
             29  O  2 XX      0.00246     0.20046
             30  O  2 YY      0.00577     0.19990
             31  O  2 ZZ      0.00787     0.19854
             32  O  2 XY      0.00423     0.01678
             33  O  2 XZ      0.00413     0.00674
             34  O  2 YZ      0.00000     0.00569
             35  O  3  S      1.99540     1.97243
             36  O  3  S      0.93886     0.67917
             37  O  3  S      0.87668     0.50816
             38  O  3  X      1.06545     1.03305
             39  O  3  Y      0.96955     0.94236
             40  O  3  Z      0.87042     0.83441
             41  O  3  X      0.48648     0.58048
             42  O  3  Y      0.50496     0.61397
             43  O  3  Z      0.55124     0.59071
             44  O  3 XX      0.00246     0.20046
             45  O  3 YY      0.00577     0.19990
             46  O  3 ZZ      0.00787     0.19854
             47  O  3 XY      0.00423     0.01678
             48  O  3 XZ      0.00413     0.00674
             49  O  3 YZ      0.00000     0.00569

          ----- MULLIKEN ATOMIC OVERLAP POPULATIONS -----
          (OFF-DIAGONAL ELEMENTS NEED TO BE MULTIPLIED BY 2)

             1           2           3

    1   14.5357880
    2    0.4485739   8.0022878
    3    0.4485929  -0.1673382   8.0022672

          TOTAL MULLIKEN AND LOWDIN ATOMIC POPULATIONS
       ATOM         MULL.POP.    CHARGE          LOW.POP.     CHARGE
    1 S            15.432955    0.567045        15.234298    0.765702
    2 O             8.283523   -0.283523         8.382852   -0.382852
    3 O             8.283522   -0.283522         8.382850   -0.382850

          MULLIKEN SPHERICAL HARMONIC POPULATIONS
       ATOM           S       P       D      F      G      H      I    TOTAL
    1 S             5.84    9.09    0.51   0.00   0.00   0.00   0.00   15.43
    2 O             3.81    4.45    0.02   0.00   0.00   0.00   0.00    8.28
    3 O             3.81    4.45    0.02   0.00   0.00   0.00   0.00    8.28

          -------------------------------
          BOND ORDER AND VALENCE ANALYSIS     BOND ORDER THRESHOLD=0.050
          -------------------------------

                   BOND                       BOND                       BOND
  ATOM PAIR DIST  ORDER      ATOM PAIR DIST  ORDER      ATOM PAIR DIST  ORDER
    1   2  1.400  1.932        1   3  1.400  1.932        2   3  2.064  0.199

                       TOTAL       BONDED        FREE
      ATOM            VALENCE     VALENCE     VALENCE
    1 S                 3.863       3.863      -0.000
    2 O                 2.130       2.130       0.000
    3 O                 2.130       2.130      -0.000

          ---------------------
          ELECTROSTATIC MOMENTS
          ---------------------

 POINT   1           X           Y           Z (BOHR)    CHARGE
                 0.000000   -0.000000    0.000000       -0.00 (A.U.)
         DX          DY          DZ         /D/  (DEBYE)
    -0.000010   -2.583882    0.000000    2.583882
 ...... END OF PROPERTY EVALUATION ......
 STEP CPU TIME =     0.00 TOTAL CPU TIME =          2.8 (      0.0 MIN)
 TOTAL WALL CLOCK TIME=          2.9 SECONDS, CPU UTILIZATION IS    98.25%
                580000  WORDS OF DYNAMIC MEMORY USED
 EXECUTION OF GAMESS TERMINATED NORMALLY Sun Sep 29 10:45:23 2019
 DDI: 263640 bytes (0.3 MB / 0 MWords) used by master data server.

 ----------------------------------------
 CPU timing information for all processes
 ========================================
 0: 2.747 + 0.80 = 2.827
 ----------------------------------------
 ddikick.x: exited gracefully.
----- accounting info -----
Files used on the master node crcfe02.crc.nd.edu were:
-rw-r--r-- 1 cdrisko campus     207 Sep 29 10:45 /afs/crc.nd.edu/user/c/cdrisko/SO2.F05
-rw-r--r-- 1 cdrisko campus   37566 Sep 29 10:45 /afs/crc.nd.edu/user/c/cdrisko/SO2.F07
-rw-r--r-- 1 cdrisko campus 4320384 Sep 29 10:45 /afs/crc.nd.edu/user/c/cdrisko/SO2.F08
-rw-r--r-- 1 cdrisko campus 1766880 Sep 29 10:45 /afs/crc.nd.edu/user/c/cdrisko/SO2.F10
Sun Sep 29 10:45:26 EDT 2019
0.423u 0.242s 0:06.49 10.1%	0+0k 0+24io 0pf+0w
