   4   4   0   0
  0.1176147E+02  0.3610000E-09  0.3610000E-09  0.3610000E-09  0.5000000E-15
  1.000000000000000E-004
  CAR 
 unknown system                          
     46.29414482     -4.03535883  301      7.60525660      1.00000000
     -4.035  0.0000E+00  0.0000E+00
     -3.868  0.0000E+00  0.0000E+00
     -3.700  0.0000E+00  0.0000E+00
     -3.532  0.0000E+00  0.0000E+00
     -3.364  0.0000E+00  0.0000E+00
     -3.197  0.0000E+00  0.0000E+00
     -3.029  0.0000E+00  0.0000E+00
     -2.861  0.0000E+00  0.0000E+00
     -2.693 -0.6429E-40 -0.1078E-40
     -2.525 -0.1905E-27 -0.3196E-28
     -2.358 -0.1934E-17 -0.3244E-18
     -2.190 -0.6192E-10 -0.1039E-10
     -2.022 -0.5910E-05 -0.9915E-06
     -1.854 -0.5796E-03 -0.9823E-04
     -1.687  0.1432E-01  0.2303E-02
     -1.519  0.1061E+00  0.2010E-01
     -1.351  0.2106E+00  0.5543E-01
     -1.183  0.1340E+00  0.7791E-01
     -1.016  0.2334E+00  0.1171E+00
     -0.848  0.4872E+00  0.1988E+00
     -0.680  0.1384E+00  0.2220E+00
     -0.512  0.1940E+00  0.2546E+00
     -0.345  0.5467E+00  0.3463E+00
     -0.177  0.4836E+00  0.4274E+00
     -0.009  0.3351E+00  0.4836E+00
      0.159  0.3739E+00  0.5464E+00
      0.327  0.8488E+00  0.6888E+00
      0.494  0.1246E-01  0.6909E+00
      0.662  0.6959E+00  0.8076E+00
      0.830  0.8013E+00  0.9420E+00
      0.998  0.4920E+00  0.1025E+01
      1.165  0.1086E+01  0.1207E+01
      1.333  0.3548E+00  0.1266E+01
      1.501  0.3664E+00  0.1328E+01
      1.669  0.1308E+01  0.1547E+01
      1.836  0.1132E+01  0.1737E+01
      2.004  0.9947E+00  0.1904E+01
      2.172  0.1073E+01  0.2084E+01
      2.340  0.1175E+01  0.2281E+01
      2.507  0.2724E+01  0.2738E+01
      2.675  0.2396E+01  0.3140E+01
      2.843  0.4038E+01  0.3817E+01
      3.011  0.5002E+01  0.4657E+01
      3.179  0.4982E+01  0.5492E+01
      3.346  0.7022E+01  0.6670E+01
      3.514  0.8757E+01  0.8140E+01
      3.682  0.9525E+01  0.9738E+01
      3.850  0.8066E+01  0.1109E+02
      4.017  0.8383E+01  0.1250E+02
      4.185  0.8859E+01  0.1398E+02
      4.353  0.1352E+02  0.1625E+02
      4.521  0.1190E+02  0.1825E+02
      4.688  0.1694E+02  0.2109E+02
      4.856  0.1681E+02  0.2391E+02
      5.024  0.1107E+02  0.2577E+02
      5.192  0.1123E+02  0.2765E+02
      5.359  0.1379E+02  0.2996E+02
      5.527  0.1430E+02  0.3236E+02
      5.695  0.1271E+02  0.3450E+02
      5.863  0.1395E+02  0.3684E+02
      6.031  0.2141E+02  0.4043E+02
      6.198  0.9325E+01  0.4199E+02
      6.366  0.2102E+01  0.4234E+02
      6.534  0.4821E+00  0.4242E+02
      6.702  0.1814E+01  0.4273E+02
      6.869  0.1809E+01  0.4303E+02
      7.037  0.9750E+00  0.4320E+02
      7.205  0.8845E+00  0.4334E+02
      7.373  0.2557E+01  0.4377E+02
      7.540  0.7724E+00  0.4390E+02
      7.708  0.1108E+01  0.4409E+02
      7.876  0.1043E+01  0.4426E+02
      8.044  0.4718E+00  0.4434E+02
      8.211  0.1421E+01  0.4458E+02
      8.379  0.1256E+01  0.4479E+02
      8.547  0.2157E+01  0.4515E+02
      8.715  0.8832E+00  0.4530E+02
      8.883  0.2443E+00  0.4534E+02
      9.050  0.1177E+01  0.4554E+02
      9.218  0.3010E+00  0.4559E+02
      9.386  0.1185E+01  0.4579E+02
      9.554  0.1814E+01  0.4609E+02
      9.721  0.8886E+00  0.4624E+02
      9.889  0.8408E+00  0.4638E+02
     10.057  0.1367E+01  0.4661E+02
     10.225  0.6251E+00  0.4672E+02
     10.392  0.2200E+00  0.4676E+02
     10.560  0.5067E+00  0.4684E+02
     10.728  0.6827E+00  0.4695E+02
     10.896  0.1273E+01  0.4717E+02
     11.063  0.1986E+00  0.4720E+02
     11.231  0.1674E+01  0.4748E+02
     11.399  0.1289E+00  0.4750E+02
     11.567  0.4822E+00  0.4759E+02
     11.735  0.1137E+01  0.4778E+02
     11.902  0.1547E+01  0.4804E+02
     12.070  0.1265E+01  0.4825E+02
     12.238  0.5779E+00  0.4834E+02
     12.406  0.1314E+01  0.4857E+02
     12.573  0.7664E+00  0.4869E+02
     12.741  0.1815E+01  0.4900E+02
     12.909  0.1120E+01  0.4919E+02
     13.077  0.9674E+00  0.4935E+02
     13.244  0.3339E+00  0.4940E+02
     13.412  0.1828E+01  0.4971E+02
     13.580  0.1596E+01  0.4998E+02
     13.748  0.3321E+00  0.5003E+02
     13.915  0.1684E+01  0.5032E+02
     14.083  0.2293E+00  0.5036E+02
     14.251  0.7594E+00  0.5048E+02
     14.419  0.3562E+00  0.5054E+02
     14.587  0.1002E+01  0.5071E+02
     14.754  0.1260E+01  0.5092E+02
     14.922  0.2144E+01  0.5128E+02
     15.090  0.1176E+01  0.5148E+02
     15.258  0.8369E+00  0.5162E+02
     15.425  0.1635E+01  0.5189E+02
     15.593  0.4975E+00  0.5198E+02
     15.761  0.1125E+01  0.5217E+02
     15.929  0.7037E+00  0.5228E+02
     16.096  0.1445E+01  0.5253E+02
     16.264  0.1839E+01  0.5284E+02
     16.432  0.1881E+01  0.5315E+02
     16.600  0.1560E+01  0.5341E+02
     16.768  0.1585E+01  0.5368E+02
     16.935  0.1602E+01  0.5395E+02
     17.103  0.1704E+01  0.5423E+02
     17.271  0.1912E+01  0.5455E+02
     17.439  0.2025E+00  0.5459E+02
     17.606  0.1282E+01  0.5480E+02
     17.774  0.1127E+01  0.5499E+02
     17.942  0.1913E+01  0.5531E+02
     18.110  0.1103E+01  0.5550E+02
     18.277  0.1088E+01  0.5568E+02
     18.445  0.1293E+01  0.5590E+02
     18.613  0.2757E+01  0.5636E+02
     18.781  0.9323E+00  0.5652E+02
     18.948  0.2838E+01  0.5699E+02
     19.116  0.1990E+01  0.5733E+02
     19.284  0.2755E+00  0.5737E+02
     19.452  0.8696E+00  0.5752E+02
     19.620  0.1343E+01  0.5774E+02
     19.787  0.2945E+01  0.5824E+02
     19.955  0.1771E+01  0.5854E+02
     20.123  0.7939E+00  0.5867E+02
     20.291  0.2113E+01  0.5902E+02
     20.458  0.2172E+01  0.5939E+02
     20.626  0.9897E+00  0.5955E+02
     20.794  0.1688E+01  0.5984E+02
     20.962  0.1707E+01  0.6012E+02
     21.129  0.1404E+01  0.6036E+02
     21.297  0.1350E+01  0.6058E+02
     21.465  0.2284E+01  0.6097E+02
     21.633  0.1727E+01  0.6126E+02
     21.800  0.1682E+01  0.6154E+02
     21.968  0.2246E+01  0.6192E+02
     22.136  0.1551E+01  0.6218E+02
     22.304  0.1484E+01  0.6243E+02
     22.472  0.2629E+01  0.6287E+02
     22.639  0.1693E+01  0.6315E+02
     22.807  0.1443E+01  0.6339E+02
     22.975  0.1252E+01  0.6360E+02
     23.143  0.7045E+00  0.6372E+02
     23.310  0.1824E+01  0.6403E+02
     23.478  0.2308E+01  0.6441E+02
     23.646  0.1074E+01  0.6459E+02
     23.814  0.1816E+01  0.6490E+02
     23.981  0.7361E-01  0.6491E+02
     24.149  0.9835E+00  0.6508E+02
     24.317  0.2066E+01  0.6542E+02
     24.485  0.1296E+01  0.6564E+02
     24.652  0.1618E+01  0.6591E+02
     24.820  0.2085E+01  0.6626E+02
     24.988  0.7762E+00  0.6639E+02
     25.156  0.9546E+00  0.6655E+02
     25.324  0.1255E+01  0.6676E+02
     25.491  0.2022E+01  0.6710E+02
     25.659  0.5470E+00  0.6719E+02
     25.827  0.1231E+01  0.6740E+02
     25.995  0.1522E+01  0.6766E+02
     26.162  0.1752E+01  0.6795E+02
     26.330  0.1030E+01  0.6812E+02
     26.498  0.2116E+01  0.6848E+02
     26.666  0.1416E+01  0.6872E+02
     26.833  0.7122E+00  0.6883E+02
     27.001  0.2802E+01  0.6930E+02
     27.169  0.1038E+01  0.6948E+02
     27.337  0.1075E+01  0.6966E+02
     27.504  0.2282E+01  0.7004E+02
     27.672  0.2072E+01  0.7039E+02
     27.840  0.1331E+01  0.7061E+02
     28.008  0.2840E+01  0.7109E+02
     28.176  0.1306E+01  0.7131E+02
     28.343  0.8753E+00  0.7146E+02
     28.511  0.2548E+01  0.7188E+02
     28.679  0.2901E+01  0.7237E+02
     28.847  0.2488E+01  0.7279E+02
     29.014  0.1895E+01  0.7310E+02
     29.182  0.3115E+01  0.7363E+02
     29.350  0.1607E+01  0.7390E+02
     29.518  0.1706E+01  0.7418E+02
     29.685  0.3082E+01  0.7470E+02
     29.853  0.2609E+01  0.7514E+02
     30.021  0.1901E+01  0.7546E+02
     30.189  0.2614E+01  0.7589E+02
     30.356  0.2527E+01  0.7632E+02
     30.524  0.1324E+01  0.7654E+02
     30.692  0.2190E+01  0.7691E+02
     30.860  0.1904E+01  0.7723E+02
     31.028  0.2427E+01  0.7764E+02
     31.195  0.2840E+01  0.7811E+02
     31.363  0.1064E+01  0.7829E+02
     31.531  0.1782E+01  0.7859E+02
     31.699  0.3576E+00  0.7865E+02
     31.866  0.2056E+01  0.7899E+02
     32.034  0.2281E+01  0.7938E+02
     32.202  0.7655E+00  0.7951E+02
     32.370  0.9851E+00  0.7967E+02
     32.537  0.1147E+01  0.7986E+02
     32.705  0.1967E+01  0.8019E+02
     32.873  0.2097E+01  0.8054E+02
     33.041  0.2940E+01  0.8104E+02
     33.208  0.1003E+01  0.8121E+02
     33.376  0.6017E+00  0.8131E+02
     33.544  0.1553E+01  0.8157E+02
     33.712  0.7379E+00  0.8169E+02
     33.880  0.1558E+01  0.8195E+02
     34.047  0.1879E+01  0.8227E+02
     34.215  0.2301E+01  0.8265E+02
     34.383  0.6388E+00  0.8276E+02
     34.551  0.1471E+01  0.8301E+02
     34.718  0.2223E+01  0.8338E+02
     34.886  0.3023E+01  0.8389E+02
     35.054  0.1901E+01  0.8421E+02
     35.222  0.2595E+01  0.8464E+02
     35.389  0.2028E+01  0.8498E+02
     35.557  0.4006E+01  0.8565E+02
     35.725  0.1459E+01  0.8590E+02
     35.893  0.1295E+01  0.8612E+02
     36.060  0.1109E+01  0.8630E+02
     36.228  0.1998E+01  0.8664E+02
     36.396  0.3154E+01  0.8717E+02
     36.564  0.3043E+01  0.8768E+02
     36.732  0.1636E+01  0.8795E+02
     36.899  0.1725E+01  0.8824E+02
     37.067  0.5502E+00  0.8833E+02
     37.235  0.1512E+01  0.8859E+02
     37.403  0.8387E+00  0.8873E+02
     37.570  0.9736E+00  0.8889E+02
     37.738  0.1578E+01  0.8916E+02
     37.906  0.2245E+01  0.8953E+02
     38.074  0.3787E+01  0.9017E+02
     38.241  0.3059E+01  0.9068E+02
     38.409  0.1485E+01  0.9093E+02
     38.577  0.2496E+01  0.9135E+02
     38.745  0.1802E+01  0.9165E+02
     38.912  0.8263E+00  0.9179E+02
     39.080  0.8261E+00  0.9193E+02
     39.248  0.2754E+01  0.9239E+02
     39.416  0.2968E+01  0.9289E+02
     39.584  0.2467E+01  0.9330E+02
     39.751  0.1841E+01  0.9361E+02
     39.919  0.2698E+01  0.9406E+02
     40.087  0.1026E+01  0.9424E+02
     40.255  0.1355E+00  0.9426E+02
     40.422  0.1882E+01  0.9457E+02
     40.590  0.1444E+01  0.9482E+02
     40.758  0.8609E+00  0.9496E+02
     40.926  0.1197E+01  0.9516E+02
     41.093  0.1157E+01  0.9536E+02
     41.261  0.4471E+00  0.9543E+02
     41.429  0.2926E+00  0.9548E+02
     41.597  0.8397E+00  0.9562E+02
     41.764  0.1619E+00  0.9565E+02
     41.932  0.4281E+00  0.9572E+02
     42.100  0.7667E+00  0.9585E+02
     42.268 -0.4717E-02  0.9585E+02
     42.436  0.1482E+00  0.9587E+02
     42.603  0.6358E+00  0.9598E+02
     42.771  0.1009E+00  0.9600E+02
     42.939  0.4429E-02  0.9600E+02
     43.107 -0.2179E-03  0.9600E+02
     43.274 -0.9578E-08  0.9600E+02
     43.442 -0.1507E-14  0.9600E+02
     43.610 -0.2545E-08  0.9600E+02
     43.778 -0.4636E-04  0.9600E+02
     43.945  0.1281E-02  0.9600E+02
     44.113  0.1562E-01  0.9600E+02
     44.281 -0.4977E-03  0.9600E+02
     44.449 -0.5908E-05  0.9600E+02
     44.616 -0.6192E-10  0.9600E+02
     44.784 -0.3631E-17  0.9600E+02
     44.952  0.0000E+00  0.9600E+02
     45.120  0.0000E+00  0.9600E+02
     45.288  0.0000E+00  0.9600E+02
     45.455  0.0000E+00  0.9600E+02
     45.623  0.0000E+00  0.9600E+02
     45.791  0.0000E+00  0.9600E+02
     45.959  0.0000E+00  0.9600E+02
     46.126  0.0000E+00  0.9600E+02
     46.294  0.0000E+00  0.9600E+02
