       N       E                     dE             d eps       ncg     rms          rms(c)
DAV:   1     0.156143010681E+03    0.15614E+03   -0.16645E+04  3912   0.136E+03
DAV:   2    -0.134571971830E+02   -0.16960E+03   -0.15399E+03  3432   0.198E+02
DAV:   3    -0.184850895661E+02   -0.50279E+01   -0.49796E+01  4776   0.399E+01
DAV:   4    -0.185219577443E+02   -0.36868E-01   -0.36867E-01  3480   0.298E+00
DAV:   5    -0.185224696332E+02   -0.51189E-03   -0.51189E-03  4824   0.377E-01    0.153E+01
DAV:   6    -0.163932885049E+02    0.21292E+01   -0.33234E+01  4152   0.710E+01    0.774E+00
DAV:   7    -0.149653503284E+02    0.14279E+01   -0.54546E+00  4152   0.284E+01    0.113E+00
DAV:   8    -0.149243881822E+02    0.40962E-01   -0.24776E-02  4080   0.105E+00    0.616E-01
DAV:   9    -0.149176442880E+02    0.67439E-02   -0.21857E-02  4584   0.166E+00    0.469E-02
DAV:  10    -0.149176740455E+02   -0.29757E-04   -0.17082E-04  3456   0.100E-01
   1 F= -.14917674E+02 E0= -.14917151E+02  d E =-.156821E-02
