----- GAMESS execution script 'rungms' -----
This job is running on host crcfe02.crc.nd.edu
under operating system Linux at Sun Sep 29 10:47:49 EDT 2019
Available scratch disk space (Kbyte units) at beginning of the job is
Filesystem      1K-blocks  Used  Available Use% Mounted on
AFS            2147483647     0 2147483647   0% /afs
GAMESS temporary binary files will be written to /afs/crc.nd.edu/user/c/cdrisko
GAMESS supplementary output files will be written to /afs/crc.nd.edu/user/c/cdrisko/scr
Copying input file SO2.inp to your run's scratch directory...

 Distributed Data Interface kickoff program.
 Initiating 1 compute processes on 1 nodes to run the following command:
 /afs/crc.nd.edu/x86_64_linux/g/gamess/nov-2017/gamess/gamess.00.x SO2 

          ******************************************************
          *         GAMESS VERSION = 11 NOV 2017 (R3)         *
          *             FROM IOWA STATE UNIVERSITY             *
          * M.W.SCHMIDT, K.K.BALDRIDGE, J.A.BOATZ, S.T.ELBERT, *
          *   M.S.GORDON, J.H.JENSEN, S.KOSEKI, N.MATSUNAGA,   *
          *          K.A.NGUYEN, S.J.SU, T.L.WINDUS,           *
          *       TOGETHER WITH M.DUPUIS, J.A.MONTGOMERY       *
          *         J.COMPUT.CHEM.  14, 1347-1363(1993)        *
          **************** 64 BIT INTEL VERSION ****************

  SINCE 1993, STUDENTS AND POSTDOCS WORKING AT IOWA STATE UNIVERSITY
  AND ALSO IN THEIR VARIOUS JOBS AFTER LEAVING ISU HAVE MADE IMPORTANT
  CONTRIBUTIONS TO THE CODE:
     IVANA ADAMOVIC, CHRISTINE AIKENS, YURI ALEXEEV, POOJA ARORA,
     ANDREY ASADCHEV, ROB BELL, PRADIPTA BANDYOPADHYAY, JONATHAN BENTZ,
     BRETT BODE, KURT BRORSEN, CALEB CARLIN, GALINA CHABAN, WEI CHEN,
     CHEOL HO CHOI, PAUL DAY, ALBERT DEFUSCO, NUWAN DESILVA, TIM DUDLEY,
     DMITRI FEDOROV, ALEX FINDLATER, GRAHAM FLETCHER, MARK FREITAG,
     KURT GLAESEMANN, ANASTASIA GUININA,
     DAN KEMP, GRANT MERRILL, NORIYUKI MINEZAWA, JONATHAN MULLIN,
     TAKESHI NAGATA, SEAN NEDD, HEATHER NETZLOFF, BOSILJKA NJEGIC, RYAN OLSON,
     MIKE PAK, BUU PHAM,
     SPENCER PRUITT, LUKE ROSKOP, JIM SHOEMAKER, LYUDMILA SLIPCHENKO,
     TONY SMITH, SAROM SOK LEANG, JIE SONG, TETSUYA TAKETSUGU, SIMON WEBB,
     PENG XU, SOOHAENG YOO, FEDERICO ZAHARIEV

  ADDITIONAL CODE HAS BEEN PROVIDED BY COLLABORATORS IN OTHER GROUPS:
     IOWA STATE UNIVERSITY:
          JOE IVANIC, AARON WEST, LAIMUTIS BYTAUTAS, KLAUS RUEDENBERG
     UNIVERSITY OF TOKYO: KIMIHIKO HIRAO, TAKAHITO NAKAJIMA,
          TAKAO TSUNEDA, MUNEAKI KAMIYA, SUSUMU YANAGISAWA,
          KIYOSHI YAGI, MAHITO CHIBA, SEIKEN TOKURA, NAOAKI KAWAKAMI
     UNIVERSITY OF AARHUS: FRANK JENSEN
     UNIVERSITY OF IOWA: VISVALDAS KAIRYS, HUI LI
     NATIONAL INST. OF STANDARDS AND TECHNOLOGY: WALT STEVENS, DAVID GARMER
     UNIVERSITY OF PISA: BENEDETTA MENNUCCI, JACOPO TOMASI
     UNIVERSITY OF MEMPHIS: HENRY KURTZ, PRAKASHAN KORAMBATH
     UNIVERSITY OF ALBERTA: TOBY ZENG, MARIUSZ KLOBUKOWSKI
     UNIVERSITY OF NEW ENGLAND: MARK SPACKMAN
     MIE UNIVERSITY: HIROAKI UMEDA
     NAT. INST. OF ADVANCED INDUSTRIAL SCIENCE AND TECHNOLOGY: KAZUO KITAURA
     MICHIGAN STATE UNIVERSITY:
          KAROL KOWALSKI, MARTA WLOCH, JEFFREY GOUR, JESSE LUTZ,
          WEI LI, PIOTR PIECUCH
     UNIVERSITY OF SILESIA: MONIKA MUSIAL, STANISLAW KUCHARSKI
     FACULTES UNIVERSITAIRES NOTRE-DAME DE LA PAIX:
          OLIVIER QUINET, BENOIT CHAMPAGNE
     UNIVERSITY OF CALIFORNIA - SANTA BARBARA: BERNARD KIRTMAN
     INSTITUTE FOR MOLECULAR SCIENCE:
          KAZUYA ISHIMURA, MICHIO KATOUDA, AND SHIGERU NAGASE
     UNIVERSITY OF NOTRE DAME: ANNA POMOGAEVA, DAN CHIPMAN
     KYUSHU UNIVERSITY:
          HARUYUKI NAKANO,
          FENG LONG GU, JACEK KORCHOWIEC, MARCIN MAKOWSKI, AND YURIKO AOKI,
          HIROTOSHI MORI AND EISAKU MIYOSHI
     PENNSYLVANIA STATE UNIVERSITY:
          TZVETELIN IORDANOV, CHET SWALINA, JONATHAN SKONE,
          SHARON HAMMES-SCHIFFER
     WASEDA UNIVERSITY:
          MASATO KOBAYASHI, TOMOKO AKAMA, TSUGUKI TOUMA,
          TAKESHI YOSHIKAWA, YASUHIRO IKABATA, JUNJI SEINO,
          YUYA NAKAJIMA, HIROMI NAKAI
     NANJING UNIVERSITY: SHUHUA LI
     UNIVERSITY OF NEBRASKA:
          PEIFENG SU, DEJUN SI, NANDUN THELLAMUREGE, YALI WANG, HUI LI
     UNIVERSITY OF ZURICH: ROBERTO PEVERATI, KIM BALDRIDGE
     N. COPERNICUS UNIVERSITY AND JACKSON STATE UNIVERSITY:
          MARIA BARYSZ
     UNIVERSITY OF COPENHAGEN: Jimmy Kromann, CASPER STEINMANN
     TOKYO INSTITUTE OF TECHNOLOGY: HIROYA NAKATA
     NAGOYA UNIVERSITY: YOSHIO NISHIMOTO, STEPHAN IRLE
     MOSCOW STATE UNIVERSITY: VLADIMIR MIRONOV

 EXECUTION OF GAMESS BEGUN Sun Sep 29 10:47:49 2019

            ECHO OF THE FIRST FEW INPUT CARDS -
 INPUT CARD> $BASIS GBASIS=PCSEG-1 $END                                                     
 INPUT CARD> $CONTRL COORD=ZMT ISPHER=1 RUNTYP=ENERGY DFTTYP=PBE MULT=1 $END                
 INPUT CARD>                                                                                
 INPUT CARD> $DATA                                                                          
 INPUT CARD>Title SO2 single-point calculation template with Z-Matrix                       
 INPUT CARD>C1                                                                              
 INPUT CARD>S                                                                               
 INPUT CARD>O 1 1.45                                                                        
 INPUT CARD>O 1 1.45 2 145                                                                  
 INPUT CARD> $END                                                                           
    1000000 WORDS OF MEMORY AVAILABLE

     BASIS OPTIONS
     -------------
     GBASIS=PCSEG-1      IGAUSS=       0      POLAR=NONE    
     NDFUNC=       0     NFFUNC=       0     DIFFSP=       F
     NPFUNC=       0      DIFFS=       F     BASNAM=        


     RUN TITLE
     ---------
 Title SO2 single-point calculation template with Z-Matrix                       

 THE POINT GROUP OF THE MOLECULE IS C1      
 THE ORDER OF THE PRINCIPAL AXIS IS     0

 YOUR FULLY SUBSTITUTED Z-MATRIX IS
 S   
 O      1   1.4500000
 O      1   1.4500000  2  145.0000

 THE MOMENTS OF INERTIA ARE (AMU-ANGSTROM**2)
 IXX=     3.040   IYY=    61.177   IZZ=    64.217

 ATOM      ATOMIC                      COORDINATES (BOHR)
           CHARGE         X                   Y                   Z
 S          16.0     0.0000000000       -0.4120967127        0.0000000000
 O           8.0     2.6132823748        0.4118680551        0.0000000000
 O           8.0    -2.6132823748        0.4118680551        0.0000000000

          INTERNUCLEAR DISTANCES (ANGS.)
          ------------------------------

                1 S          2 O          3 O     

   1 S       0.0000000    1.4500000 *  1.4500000 *
   2 O       1.4500000 *  0.0000000    2.7657792 *
   3 O       1.4500000 *  2.7657792 *  0.0000000  

  * ... LESS THAN  3.000


     ATOMIC BASIS SET
     ----------------
 THE CONTRACTED PRIMITIVE FUNCTIONS HAVE BEEN UNNORMALIZED
 THE CONTRACTED BASIS FUNCTIONS ARE NOW NORMALIZED TO UNITY

  SHELL TYPE  PRIMITIVE        EXPONENT          CONTRACTION COEFFICIENT(S)

 S         

      1   S       1         49299.4000000    0.000677492991
      1   S       2          7395.8400000    0.005232317766
      1   S       3          1683.3000000    0.026769459077
      1   S       4           476.1440000    0.102869580705
      1   S       5           154.3290000    0.286438127414
      1   S       6            55.0288000    0.454278639081
      1   S       7            20.5029000    0.271743121997

      2   S       8            45.9596000   -0.088421914560
      2   S       9             4.9274000    0.564350486135
      2   S      10             1.9179900    0.505415953466

      3   S      11             0.3684980    1.000000000000

      4   S      12             0.1291650    1.000000000000

      5   P      13           451.6620000    0.003707705453
      5   P      14           106.0980000    0.029219352245
      5   P      15            33.6996000    0.124444551509
      5   P      16            12.3054000    0.321808587656
      5   P      17             4.7141200    0.462822172957
      5   P      18             1.7810500    0.266513371364

      6   P      19             0.8722350    0.349265132972
      6   P      20             0.3102780    0.717115018770

      7   P      21             0.1001940    1.000000000000

      8   D      22             0.5500000    1.000000000000

 O         

      9   S      23          2288.6400000    0.005451138222
      9   S      24           344.4160000    0.040718922842
      9   S      25            78.2538000    0.181369420873
      9   S      26            21.7195000    0.465536820246
      9   S      27             6.5590700    0.451211321214

     10   S      28            10.4656000   -0.150211201174
     10   S      29             0.9643510    1.052867983385

     11   S      30             0.2851270    1.000000000000

     12   P      31            17.0590000    0.068749256972
     12   P      32             3.6899900    0.351671941499
     12   P      33             0.9929960    0.724532099722

     13   P      34             0.2449240    1.000000000000

     14   D      35             1.0000000    1.000000000000

 O         

     15   S      36          2288.6400000    0.005451138222
     15   S      37           344.4160000    0.040718922842
     15   S      38            78.2538000    0.181369420873
     15   S      39            21.7195000    0.465536820246
     15   S      40             6.5590700    0.451211321214

     16   S      41            10.4656000   -0.150211201174
     16   S      42             0.9643510    1.052867983385

     17   S      43             0.2851270    1.000000000000

     18   P      44            17.0590000    0.068749256972
     18   P      45             3.6899900    0.351671941499
     18   P      46             0.9929960    0.724532099722

     19   P      47             0.2449240    1.000000000000

     20   D      48             1.0000000    1.000000000000

 TOTAL NUMBER OF BASIS SET SHELLS             =   20
 NUMBER OF CARTESIAN GAUSSIAN BASIS FUNCTIONS =   49
 NOTE: THIS RUN WILL RESTRICT THE MO VARIATION SPACE TO SPHERICAL HARMONICS.
 THE NUMBER OF ORBITALS KEPT IN THE VARIATIONAL SPACE WILL BE PRINTED LATER.
 NUMBER OF ELECTRONS                          =   32
 CHARGE OF MOLECULE                           =    0
 SPIN MULTIPLICITY                            =    1
 NUMBER OF OCCUPIED ORBITALS (ALPHA)          =   16
 NUMBER OF OCCUPIED ORBITALS (BETA )          =   16
 TOTAL NUMBER OF ATOMS                        =    3
 THE NUCLEAR REPULSION ENERGY IS      105.6722924604

     LEBEDEV GRID-BASED DFT OPTIONS
     ------------------------------
     DFTTYP=PBE     
     NRAD  =      96     NLEB  =     302
     NRAD0 =      24     NLEB0 =     110
     SWOFF =    5.00E-03 (PURE SCF -> DFT)
     SWITCH=    3.00E-04 (COARSE -> TIGHT GRID)
     THRESH=    0.00E+00 GTHRE=    1.00E+00

 GRIMME'S EMPIRICAL DISPERSION CORRECTION= F

     $CONTRL OPTIONS
     ---------------
 SCFTYP=RHF          RUNTYP=ENERGY       EXETYP=RUN     
 MPLEVL=       0     CITYP =NONE         CCTYP =NONE         VBTYP =NONE    
 DFTTYP=PBE          TDDFT =NONE    
 MULT  =       1     ICHARG=       0     NZVAR =       0     COORD =ZMT     
 PP    =NONE         RELWFN=NONE         LOCAL =NONE         NUMGRD=       F
 ISPHER=       1     NOSYM =       0     MAXIT =      30     UNITS =ANGS    
 PLTORB=       F     MOLPLT=       F     AIMPAC=       F     FRIEND=        
 NPRINT=       7     IREST =       0     GEOM  =INPUT   
 NORMF =       0     NORMP =       0     ITOL  =      20     ICUT  =       9
 INTTYP=BEST         GRDTYP=BEST         QMTTOL= 1.0E-06

     $SYSTEM OPTIONS
     ---------------
  REPLICATED MEMORY=     1000000 WORDS (ON EVERY NODE).
 DISTRIBUTED MEMDDI=           0 MILLION WORDS IN AGGREGATE,
 MEMDDI DISTRIBUTED OVER   1 PROCESSORS IS           0 WORDS/PROCESSOR.
 TOTAL MEMORY REQUESTED ON EACH PROCESSOR=     1000000 WORDS.
 TIMLIM=      525600.00 MINUTES, OR     365.0 DAYS.
 PARALL= F  BALTYP=  DLB     KDIAG=    0  COREFL= F
 MXSEQ2=     300 MXSEQ3=     150  mem10=         0

          ----------------
          PROPERTIES INPUT
          ----------------

     MOMENTS            FIELD           POTENTIAL          DENSITY
 IEMOM =       1   IEFLD =       0   IEPOT =       0   IEDEN =       0
 WHERE =COMASS     WHERE =NUCLEI     WHERE =NUCLEI     WHERE =NUCLEI  
 OUTPUT=BOTH       OUTPUT=BOTH       OUTPUT=BOTH       OUTPUT=BOTH    
 IEMINT=       0   IEFINT=       0                     IEDINT=       0
                                                       MORB  =       0
          EXTRAPOLATION IN EFFECT
          DIIS IN EFFECT
 ORBITAL PRINTING OPTION: NPREO=     1    49     2     1

     -------------------------------
     INTEGRAL TRANSFORMATION OPTIONS
     -------------------------------
     NWORD  =            0
     CUTOFF = 1.0E-09     MPTRAN =       0
     DIRTRF =       F     AOINTS =DUP     

          ----------------------
          INTEGRAL INPUT OPTIONS
          ----------------------
 NOPK  =       1 NORDER=       0 SCHWRZ=       F

   --- ENCODED Z MATRIX ---
 COORD  TYPE   I   J   K   L   M   N
    1      1    2   1
    2      1    3   1
    3      2    3   1   2

 THE DETERMINANT OF THE G MATRIX IS 10**(    -4)

 THE DETERMINANT OF THE G MATRIX IS 10**(    -4)
 * * * WARNING * * *
 YOUR B MATRIX HAS A SMALL DETERMINANT.
 THIS SUGGESTS YOU MAY HAVE BADLY CHOSEN COORDINATES.

     ------------------------------------------
     THE POINT GROUP IS C1 , NAXIS= 0, ORDER= 1
     ------------------------------------------

 -- VARIATIONAL SPACE WILL BE RESTRICTED TO PURE SPHERICAL HARMONICS ONLY --
 AFTER EXCLUDING CONTAMINANT COMBINATIONS FROM THE CARTESIAN GAUSSIAN BASIS
 SET, THE NUMBER OF SPHERICAL HARMONICS KEPT IN THE VARIATION SPACE IS   46

     DIMENSIONS OF THE SYMMETRY SUBSPACES ARE
 A   =   46

 ..... DONE SETTING UP THE RUN .....
 STEP CPU TIME =     0.04 TOTAL CPU TIME =          0.0 (      0.0 MIN)
 TOTAL WALL CLOCK TIME=          0.0 SECONDS, CPU UTILIZATION IS   100.00%

          ********************
          1 ELECTRON INTEGRALS
          ********************
 ...... END OF ONE-ELECTRON INTEGRALS ......
 STEP CPU TIME =     0.00 TOTAL CPU TIME =          0.0 (      0.0 MIN)
 TOTAL WALL CLOCK TIME=          0.0 SECONDS, CPU UTILIZATION IS    80.00%

          -------------
          GUESS OPTIONS
          -------------
          GUESS =HUCKEL            NORB  =       0          NORDER=       0
          MIX   =       F          PRTMO =       F          PUNMO =       F
          TOLZ  = 1.0E-08          TOLE  = 1.0E-05
          SYMDEN=       F          PURIFY=       F

 INITIAL GUESS ORBITALS GENERATED BY HUCKEL   ROUTINE.
 HUCKEL GUESS REQUIRES     21634 WORDS.

 STATISTICS FOR GENERATION OF SYMMETRY ORBITAL -Q- MATRIX
 NUMBER OF CARTESIAN ATOMIC ORBITALS=         49
 NUMBER OF SPHERICAL CONTAMINANTS DROPPED=     3
 NUMBER OF LINEARLY DEPENDENT MOS DROPPED=     0
 TOTAL NUMBER OF MOS IN VARIATION SPACE=      46

 SYMMETRIES FOR INITIAL GUESS ORBITALS FOLLOW.   BOTH SET(S).
    16 ORBITALS ARE OCCUPIED (    7 CORE ORBITALS).
     8=A        9=A       10=A       11=A       12=A       13=A       14=A   
    15=A       16=A       17=A       18=A       19=A       20=A       21=A   
    22=A       23=A       24=A       25=A       26=A   
 ...... END OF INITIAL ORBITAL SELECTION ......
 STEP CPU TIME =     0.00 TOTAL CPU TIME =          0.0 (      0.0 MIN)
 TOTAL WALL CLOCK TIME=          0.0 SECONDS, CPU UTILIZATION IS    80.00%

                    ----------------------
                    AO INTEGRAL TECHNOLOGY
                    ----------------------
     S,P,L SHELL ROTATED AXIS INTEGRALS, REPROGRAMMED BY
        KAZUYA ISHIMURA (IMS) AND JOSE SIERRA (SYNSTAR).
     S,P,D,L SHELL ROTATED AXIS INTEGRALS PROGRAMMED BY
        KAZUYA ISHIMURA (INSTITUTE FOR MOLECULAR SCIENCE).
     S,P,D,F,G SHELL TO TOTAL QUARTET ANGULAR MOMENTUM SUM 5,
        ERIC PROGRAM BY GRAHAM FLETCHER (ELORET AND NASA ADVANCED
        SUPERCOMPUTING DIVISION, AMES RESEARCH CENTER).
     S,P,D,F,G,L SHELL GENERAL RYS QUADRATURE PROGRAMMED BY
        MICHEL DUPUIS (PACIFIC NORTHWEST NATIONAL LABORATORY).

          --------------------
          2 ELECTRON INTEGRALS
          --------------------

 THE -PK- OPTION IS OFF, THE INTEGRALS ARE NOT IN SUPERMATRIX FORM.
 STORING   15000 INTEGRALS/RECORD ON DISK, USING 12 BYTES/INTEGRAL.
 TWO ELECTRON INTEGRAL EVALUATION REQUIRES   90606 WORDS OF MEMORY.
 II,JST,KST,LST =  1  1  1  1 NREC =         1 INTLOC =    1
 II,JST,KST,LST =  2  1  1  1 NREC =         1 INTLOC =    2
 II,JST,KST,LST =  3  1  1  1 NREC =         1 INTLOC =    7
 II,JST,KST,LST =  4  1  1  1 NREC =         1 INTLOC =   22
 II,JST,KST,LST =  5  1  1  1 NREC =         1 INTLOC =   56
 II,JST,KST,LST =  6  1  1  1 NREC =         1 INTLOC =  125
 II,JST,KST,LST =  7  1  1  1 NREC =         1 INTLOC =  329
 II,JST,KST,LST =  8  1  1  1 NREC =         1 INTLOC =  776
 II,JST,KST,LST =  9  1  1  1 NREC =         1 INTLOC = 2864
 II,JST,KST,LST = 10  1  1  1 NREC =         1 INTLOC = 4979
 II,JST,KST,LST = 11  1  1  1 NREC =         1 INTLOC = 7645
 II,JST,KST,LST = 12  1  1  1 NREC =         1 INTLOC =10763
 II,JST,KST,LST = 13  1  1  1 NREC =         2 INTLOC = 6683
 II,JST,KST,LST = 14  1  1  1 NREC =         3 INTLOC = 6954
 II,JST,KST,LST = 15  1  1  1 NREC =         6 INTLOC = 8977
 II,JST,KST,LST = 16  1  1  1 NREC =         7 INTLOC = 1317
 II,JST,KST,LST = 17  1  1  1 NREC =         7 INTLOC =12805
 II,JST,KST,LST = 18  1  1  1 NREC =         8 INTLOC =11205
 II,JST,KST,LST = 19  1  1  1 NREC =        11 INTLOC = 5597
 II,JST,KST,LST = 20  1  1  1 NREC =        14 INTLOC =12589
 TOTAL NUMBER OF NONZERO TWO-ELECTRON INTEGRALS =              337767
         23 INTEGRAL RECORDS WERE STORED ON DISK FILE  8.
  ...... END OF TWO-ELECTRON INTEGRALS .....
 STEP CPU TIME =     0.12 TOTAL CPU TIME =          0.2 (      0.0 MIN)
 TOTAL WALL CLOCK TIME=          0.2 SECONDS, CPU UTILIZATION IS   100.00%

          --------------------------
               R-PBE SCF CALCULATION
          --------------------------

     NUCLEAR ENERGY =       105.6722924604
     MAXIT =   30     NPUNCH=    2
     EXTRAP=T  DAMP=F  SHIFT=F  RSTRCT=F  DIIS=T  DEM=F  SOSCF=F
         DENSITY MATRIX CONVERGENCE THRESHOLD=  1.00E-05
     COARSE -> FINE DFT GRID SWITCH THRESHOLD=  3.00E-04 (SWITCH IN $DFT)
                   HF -> DFT SWITCH THRESHOLD=  5.00E-03 (SWOFF IN $DFT)
     MEMORY REQUIRED FOR RHF ITERS=    183108 WORDS.

 DFT CODE IS SWITCHING FROM THE FINE GRID NRAD= 96,  NLEB=  302
                      TO THE COARSE GRID NRAD0= 24, NLEB0=  110

     EXCHANGE FUNCTIONAL   =PBE       
     CORRELATION FUNCTIONAL=PBE       
     DFT THRESHOLD         =.460E-07
     GRID CHANGE THRESHOLD =.300E-03
 FOR AN EULER-MACLAURIN QUADRATURE USING  96 RADIAL POINTS:
 SMALLEST GAUSSIAN PRIMITIVE EXPONENT=        0.1001940000 OF TYPE -P-
 ON ATOM NUMBER   1 HAS RADIAL NORMALIZATION=  1.000000
  LARGEST GAUSSIAN PRIMITIVE EXPONENT=    49299.4000000000 OF TYPE -S-
 ON ATOM NUMBER   1 HAS RADIAL NORMALIZATION=  1.000000
 DFT IS SWITCHED OFF, PERFORMING PURE SCF UNTIL SWOFF THRESHOLD IS REACHED.

 ITER EX DEM     TOTAL ENERGY        E CHANGE  DENSITY CHANGE    DIIS ERROR
   1  0  0     -546.0033454046  -546.0033454046   0.689280926   0.935942721
          * * *   INITIATING DIIS PROCEDURE   * * *
   2  1  0     -546.8042493841    -0.8009039795   0.550907129   0.264578550
   3  2  0     -546.9162962677    -0.1120468836   0.185729810   0.214193356
   4  3  0     -547.0539920821    -0.1376958144   0.054242600   0.017939834
   5  4  0     -547.0583890794    -0.0043969973   0.042067754   0.010597746
   6  5  0     -547.0598104908    -0.0014214114   0.021882410   0.005091666
   7  6  0     -547.0601700866    -0.0003595958   0.004873962   0.001183768
 CONVERGED TO SWOFF, SO DFT CALCULATION IS NOW SWITCHED ON.
          * * *   INITIATING DIIS PROCEDURE   * * *
   8  7  0     -548.2066388593    -1.1464687727   0.298811251   0.100372519
   9  8  0     -548.2195635306    -0.0129246713   0.251869224   0.080991172
  10  9  0     -548.2157625841     0.0038009465   0.104193241   0.090738609
  11 10  0     -548.2416875669    -0.0259249827   0.023353801   0.013998851
  12 11  0     -548.2423403299    -0.0006527630   0.001637060   0.000861583
  13 12  0     -548.2423426504    -0.0000023205   0.000632944   0.000141005
  14 13  0     -548.2423427709    -0.0000001205   0.000085134   0.000029073
 DFT CODE IS SWITCHING BACK TO THE FINE GRID
          * * *   INITIATING DIIS PROCEDURE   * * *
  15 14  0     -548.2137744330     0.0285683379   0.014380295   0.008326026
  16 15  0     -548.2140174132    -0.0002429802   0.006987960   0.003669212
  17 16  0     -548.2140133429     0.0000040703   0.005484816   0.003916225
  18 17  0     -548.2140522934    -0.0000389505   0.001781682   0.001297971
  19 18  0     -548.2140570389    -0.0000047455   0.000319456   0.000150298
  20 19  0     -548.2140568571     0.0000001818   0.000227821   0.000353526
  21 20  0     -548.2140571514    -0.0000002943   0.000016278   0.000008429
  22 21  0     -548.2140571517    -0.0000000003   0.000002489   0.000000523
  23 22  0     -548.2140571517     0.0000000000   0.000000678   0.000000116

          -----------------
          DENSITY CONVERGED
          -----------------
     TIME TO FORM FOCK OPERATORS=       2.5 SECONDS (       0.1 SEC/ITER)
     TIME TO SOLVE SCF EQUATIONS=       0.0 SECONDS (       0.0 SEC/ITER)

 FINAL R-PBE ENERGY IS     -548.2140571517 AFTER  23 ITERATIONS
 DFT EXCHANGE + CORRELATION ENERGY =       -42.5205400018
 TOTAL ELECTRON NUMBER             =        32.0000069489

          ------------
          EIGENVECTORS
          ------------

                      1          2          3          4          5
                  -88.2238   -18.8132   -18.8131    -7.8363    -5.8633
                     A          A          A          A          A   
    1  S  1  S    0.997748  -0.000000  -0.000033  -0.308352  -0.000000
    2  S  1  S    0.008353   0.000001   0.000154   1.031588   0.000000
    3  S  1  S   -0.003430   0.000006   0.000744   0.028124  -0.000000
    4  S  1  S    0.000437   0.000053   0.006862  -0.005133  -0.000000
    5  S  1  X   -0.000000   0.000016  -0.000000  -0.000000   0.994379
    6  S  1  Y    0.000147  -0.000000  -0.000048   0.013778  -0.000000
    7  S  1  Z    0.000000   0.000000   0.000000   0.000000   0.000000
    8  S  1  X    0.000000   0.001815  -0.000014   0.000000   0.017720
    9  S  1  Y   -0.000396   0.000007   0.000876   0.001386  -0.000000
   10  S  1  Z    0.000000   0.000000   0.000000   0.000000   0.000000
   11  S  1  X    0.000000   0.005450  -0.000042   0.000000  -0.002263
   12  S  1  Y   -0.000030   0.000015   0.001909  -0.000274  -0.000000
   13  S  1  Z    0.000000   0.000000   0.000000   0.000000   0.000000
   14  S  1 XX   -0.000572  -0.000002  -0.000274   0.001271  -0.000000
   15  S  1 YY    0.000247   0.000002   0.000264  -0.000649   0.000000
   16  S  1 ZZ    0.000326   0.000000   0.000010  -0.000622   0.000000
   17  S  1 XY    0.000000  -0.000240   0.000002   0.000000   0.001533
   18  S  1 XZ    0.000000   0.000000   0.000000   0.000000   0.000000
   19  S  1 YZ    0.000000   0.000000   0.000000   0.000000   0.000000
   20  O  2  S   -0.000027   0.707672   0.696862  -0.000149  -0.000592
   21  O  2  S   -0.000200   0.024368   0.023783  -0.000137   0.000300
   22  O  2  S    0.000816  -0.012565  -0.011371  -0.000746  -0.001119
   23  O  2  X   -0.000135  -0.000890  -0.001156   0.000124  -0.000990
   24  O  2  Y   -0.000051  -0.000318  -0.000101   0.000047  -0.000351
   25  O  2  Z    0.000000   0.000000   0.000000   0.000000   0.000000
   26  O  2  X   -0.000676   0.001852   0.003033   0.001122   0.001121
   27  O  2  Y   -0.000217   0.001338   0.000035   0.000407   0.000313
   28  O  2  Z    0.000000   0.000000   0.000000   0.000000   0.000000
   29  O  2 XX    0.000302  -0.000073  -0.000274   0.000254   0.001139
   30  O  2 YY   -0.000116  -0.000036   0.000157  -0.000124  -0.000419
   31  O  2 ZZ   -0.000186   0.000109   0.000117  -0.000130  -0.000720
   32  O  2 XY    0.000205  -0.000225   0.000031   0.000092   0.000848
   33  O  2 XZ    0.000000   0.000000   0.000000   0.000000   0.000000
   34  O  2 YZ    0.000000   0.000000   0.000000   0.000000   0.000000
   35  O  3  S   -0.000027  -0.696868   0.707667  -0.000149   0.000592
   36  O  3  S   -0.000200  -0.023999   0.024155  -0.000137  -0.000300
   37  O  3  S    0.000816   0.012388  -0.011564  -0.000746   0.001119
   38  O  3  X    0.000135  -0.000872   0.001170  -0.000124  -0.000990
   39  O  3  Y   -0.000051   0.000317  -0.000106   0.000047   0.000351
   40  O  3  Z    0.000000   0.000000   0.000000   0.000000   0.000000
   41  O  3  X    0.000676   0.001805  -0.003062  -0.001122   0.001121
   42  O  3  Y   -0.000217  -0.001337   0.000056   0.000407  -0.000313
   43  O  3  Z    0.000000   0.000000   0.000000   0.000000   0.000000
   44  O  3 XX    0.000302   0.000069  -0.000275   0.000254  -0.001139
   45  O  3 YY   -0.000116   0.000038   0.000157  -0.000124   0.000419
   46  O  3 ZZ   -0.000186  -0.000107   0.000118  -0.000130   0.000720
   47  O  3 XY   -0.000205  -0.000226  -0.000027  -0.000092   0.000848
   48  O  3 XZ    0.000000   0.000000   0.000000   0.000000   0.000000
   49  O  3 YZ    0.000000   0.000000   0.000000   0.000000   0.000000

                      6          7          8          9         10
                   -5.8610    -5.8561    -1.0569    -0.9896    -0.5790
                     A          A          A          A          A   
    1  S  1  S    0.000000   0.004364   0.052386   0.000000   0.062090
    2  S  1  S    0.000000  -0.015065  -0.320473  -0.000001  -0.398053
    3  S  1  S    0.000000   0.000521   0.442112   0.000001   0.618622
    4  S  1  S    0.000000  -0.000020   0.061563   0.000005   0.204136
    5  S  1  X    0.000000   0.000000  -0.000001   0.146228   0.000000
    6  S  1  Y    0.000000   0.994935  -0.044825  -0.000000   0.007205
    7  S  1  Z    0.995006   0.000000   0.000000   0.000000   0.000000
    8  S  1  X    0.000000   0.000000   0.000002  -0.321647  -0.000000
    9  S  1  Y    0.000000   0.015640   0.098737   0.000001  -0.008577
   10  S  1  Z    0.015786   0.000000   0.000000   0.000000   0.000000
   11  S  1  X    0.000000   0.000000   0.000003   0.019015  -0.000002
   12  S  1  Y    0.000000  -0.002819  -0.012943   0.000001  -0.024262
   13  S  1  Z   -0.002972   0.000000   0.000000   0.000000   0.000000
   14  S  1 XX    0.000000  -0.000630   0.072301   0.000001  -0.020065
   15  S  1 YY    0.000000   0.001159  -0.030639  -0.000001   0.004288
   16  S  1 ZZ    0.000000  -0.000528  -0.041661  -0.000001   0.015778
   17  S  1 XY    0.000000   0.000000   0.000001  -0.059790  -0.000000
   18  S  1 XZ    0.000000   0.000000   0.000000   0.000000   0.000000
   19  S  1 YZ    0.000948   0.000000   0.000000   0.000000   0.000000
   20  O  2  S    0.000000  -0.000193  -0.136786   0.159172   0.117145
   21  O  2  S    0.000000   0.000100   0.278313  -0.329280  -0.250270
   22  O  2  S    0.000000   0.000055   0.233066  -0.273638  -0.338468
   23  O  2  X    0.000000  -0.000440  -0.113926   0.111370  -0.194019
   24  O  2  Y    0.000000  -0.000133  -0.028655   0.032189  -0.063794
   25  O  2  Z    0.000000   0.000000   0.000000   0.000000   0.000000
   26  O  2  X    0.000000   0.000281  -0.033246   0.014447  -0.093159
   27  O  2  Y    0.000000  -0.000218  -0.003414   0.004755  -0.025333
   28  O  2  Z   -0.000210   0.000000   0.000000   0.000000   0.000000
   29  O  2 XX    0.000000   0.000463   0.011718  -0.009350   0.009735
   30  O  2 YY    0.000000  -0.000223  -0.007064   0.004529  -0.003138
   31  O  2 ZZ    0.000000  -0.000239  -0.004654   0.004821  -0.006597
   32  O  2 XY    0.000000   0.000263   0.002171  -0.006677   0.006437
   33  O  2 XZ   -0.000044   0.000000   0.000000   0.000000   0.000000
   34  O  2 YZ   -0.000046   0.000000   0.000000   0.000000   0.000000
   35  O  3  S    0.000000  -0.000193  -0.136786  -0.159172   0.117145
   36  O  3  S    0.000000   0.000100   0.278311   0.329283  -0.250271
   37  O  3  S    0.000000   0.000055   0.233073   0.273631  -0.338471
   38  O  3  X    0.000000   0.000440   0.113926   0.111371   0.194019
   39  O  3  Y    0.000000  -0.000133  -0.028654  -0.032188  -0.063794
   40  O  3  Z    0.000000   0.000000   0.000000   0.000000   0.000000
   41  O  3  X    0.000000  -0.000281   0.033248   0.014443   0.093159
   42  O  3  Y    0.000000  -0.000218  -0.003415  -0.004754  -0.025332
   43  O  3  Z   -0.000210   0.000000   0.000000   0.000000   0.000000
   44  O  3 XX    0.000000   0.000463   0.011718   0.009350   0.009735
   45  O  3 YY    0.000000  -0.000223  -0.007064  -0.004529  -0.003138
   46  O  3 ZZ    0.000000  -0.000239  -0.004655  -0.004821  -0.006597
   47  O  3 XY    0.000000  -0.000263  -0.002171  -0.006677  -0.006437
   48  O  3 XZ    0.000044   0.000000   0.000000   0.000000   0.000000
   49  O  3 YZ   -0.000046   0.000000   0.000000   0.000000   0.000000

                     11         12         13         14         15
                   -0.4533    -0.4500    -0.4417    -0.3524    -0.3412
                     A          A          A          A          A   
    1  S  1  S   -0.000000   0.000000  -0.009500   0.000000   0.000000
    2  S  1  S    0.000000   0.000000   0.060845   0.000000  -0.000000
    3  S  1  S   -0.000001   0.000000  -0.086308   0.000000   0.000000
    4  S  1  S   -0.000001   0.000000  -0.093342   0.000000  -0.000001
    5  S  1  X   -0.170453   0.000000   0.000000   0.000000   0.015439
    6  S  1  Y   -0.000000   0.000000  -0.203155   0.000000   0.000000
    7  S  1  Z    0.000000  -0.209781   0.000000   0.000000   0.000000
    8  S  1  X    0.461017   0.000000  -0.000001   0.000000  -0.035972
    9  S  1  Y    0.000001   0.000000   0.536586   0.000000  -0.000000
   10  S  1  Z    0.000000   0.557498   0.000000  -0.000000   0.000000
   11  S  1  X   -0.047593   0.000000   0.000001   0.000000  -0.057585
   12  S  1  Y    0.000000   0.000000   0.109619   0.000000  -0.000000
   13  S  1  Z    0.000000   0.120036   0.000000  -0.000000   0.000000
   14  S  1 XX   -0.000000   0.000000  -0.047175   0.000000  -0.000000
   15  S  1 YY    0.000000   0.000000   0.060519   0.000000   0.000000
   16  S  1 ZZ    0.000000   0.000000  -0.013344   0.000000   0.000000
   17  S  1 XY    0.039761   0.000000   0.000000   0.000000   0.133295
   18  S  1 XZ    0.000000   0.000000   0.000000   0.138615   0.000000
   19  S  1 YZ    0.000000   0.043171   0.000000  -0.000000   0.000000
   20  O  2  S    0.074503   0.000000   0.012586   0.000000   0.000695
   21  O  2  S   -0.156907   0.000000  -0.027162   0.000000  -0.002796
   22  O  2  S   -0.258688   0.000000  -0.041900   0.000000   0.012346
   23  O  2  X   -0.358100   0.000000  -0.163972   0.000000  -0.193258
   24  O  2  Y   -0.146628   0.000000   0.276231   0.000000   0.420207
   25  O  2  Z    0.000000   0.317106   0.000000   0.460933   0.000000
   26  O  2  X   -0.160205   0.000000  -0.098367   0.000000  -0.123471
   27  O  2  Y   -0.077393   0.000000   0.164821   0.000000   0.291485
   28  O  2  Z    0.000000   0.186483   0.000000   0.319190   0.000000
   29  O  2 XX    0.012436   0.000000   0.016677   0.000000   0.007398
   30  O  2 YY   -0.003544   0.000000  -0.012248   0.000000  -0.008497
   31  O  2 ZZ   -0.008892   0.000000  -0.004429   0.000000   0.001099
   32  O  2 XY    0.011917   0.000000  -0.015109   0.000000  -0.018843
   33  O  2 XZ    0.000000  -0.022750   0.000000  -0.019314   0.000000
   34  O  2 YZ    0.000000  -0.005899   0.000000  -0.005301   0.000000
   35  O  3  S   -0.074503   0.000000   0.012587   0.000000  -0.000695
   36  O  3  S    0.156906   0.000000  -0.027163   0.000000   0.002796
   37  O  3  S    0.258689   0.000000  -0.041900   0.000000  -0.012345
   38  O  3  X   -0.358099   0.000000   0.163974   0.000000  -0.193258
   39  O  3  Y    0.146629   0.000000   0.276231   0.000000  -0.420207
   40  O  3  Z    0.000000   0.317106   0.000000  -0.460933   0.000000
   41  O  3  X   -0.160204   0.000000   0.098368   0.000000  -0.123470
   42  O  3  Y    0.077393   0.000000   0.164821   0.000000  -0.291485
   43  O  3  Z    0.000000   0.186483   0.000000  -0.319190   0.000000
   44  O  3 XX   -0.012436   0.000000   0.016677   0.000000  -0.007398
   45  O  3 YY    0.003543   0.000000  -0.012248   0.000000   0.008497
   46  O  3 ZZ    0.008892   0.000000  -0.004429   0.000000  -0.001099
   47  O  3 XY    0.011917   0.000000   0.015109   0.000000  -0.018843
   48  O  3 XZ    0.000000   0.022750   0.000000  -0.019314   0.000000
   49  O  3 YZ    0.000000  -0.005899   0.000000   0.005301   0.000000

                     16         17         18         19         20
                   -0.2529    -0.1535    -0.0755     0.1180     0.2103
                     A          A          A          A          A   
    1  S  1  S    0.028850   0.000000   0.019471  -0.000000   0.000000
    2  S  1  S   -0.187580   0.000000  -0.130013   0.000001   0.000000
    3  S  1  S    0.225640   0.000000   0.152276  -0.000006   0.000000
    4  S  1  S    0.616048   0.000000   0.627732  -0.000009   0.000000
    5  S  1  X   -0.000000   0.000000  -0.000000  -0.103498   0.000000
    6  S  1  Y    0.115013   0.000000  -0.197911   0.000000   0.000000
    7  S  1  Z    0.000000  -0.232172   0.000000   0.000000   0.244856
    8  S  1  X    0.000000   0.000000   0.000001   0.330274   0.000000
    9  S  1  Y   -0.319231   0.000000   0.619554  -0.000002   0.000000
   10  S  1  Z    0.000000   0.697049   0.000000   0.000000  -0.966398
   11  S  1  X   -0.000001   0.000000  -0.000005   1.513635   0.000000
   12  S  1  Y   -0.050189   0.000000   0.462630  -0.000001   0.000000
   13  S  1  Z    0.000000   0.343078   0.000000   0.000000   1.312000
   14  S  1 XX   -0.189880   0.000000  -0.156825  -0.000005   0.000000
   15  S  1 YY    0.093611   0.000000   0.034838   0.000002   0.000000
   16  S  1 ZZ    0.096269   0.000000   0.121988   0.000003   0.000000
   17  S  1 XY   -0.000000   0.000000   0.000000  -0.144461   0.000000
   18  S  1 XZ    0.000000   0.000000   0.000000   0.000000   0.000000
   19  S  1 YZ    0.000000  -0.029794   0.000000   0.000000  -0.079080
   20  O  2  S    0.015993   0.000000   0.039897   0.072210   0.000000
   21  O  2  S   -0.038917   0.000000  -0.092228  -0.131906   0.000000
   22  O  2  S   -0.104267   0.000000  -0.283336  -0.804982   0.000000
   23  O  2  X    0.237797   0.000000   0.320376   0.056697   0.000000
   24  O  2  Y    0.331501   0.000000  -0.222889   0.170875   0.000000
   25  O  2  Z    0.000000  -0.393628   0.000000   0.000000  -0.042430
   26  O  2  X    0.160945   0.000000   0.291993   0.147235   0.000000
   27  O  2  Y    0.241278   0.000000  -0.201753   0.189342   0.000000
   28  O  2  Z    0.000000  -0.332757   0.000000   0.000000  -0.116057
   29  O  2 XX   -0.002754   0.000000   0.000194  -0.009553   0.000000
   30  O  2 YY    0.000681   0.000000  -0.002130   0.006862   0.000000
   31  O  2 ZZ    0.002073   0.000000   0.001936   0.002690   0.000000
   32  O  2 XY   -0.005089   0.000000  -0.002277   0.000197   0.000000
   33  O  2 XZ    0.000000   0.001017   0.000000   0.000000   0.021967
   34  O  2 YZ    0.000000  -0.000981   0.000000   0.000000   0.004672
   35  O  3  S    0.015993   0.000000   0.039898  -0.072209   0.000000
   36  O  3  S   -0.038918   0.000000  -0.092231   0.131892   0.000000
   37  O  3  S   -0.104268   0.000000  -0.283339   0.805006   0.000000
   38  O  3  X   -0.237797   0.000000  -0.320377   0.056692   0.000000
   39  O  3  Y    0.331501   0.000000  -0.222888  -0.170876   0.000000
   40  O  3  Z    0.000000  -0.393628   0.000000   0.000000  -0.042430
   41  O  3  X   -0.160944   0.000000  -0.291991   0.147251   0.000000
   42  O  3  Y    0.241278   0.000000  -0.201752  -0.189347   0.000000
   43  O  3  Z    0.000000  -0.332757   0.000000   0.000000  -0.116057
   44  O  3 XX   -0.002754   0.000000   0.000194   0.009554   0.000000
   45  O  3 YY    0.000681   0.000000  -0.002130  -0.006863   0.000000
   46  O  3 ZZ    0.002073   0.000000   0.001936  -0.002691   0.000000
   47  O  3 XY    0.005089   0.000000   0.002277   0.000197   0.000000
   48  O  3 XZ    0.000000  -0.001017   0.000000   0.000000  -0.021967
   49  O  3 YZ    0.000000  -0.000981   0.000000   0.000000   0.004672

                     21         22         23         24         25
                    0.2203     0.2583     0.3716     0.5135     0.5158
                     A          A          A          A          A   
    1  S  1  S    0.004004  -0.070370   0.000000   0.000000   0.002097
    2  S  1  S   -0.029202   0.512790  -0.000002   0.000000  -0.015308
    3  S  1  S    0.070112  -1.883943   0.000010   0.000000   0.035969
    4  S  1  S    0.040844   2.204276   0.000001   0.000000   0.074619
    5  S  1  X   -0.000001  -0.000002  -0.313998   0.000000  -0.000000
    6  S  1  Y    0.247113   0.000593  -0.000001   0.000000   0.018280
    7  S  1  Z    0.000000   0.000000   0.000000   0.023047   0.000000
    8  S  1  X    0.000003   0.000010   1.199993   0.000000   0.000001
    9  S  1  Y   -0.967907   0.021521   0.000003   0.000000  -0.074252
   10  S  1  Z    0.000000   0.000000   0.000000  -0.096829   0.000000
   11  S  1  X    0.000000  -0.000001  -1.018310   0.000000   0.000001
   12  S  1  Y    1.319354   0.144655  -0.000001   0.000000   0.113710
   13  S  1  Z    0.000000   0.000000   0.000000   0.104779   0.000000
   14  S  1 XX    0.120801   0.135118   0.000004   0.000000  -0.022047
   15  S  1 YY   -0.121025  -0.066064  -0.000001   0.000000   0.853322
   16  S  1 ZZ    0.000224  -0.069053  -0.000002   0.000000  -0.831275
   17  S  1 XY    0.000000   0.000001  -0.389831   0.000000   0.000001
   18  S  1 XZ    0.000000   0.000000   0.000000  -0.000000   0.000000
   19  S  1 YZ    0.000000   0.000000   0.000000   0.975118   0.000000
   20  O  2  S    0.005443   0.014516   0.016202   0.000000   0.006311
   21  O  2  S    0.011895   0.007108  -0.100559   0.000000  -0.022605
   22  O  2  S   -0.170902  -0.462687   0.211148   0.000000  -0.041991
   23  O  2  X   -0.057531  -0.187518   0.284350   0.000000   0.049357
   24  O  2  Y   -0.042809  -0.078267   0.195491   0.000000  -0.152953
   25  O  2  Z    0.000000   0.000000   0.000000  -0.150699   0.000000
   26  O  2  X    0.024658   0.114739   0.163633   0.000000   0.035721
   27  O  2  Y   -0.097164   0.031689   0.089635   0.000000   0.045821
   28  O  2  Z    0.000000   0.000000   0.000000   0.028885   0.000000
   29  O  2 XX   -0.022404  -0.041031   0.028332   0.000000   0.007969
   30  O  2 YY    0.014305   0.016802  -0.001768   0.000000   0.022168
   31  O  2 ZZ    0.008099   0.024230  -0.026564   0.000000  -0.030137
   32  O  2 XY    0.012415  -0.024241   0.042334   0.000000  -0.027067
   33  O  2 XZ    0.000000   0.000000   0.000000  -0.026584   0.000000
   34  O  2 YZ    0.000000   0.000000   0.000000   0.030681   0.000000
   35  O  3  S    0.005443   0.014517  -0.016202   0.000000   0.006311
   36  O  3  S    0.011892   0.007100   0.100564   0.000000  -0.022606
   37  O  3  S   -0.170897  -0.462673  -0.211160   0.000000  -0.041988
   38  O  3  X    0.057531   0.187517   0.284352   0.000000  -0.049358
   39  O  3  Y   -0.042810  -0.078269  -0.195490   0.000000  -0.152953
   40  O  3  Z    0.000000   0.000000   0.000000  -0.150699   0.000000
   41  O  3  X   -0.024654  -0.114726   0.163621   0.000000  -0.035719
   42  O  3  Y   -0.097165   0.031686  -0.089632   0.000000   0.045821
   43  O  3  Z    0.000000   0.000000   0.000000   0.028885   0.000000
   44  O  3 XX   -0.022404  -0.041031  -0.028333   0.000000   0.007969
   45  O  3 YY    0.014305   0.016801   0.001768   0.000000   0.022168
   46  O  3 ZZ    0.008099   0.024230   0.026565   0.000000  -0.030137
   47  O  3 XY   -0.012415   0.024241   0.042334   0.000000   0.027066
   48  O  3 XZ    0.000000   0.000000   0.000000   0.026584   0.000000
   49  O  3 YZ    0.000000   0.000000   0.000000   0.030681   0.000000

                     26         27         28         29         30
                    0.5678     0.6423     0.6423     0.7553     0.7713
                     A          A          A          A          A   
    1  S  1  S    0.000000   0.023883  -0.000195   0.000000   0.000000
    2  S  1  S    0.000000  -0.193791   0.001585   0.000000  -0.000000
    3  S  1  S    0.000000   0.875651  -0.007165   0.000000   0.000003
    4  S  1  S    0.000000   0.819083  -0.006714   0.000000   0.000005
    5  S  1  X    0.000000  -0.001664  -0.203288   0.000000   0.026551
    6  S  1  Y    0.000000  -0.066852   0.000547   0.000000  -0.000000
    7  S  1  Z    0.000000   0.000000   0.000000   0.000000   0.000000
    8  S  1  X    0.000000   0.009159   1.118820   0.000000  -0.244674
    9  S  1  Y    0.000000   0.390462  -0.003196   0.000000   0.000001
   10  S  1  Z   -0.000000   0.000000   0.000000  -0.000000   0.000000
   11  S  1  X    0.000000   0.000210   0.024633   0.000000   0.220702
   12  S  1  Y    0.000000   0.032571  -0.000268   0.000000  -0.000000
   13  S  1  Z   -0.000000   0.000000   0.000000  -0.000000   0.000000
   14  S  1 XX    0.000000   0.596751  -0.004884   0.000000   0.000001
   15  S  1 YY    0.000000  -0.270645   0.002215   0.000000  -0.000000
   16  S  1 ZZ    0.000000  -0.326105   0.002669   0.000000  -0.000000
   17  S  1 XY    0.000000   0.004927   0.601875   0.000000  -0.233208
   18  S  1 XZ    0.870961   0.000000   0.000000  -0.527525   0.000000
   19  S  1 YZ    0.000000   0.000000   0.000000  -0.000000   0.000000
   20  O  2  S    0.000000   0.068869   0.060901   0.000000   0.007542
   21  O  2  S    0.000000  -0.189128  -0.172795   0.000000  -0.125911
   22  O  2  S    0.000000  -0.509689  -0.424243   0.000000   0.165627
   23  O  2  X    0.000000  -0.332942  -0.102485   0.000000   0.294443
   24  O  2  Y    0.000000  -0.013387  -0.262353   0.000000  -0.530040
   25  O  2  Z   -0.394930   0.000000   0.000000  -0.526690   0.000000
   26  O  2  X    0.000000   1.106456   0.891789   0.000000  -0.564111
   27  O  2  Y    0.000000   0.291080   0.398763   0.000000   0.640711
   28  O  2  Z    0.094180   0.000000   0.000000   0.801343   0.000000
   29  O  2 XX    0.000000   0.001040   0.046553   0.000000  -0.027494
   30  O  2 YY    0.000000   0.002641  -0.031946   0.000000   0.018559
   31  O  2 ZZ    0.000000  -0.003681  -0.014606   0.000000   0.008935
   32  O  2 XY    0.000000   0.006290  -0.001432   0.000000   0.012687
   33  O  2 XZ   -0.059118   0.000000   0.000000   0.056302   0.000000
   34  O  2 YZ   -0.030268   0.000000   0.000000   0.024202   0.000000
   35  O  3  S    0.000000   0.067863  -0.062020   0.000000  -0.007541
   36  O  3  S    0.000000  -0.186278   0.175864   0.000000   0.125902
   37  O  3  S    0.000000  -0.502662   0.432538   0.000000  -0.165623
   38  O  3  X    0.000000   0.331207  -0.107926   0.000000   0.294451
   39  O  3  Y    0.000000  -0.009096   0.262540   0.000000   0.530036
   40  O  3  Z    0.394929   0.000000   0.000000   0.526689   0.000000
   41  O  3  X    0.000000  -1.091692   0.909790   0.000000  -0.564125
   42  O  3  Y    0.000000   0.284517  -0.403477   0.000000  -0.640704
   43  O  3  Z   -0.094179   0.000000   0.000000  -0.801342   0.000000
   44  O  3 XX    0.000000   0.000278  -0.046563   0.000000   0.027494
   45  O  3 YY    0.000000   0.003164   0.031899   0.000000  -0.018559
   46  O  3 ZZ    0.000000  -0.003442   0.014665   0.000000  -0.008935
   47  O  3 XY    0.000000  -0.006313  -0.001329   0.000000   0.012687
   48  O  3 XZ   -0.059118   0.000000   0.000000   0.056302   0.000000
   49  O  3 YZ    0.030268   0.000000   0.000000  -0.024202   0.000000

                     31         32         33         34         35
                    0.8396     0.8643     0.8951     1.1163     1.4358
                     A          A          A          A          A   
    1  S  1  S    0.004318   0.000000  -0.000000   0.010120  -0.003669
    2  S  1  S   -0.037588   0.000000   0.000000  -0.062751   0.044479
    3  S  1  S    0.208319   0.000000   0.000002  -0.206123  -0.180531
    4  S  1  S    0.038985   0.000000  -0.000005   0.816711  -1.667558
    5  S  1  X    0.000000   0.000000  -0.094955  -0.000001  -0.000002
    6  S  1  Y   -0.002453   0.000000   0.000000  -0.063776   0.026071
    7  S  1  Z    0.000000   0.004872   0.000000   0.000000   0.000000
    8  S  1  X    0.000000   0.000000   0.151804   0.000004   0.000023
    9  S  1  Y   -0.005018   0.000000  -0.000001   0.232535  -0.242768
   10  S  1  Z    0.000000  -0.065081   0.000000   0.000000   0.000000
   11  S  1  X   -0.000001   0.000000   0.193778   0.000013   0.000037
   12  S  1  Y   -0.609352   0.000000  -0.000003   0.070255  -0.484002
   13  S  1  Z    0.000000  -0.650729   0.000000   0.000000   0.000000
   14  S  1 XX    0.181735   0.000000  -0.000002   1.074471  -0.180423
   15  S  1 YY   -0.268481   0.000000  -0.000000  -0.457803   0.036137
   16  S  1 ZZ    0.086746   0.000000   0.000002  -0.616668   0.144287
   17  S  1 XY   -0.000001   0.000000   0.757946   0.000002   0.000002
   18  S  1 XZ    0.000000  -0.000000   0.000000   0.000000   0.000000
   19  S  1 YZ    0.000000  -0.206244   0.000000   0.000000   0.000000
   20  O  2  S   -0.012837   0.000000   0.023068   0.033185   0.075152
   21  O  2  S    0.150619   0.000000  -0.100793  -0.027030  -1.244910
   22  O  2  S   -0.156236   0.000000  -0.176821  -0.582264   1.996895
   23  O  2  X    0.158103   0.000000   0.571586   0.527496   0.101522
   24  O  2  Y   -0.580151   0.000000   0.166663   0.244946  -0.071596
   25  O  2  Z    0.000000  -0.621536   0.000000   0.000000   0.000000
   26  O  2  X   -0.115696   0.000000  -0.394795  -0.093848  -0.738002
   27  O  2  Y    0.935584   0.000000  -0.311889  -0.007646   0.047391
   28  O  2  Z    0.000000   0.964538   0.000000   0.000000   0.000000
   29  O  2 XX   -0.010763   0.000000   0.038869  -0.030253  -0.155249
   30  O  2 YY    0.008205   0.000000  -0.055176   0.052437   0.082629
   31  O  2 ZZ    0.002558   0.000000   0.016307  -0.022183   0.072619
   32  O  2 XY    0.040090   0.000000  -0.074176   0.074770  -0.006967
   33  O  2 XZ    0.000000   0.042631   0.000000   0.000000   0.000000
   34  O  2 YZ    0.000000   0.002198   0.000000   0.000000   0.000000
   35  O  3  S   -0.012837   0.000000  -0.023066   0.033187   0.075158
   36  O  3  S    0.150621   0.000000   0.100778  -0.027053  -1.245010
   37  O  3  S   -0.156238   0.000000   0.176841  -0.582226   1.997053
   38  O  3  X   -0.158107   0.000000   0.571591  -0.527490  -0.101523
   39  O  3  Y   -0.580151   0.000000  -0.166669   0.244949  -0.071591
   40  O  3  Z    0.000000  -0.621536   0.000000   0.000000   0.000000
   41  O  3  X    0.115701   0.000000  -0.394797   0.093845   0.738032
   42  O  3  Y    0.935583   0.000000   0.311897  -0.007653   0.047367
   43  O  3  Z    0.000000   0.964539   0.000000   0.000000   0.000000
   44  O  3 XX   -0.010763   0.000000  -0.038869  -0.030253  -0.155255
   45  O  3 YY    0.008205   0.000000   0.055176   0.052437   0.082630
   46  O  3 ZZ    0.002558   0.000000  -0.016307  -0.022184   0.072625
   47  O  3 XY   -0.040090   0.000000  -0.074176  -0.074770   0.006976
   48  O  3 XZ    0.000000  -0.042631   0.000000   0.000000   0.000000
   49  O  3 YZ    0.000000   0.002198   0.000000   0.000000   0.000000

                     36         37         38         39         40
                    1.4992     2.0449     2.0449     2.0638     2.0738
                     A          A          A          A          A   
    1  S  1  S   -0.000000  -0.000000   0.000000   0.000000   0.000823
    2  S  1  S    0.000002   0.000000   0.000000   0.000000  -0.008547
    3  S  1  S   -0.000012  -0.000000   0.000000   0.000000   0.052306
    4  S  1  S   -0.000049  -0.000000   0.000000   0.000000  -0.017391
    5  S  1  X    0.069735   0.000355   0.000000   0.000000   0.000000
    6  S  1  Y    0.000000   0.000000   0.000000   0.000000  -0.008035
    7  S  1  Z    0.000000   0.000000  -0.000000  -0.028391   0.000000
    8  S  1  X   -0.595139   0.004651   0.000000   0.000000  -0.000000
    9  S  1  Y   -0.000007  -0.000000   0.000000   0.000000   0.038613
   10  S  1  Z    0.000000   0.000000   0.000000   0.110019   0.000000
   11  S  1  X   -1.266252  -0.016961   0.000000   0.000000   0.000001
   12  S  1  Y   -0.000015  -0.000000   0.000000   0.000000  -0.010705
   13  S  1  Z    0.000000   0.000000   0.000000  -0.000912   0.000000
   14  S  1 XX    0.000002   0.000000   0.000000   0.000000  -0.052715
   15  S  1 YY   -0.000002   0.000000   0.000000   0.000000  -0.076734
   16  S  1 ZZ   -0.000000  -0.000000   0.000000   0.000000   0.129450
   17  S  1 XY   -0.143057   0.027106   0.000000   0.000000   0.000000
   18  S  1 XZ    0.000000   0.000000  -0.024373   0.000000   0.000000
   19  S  1 YZ    0.000000   0.000000  -0.000000  -0.065575   0.000000
   20  O  2  S    0.073087   0.000889   0.000000   0.000000  -0.003466
   21  O  2  S   -1.277710  -0.008591   0.000000   0.000000   0.033603
   22  O  2  S    2.193678   0.009672   0.000000   0.000000  -0.019713
   23  O  2  X   -0.061356  -0.003127   0.000000   0.000000  -0.027710
   24  O  2  Y    0.084781   0.008721   0.000000   0.000000  -0.004801
   25  O  2  Z    0.000000   0.000000  -0.006031   0.021950   0.000000
   26  O  2  X   -0.333799   0.011946   0.000000   0.000000   0.027669
   27  O  2  Y   -0.346250  -0.012780   0.000000   0.000000   0.003428
   28  O  2  Z    0.000000   0.000000   0.010294  -0.036226   0.000000
   29  O  2 XX   -0.111218  -0.118755   0.000000   0.000000  -0.009979
   30  O  2 YY    0.034809  -0.494330   0.000000   0.000000   0.603062
   31  O  2 ZZ    0.076408   0.613085   0.000000   0.000000  -0.593083
   32  O  2 XY   -0.112571   0.278306   0.000000   0.000000  -0.154377
   33  O  2 XZ    0.000000   0.000000  -0.300574   0.058145   0.000000
   34  O  2 YZ    0.000000   0.000000   0.640260   0.706691   0.000000
   35  O  3  S   -0.073081  -0.000888   0.000000   0.000000  -0.003466
   36  O  3  S    1.277616   0.008591   0.000000   0.000000   0.033602
   37  O  3  S   -2.193541  -0.009671   0.000000   0.000000  -0.019712
   38  O  3  X   -0.061371  -0.003127   0.000000   0.000000   0.027710
   39  O  3  Y   -0.084782  -0.008721   0.000000   0.000000  -0.004801
   40  O  3  Z    0.000000   0.000000   0.006031   0.021950   0.000000
   41  O  3  X   -0.333745   0.011946   0.000000   0.000000  -0.027669
   42  O  3  Y    0.346252   0.012780   0.000000   0.000000   0.003428
   43  O  3  Z    0.000000   0.000000  -0.010295  -0.036226   0.000000
   44  O  3 XX    0.111204   0.118755   0.000000   0.000000  -0.009979
   45  O  3 YY   -0.034800   0.494330   0.000000   0.000000   0.603063
   46  O  3 ZZ   -0.076403  -0.613085   0.000000   0.000000  -0.593084
   47  O  3 XY   -0.112573   0.278305   0.000000   0.000000   0.154378
   48  O  3 XZ    0.000000   0.000000  -0.300574  -0.058145   0.000000
   49  O  3 YZ    0.000000   0.000000  -0.640259   0.706692   0.000000

                     41         42         43         44         45
                    2.1499     2.2727     2.2977     2.3829     2.8196
                     A          A          A          A          A   
    1  S  1  S    0.000000   0.005198  -0.000000   0.000000  -0.042237
    2  S  1  S    0.000000  -0.050699   0.000000   0.000000   0.364487
    3  S  1  S    0.000000   0.242394  -0.000002   0.000000  -1.229948
    4  S  1  S    0.000000   0.192176   0.000001   0.000000  -0.942116
    5  S  1  X    0.000000   0.000000   0.044591   0.000000   0.000003
    6  S  1  Y    0.000000  -0.080561   0.000000   0.000000   0.069613
    7  S  1  Z   -0.071362   0.000000   0.000000   0.000000   0.000000
    8  S  1  X    0.000000  -0.000001  -0.298614   0.000000  -0.000019
    9  S  1  Y    0.000000   0.361883  -0.000000   0.000000  -0.470669
   10  S  1  Z    0.277193   0.000000   0.000000  -0.000000   0.000000
   11  S  1  X    0.000000   0.000003  -0.047782   0.000000  -0.000006
   12  S  1  Y    0.000000   0.117063   0.000000   0.000000  -0.059739
   13  S  1  Z    0.051239   0.000000   0.000000  -0.000000   0.000000
   14  S  1 XX    0.000000  -0.252836  -0.000000   0.000000  -0.904983
   15  S  1 YY    0.000000   0.288153   0.000000   0.000000   0.416520
   16  S  1 ZZ    0.000000  -0.035316   0.000000   0.000000   0.488463
   17  S  1 XY    0.000000   0.000000   0.460496   0.000000  -0.000008
   18  S  1 XZ    0.000000   0.000000   0.000000   0.575624   0.000000
   19  S  1 YZ    0.207531   0.000000   0.000000  -0.000000   0.000000
   20  O  2  S    0.000000  -0.015168   0.012000   0.000000  -0.009458
   21  O  2  S    0.000000   0.254539  -0.197644   0.000000  -0.476701
   22  O  2  S    0.000000  -0.353626   0.264303   0.000000   1.346781
   23  O  2  X    0.000000  -0.115574   0.074337   0.000000  -0.099266
   24  O  2  Y    0.000000   0.030513   0.061674   0.000000  -0.046078
   25  O  2  Z    0.063827   0.000000   0.000000   0.026178   0.000000
   26  O  2  X    0.000000   0.258908  -0.108218   0.000000  -0.766049
   27  O  2  Y    0.000000  -0.140470  -0.205909   0.000000  -0.268383
   28  O  2  Z   -0.150955   0.000000   0.000000  -0.183870   0.000000
   29  O  2 XX    0.000000  -0.477583  -0.249940   0.000000   0.657346
   30  O  2 YY    0.000000   0.335376   0.393439   0.000000  -0.212278
   31  O  2 ZZ    0.000000   0.142207  -0.143498   0.000000  -0.445067
   32  O  2 XY    0.000000   0.539602   0.619530   0.000000   0.568085
   33  O  2 XZ    0.725311   0.000000   0.000000   0.690558   0.000000
   34  O  2 YZ   -0.050447   0.000000   0.000000   0.316376   0.000000
   35  O  3  S    0.000000  -0.015168  -0.012000   0.000000  -0.009458
   36  O  3  S    0.000000   0.254537   0.197644   0.000000  -0.476690
   37  O  3  S    0.000000  -0.353621  -0.264303   0.000000   1.346748
   38  O  3  X    0.000000   0.115574   0.074337   0.000000   0.099263
   39  O  3  Y    0.000000   0.030513  -0.061674   0.000000  -0.046078
   40  O  3  Z    0.063827   0.000000   0.000000  -0.026178   0.000000
   41  O  3  X    0.000000  -0.258909  -0.108218   0.000000   0.766032
   42  O  3  Y    0.000000  -0.140470   0.205909   0.000000  -0.268377
   43  O  3  Z   -0.150955   0.000000   0.000000   0.183870   0.000000
   44  O  3 XX    0.000000  -0.477585   0.249942   0.000000   0.657326
   45  O  3 YY    0.000000   0.335377  -0.393440   0.000000  -0.212268
   46  O  3 ZZ    0.000000   0.142208   0.143497   0.000000  -0.445058
   47  O  3 XY    0.000000  -0.539601   0.619529   0.000000  -0.568079
   48  O  3 XZ   -0.725311   0.000000   0.000000   0.690558   0.000000
   49  O  3 YZ   -0.050447   0.000000   0.000000  -0.316376   0.000000

                     46
                    2.8305
                     A   
    1  S  1  S   -0.000000
    2  S  1  S    0.000004
    3  S  1  S   -0.000013
    4  S  1  S   -0.000013
    5  S  1  X   -0.249748
    6  S  1  Y    0.000001
    7  S  1  Z    0.000000
    8  S  1  X    1.581096
    9  S  1  Y   -0.000005
   10  S  1  Z    0.000000
   11  S  1  X    0.184107
   12  S  1  Y   -0.000001
   13  S  1  Z    0.000000
   14  S  1 XX   -0.000013
   15  S  1 YY    0.000006
   16  S  1 ZZ    0.000007
   17  S  1 XY    0.529282
   18  S  1 XZ    0.000000
   19  S  1 YZ    0.000000
   20  O  2  S    0.004442
   21  O  2  S    0.470898
   22  O  2  S   -1.266005
   23  O  2  X    0.059886
   24  O  2  Y    0.000871
   25  O  2  Z    0.000000
   26  O  2  X    0.754306
   27  O  2  Y    0.220341
   28  O  2  Z    0.000000
   29  O  2 XX   -0.791958
   30  O  2 YY    0.404378
   31  O  2 ZZ    0.387579
   32  O  2 XY   -0.294908
   33  O  2 XZ    0.000000
   34  O  2 YZ    0.000000
   35  O  3  S   -0.004442
   36  O  3  S   -0.470906
   37  O  3  S    1.266035
   38  O  3  X    0.059890
   39  O  3  Y   -0.000873
   40  O  3  Z    0.000000
   41  O  3  X    0.754323
   42  O  3  Y   -0.220348
   43  O  3  Z    0.000000
   44  O  3 XX    0.791973
   45  O  3 YY   -0.404382
   46  O  3 ZZ   -0.387590
   47  O  3 XY   -0.294923
   48  O  3 XZ    0.000000
   49  O  3 YZ    0.000000
 ...... END OF RHF CALCULATION ......
 STEP CPU TIME =     2.52 TOTAL CPU TIME =          2.7 (      0.0 MIN)
 TOTAL WALL CLOCK TIME=          2.7 SECONDS, CPU UTILIZATION IS    98.53%

     ---------------------------------------------------------------------
     PROPERTIES FOR THE PBE      DFT FUNCTIONAL (RHF  TYPE) DENSITY MATRIX
     ---------------------------------------------------------------------

          -----------------
          ENERGY COMPONENTS
          -----------------

         WAVEFUNCTION NORMALIZATION =       1.0000000000

                ONE ELECTRON ENERGY =    -965.2130151396
                TWO ELECTRON ENERGY =     311.3266655276
           NUCLEAR REPULSION ENERGY =     105.6722924604
                                      ------------------
                       TOTAL ENERGY =    -548.2140571517

 ELECTRON-ELECTRON POTENTIAL ENERGY =     311.3266655276
  NUCLEUS-ELECTRON POTENTIAL ENERGY =   -1512.7761388413
   NUCLEUS-NUCLEUS POTENTIAL ENERGY =     105.6722924604
                                      ------------------
             TOTAL POTENTIAL ENERGY =   -1095.7771808533
               TOTAL KINETIC ENERGY =     547.5631237017
                 VIRIAL RATIO (V/T) =       2.0011887825

          ---------------------------------------
          MULLIKEN AND LOWDIN POPULATION ANALYSES
          ---------------------------------------

     ATOMIC MULLIKEN POPULATION IN EACH MOLECULAR ORBITAL

                      1          2          3          4          5

                  2.000000   2.000000   2.000000   2.000000   2.000000

    1             1.999899   0.001269   0.000951   2.001124   2.000162
    2             0.000050   1.014741   0.984149  -0.000562  -0.000081
    3             0.000050   0.983989   1.014901  -0.000562  -0.000081

                      6          7          8          9         10

                  2.000000   2.000000   2.000000   2.000000   2.000000

    1             2.000026   2.000007   0.713038   0.452323   0.762862
    2            -0.000013  -0.000004   0.643478   0.773842   0.618567
    3            -0.000013  -0.000004   0.643484   0.773835   0.618571

                     11         12         13         14         15

                  2.000000   2.000000   2.000000   2.000000   2.000000

    1             0.385064   0.985745   0.954912   0.121938   0.136103
    2             0.807470   0.507128   0.522544   0.939031   0.931949
    3             0.807466   0.507127   0.522544   0.939031   0.931949

                     16

                  2.000000

    1             0.952283
    2             0.523858
    3             0.523859

               ----- POPULATIONS IN EACH AO -----
                             MULLIKEN      LOWDIN
              1  S  1  S      1.99980     1.99924
              2  S  1  S      1.99209     1.88422
              3  S  1  S      1.28772     0.63929
              4  S  1  S      0.69119     0.52488
              5  S  1  X      1.99435     1.95805
              6  S  1  Y      1.99487     1.96544
              7  S  1  Z      1.99377     1.95919
              8  S  1  X      0.83179     0.66426
              9  S  1  Y      0.99186     0.90596
             10  S  1  Z      0.82093     0.72599
             11  S  1  X      0.00748     0.18831
             12  S  1  Y      0.14911     0.27940
             13  S  1  Z      0.16205     0.27302
             14  S  1 XX      0.06709     0.38270
             15  S  1 YY      0.21134     0.32702
             16  S  1 ZZ      0.14130     0.32250
             17  S  1 XY      0.12194     0.16549
             18  S  1 XZ      0.00902     0.14835
             19  S  1 YZ      0.00000     0.00864
             20  O  2  S      1.99554     1.97268
             21  O  2  S      0.95511     0.69580
             22  O  2  S      0.89094     0.51315
             23  O  2  X      0.90784     0.86906
             24  O  2  Y      1.06535     1.03136
             25  O  2  Z      0.87008     0.82947
             26  O  2  X      0.36630     0.52845
             27  O  2  Y      0.62350     0.66602
             28  O  2  Z      0.56894     0.60348
             29  O  2 XX      0.00218     0.21301
             30  O  2 YY      0.00696     0.19649
             31  O  2 ZZ      0.00630     0.19983
             32  O  2 XY      0.00660     0.01077
             33  O  2 XZ      0.00052     0.00875
             34  O  2 YZ      0.00000     0.00070
             35  O  3  S      1.99554     1.97268
             36  O  3  S      0.95511     0.69580
             37  O  3  S      0.89094     0.51315
             38  O  3  X      0.90784     0.86906
             39  O  3  Y      1.06535     1.03136
             40  O  3  Z      0.87008     0.82947
             41  O  3  X      0.36630     0.52845
             42  O  3  Y      0.62350     0.66602
             43  O  3  Z      0.56894     0.60348
             44  O  3 XX      0.00218     0.21301
             45  O  3 YY      0.00696     0.19649
             46  O  3 ZZ      0.00630     0.19983
             47  O  3 XY      0.00660     0.01077
             48  O  3 XZ      0.00052     0.00875
             49  O  3 YZ      0.00000     0.00070

          ----- MULLIKEN ATOMIC OVERLAP POPULATIONS -----
          (OFF-DIAGONAL ELEMENTS NEED TO BE MULTIPLIED BY 2)

             1           2           3

    1   14.9385005
    2    0.2646045   7.9958774
    3    0.2646025   0.0056642   7.9958796

          TOTAL MULLIKEN AND LOWDIN ATOMIC POPULATIONS
       ATOM         MULL.POP.    CHARGE          LOW.POP.     CHARGE
    1 S            15.467708    0.532292        15.321958    0.678042
    2 O             8.266146   -0.266146         8.339021   -0.339021
    3 O             8.266146   -0.266146         8.339021   -0.339021

          MULLIKEN SPHERICAL HARMONIC POPULATIONS
       ATOM           S       P       D      F      G      H      I    TOTAL
    1 S             5.97    8.95    0.55   0.00   0.00   0.00   0.00   15.47
    2 O             3.84    4.40    0.02   0.00   0.00   0.00   0.00    8.27
    3 O             3.84    4.40    0.02   0.00   0.00   0.00   0.00    8.27

          -------------------------------
          BOND ORDER AND VALENCE ANALYSIS     BOND ORDER THRESHOLD=0.050
          -------------------------------

                   BOND                       BOND                       BOND
  ATOM PAIR DIST  ORDER      ATOM PAIR DIST  ORDER      ATOM PAIR DIST  ORDER
    1   2  1.450  1.912        1   3  1.450  1.912        2   3  2.766  0.269

                       TOTAL       BONDED        FREE
      ATOM            VALENCE     VALENCE     VALENCE
    1 S                 3.825       3.825       0.000
    2 O                 2.181       2.181       0.000
    3 O                 2.181       2.181      -0.000

          ---------------------
          ELECTROSTATIC MOMENTS
          ---------------------

 POINT   1           X           Y           Z (BOHR)    CHARGE
                 0.000000   -0.000000    0.000000       -0.00 (A.U.)
         DX          DY          DZ         /D/  (DEBYE)
     0.000000   -0.397867    0.000000    0.397867
 ...... END OF PROPERTY EVALUATION ......
 STEP CPU TIME =     0.00 TOTAL CPU TIME =          2.7 (      0.0 MIN)
 TOTAL WALL CLOCK TIME=          2.7 SECONDS, CPU UTILIZATION IS    98.17%
                580000  WORDS OF DYNAMIC MEMORY USED
 EXECUTION OF GAMESS TERMINATED NORMALLY Sun Sep 29 10:47:52 2019
 DDI: 263640 bytes (0.3 MB / 0 MWords) used by master data server.

 ----------------------------------------
 CPU timing information for all processes
 ========================================
 0: 2.606 + 0.88 = 2.695
 ----------------------------------------
 ddikick.x: exited gracefully.
----- accounting info -----
Files used on the master node crcfe02.crc.nd.edu were:
-rw-r--r-- 1 cdrisko campus     208 Sep 29 10:47 /afs/crc.nd.edu/user/c/cdrisko/SO2.F05
-rw-r--r-- 1 cdrisko campus   37566 Sep 29 10:47 /afs/crc.nd.edu/user/c/cdrisko/SO2.F07
-rw-r--r-- 1 cdrisko campus 4140368 Sep 29 10:47 /afs/crc.nd.edu/user/c/cdrisko/SO2.F08
-rw-r--r-- 1 cdrisko campus 1766880 Sep 29 10:47 /afs/crc.nd.edu/user/c/cdrisko/SO2.F10
Sun Sep 29 10:47:55 EDT 2019
0.439u 0.234s 0:06.38 10.3%	0+0k 0+24io 0pf+0w
