----- GAMESS execution script 'rungms' -----
This job is running on host crcfe02.crc.nd.edu
under operating system Linux at Sun Sep 29 10:49:45 EDT 2019
Available scratch disk space (Kbyte units) at beginning of the job is
Filesystem      1K-blocks  Used  Available Use% Mounted on
AFS            2147483647     0 2147483647   0% /afs
GAMESS temporary binary files will be written to /afs/crc.nd.edu/user/c/cdrisko
GAMESS supplementary output files will be written to /afs/crc.nd.edu/user/c/cdrisko/scr
Copying input file SO2.inp to your run's scratch directory...

 Distributed Data Interface kickoff program.
 Initiating 1 compute processes on 1 nodes to run the following command:
 /afs/crc.nd.edu/x86_64_linux/g/gamess/nov-2017/gamess/gamess.00.x SO2 

          ******************************************************
          *         GAMESS VERSION = 11 NOV 2017 (R3)         *
          *             FROM IOWA STATE UNIVERSITY             *
          * M.W.SCHMIDT, K.K.BALDRIDGE, J.A.BOATZ, S.T.ELBERT, *
          *   M.S.GORDON, J.H.JENSEN, S.KOSEKI, N.MATSUNAGA,   *
          *          K.A.NGUYEN, S.J.SU, T.L.WINDUS,           *
          *       TOGETHER WITH M.DUPUIS, J.A.MONTGOMERY       *
          *         J.COMPUT.CHEM.  14, 1347-1363(1993)        *
          **************** 64 BIT INTEL VERSION ****************

  SINCE 1993, STUDENTS AND POSTDOCS WORKING AT IOWA STATE UNIVERSITY
  AND ALSO IN THEIR VARIOUS JOBS AFTER LEAVING ISU HAVE MADE IMPORTANT
  CONTRIBUTIONS TO THE CODE:
     IVANA ADAMOVIC, CHRISTINE AIKENS, YURI ALEXEEV, POOJA ARORA,
     ANDREY ASADCHEV, ROB BELL, PRADIPTA BANDYOPADHYAY, JONATHAN BENTZ,
     BRETT BODE, KURT BRORSEN, CALEB CARLIN, GALINA CHABAN, WEI CHEN,
     CHEOL HO CHOI, PAUL DAY, ALBERT DEFUSCO, NUWAN DESILVA, TIM DUDLEY,
     DMITRI FEDOROV, ALEX FINDLATER, GRAHAM FLETCHER, MARK FREITAG,
     KURT GLAESEMANN, ANASTASIA GUININA,
     DAN KEMP, GRANT MERRILL, NORIYUKI MINEZAWA, JONATHAN MULLIN,
     TAKESHI NAGATA, SEAN NEDD, HEATHER NETZLOFF, BOSILJKA NJEGIC, RYAN OLSON,
     MIKE PAK, BUU PHAM,
     SPENCER PRUITT, LUKE ROSKOP, JIM SHOEMAKER, LYUDMILA SLIPCHENKO,
     TONY SMITH, SAROM SOK LEANG, JIE SONG, TETSUYA TAKETSUGU, SIMON WEBB,
     PENG XU, SOOHAENG YOO, FEDERICO ZAHARIEV

  ADDITIONAL CODE HAS BEEN PROVIDED BY COLLABORATORS IN OTHER GROUPS:
     IOWA STATE UNIVERSITY:
          JOE IVANIC, AARON WEST, LAIMUTIS BYTAUTAS, KLAUS RUEDENBERG
     UNIVERSITY OF TOKYO: KIMIHIKO HIRAO, TAKAHITO NAKAJIMA,
          TAKAO TSUNEDA, MUNEAKI KAMIYA, SUSUMU YANAGISAWA,
          KIYOSHI YAGI, MAHITO CHIBA, SEIKEN TOKURA, NAOAKI KAWAKAMI
     UNIVERSITY OF AARHUS: FRANK JENSEN
     UNIVERSITY OF IOWA: VISVALDAS KAIRYS, HUI LI
     NATIONAL INST. OF STANDARDS AND TECHNOLOGY: WALT STEVENS, DAVID GARMER
     UNIVERSITY OF PISA: BENEDETTA MENNUCCI, JACOPO TOMASI
     UNIVERSITY OF MEMPHIS: HENRY KURTZ, PRAKASHAN KORAMBATH
     UNIVERSITY OF ALBERTA: TOBY ZENG, MARIUSZ KLOBUKOWSKI
     UNIVERSITY OF NEW ENGLAND: MARK SPACKMAN
     MIE UNIVERSITY: HIROAKI UMEDA
     NAT. INST. OF ADVANCED INDUSTRIAL SCIENCE AND TECHNOLOGY: KAZUO KITAURA
     MICHIGAN STATE UNIVERSITY:
          KAROL KOWALSKI, MARTA WLOCH, JEFFREY GOUR, JESSE LUTZ,
          WEI LI, PIOTR PIECUCH
     UNIVERSITY OF SILESIA: MONIKA MUSIAL, STANISLAW KUCHARSKI
     FACULTES UNIVERSITAIRES NOTRE-DAME DE LA PAIX:
          OLIVIER QUINET, BENOIT CHAMPAGNE
     UNIVERSITY OF CALIFORNIA - SANTA BARBARA: BERNARD KIRTMAN
     INSTITUTE FOR MOLECULAR SCIENCE:
          KAZUYA ISHIMURA, MICHIO KATOUDA, AND SHIGERU NAGASE
     UNIVERSITY OF NOTRE DAME: ANNA POMOGAEVA, DAN CHIPMAN
     KYUSHU UNIVERSITY:
          HARUYUKI NAKANO,
          FENG LONG GU, JACEK KORCHOWIEC, MARCIN MAKOWSKI, AND YURIKO AOKI,
          HIROTOSHI MORI AND EISAKU MIYOSHI
     PENNSYLVANIA STATE UNIVERSITY:
          TZVETELIN IORDANOV, CHET SWALINA, JONATHAN SKONE,
          SHARON HAMMES-SCHIFFER
     WASEDA UNIVERSITY:
          MASATO KOBAYASHI, TOMOKO AKAMA, TSUGUKI TOUMA,
          TAKESHI YOSHIKAWA, YASUHIRO IKABATA, JUNJI SEINO,
          YUYA NAKAJIMA, HIROMI NAKAI
     NANJING UNIVERSITY: SHUHUA LI
     UNIVERSITY OF NEBRASKA:
          PEIFENG SU, DEJUN SI, NANDUN THELLAMUREGE, YALI WANG, HUI LI
     UNIVERSITY OF ZURICH: ROBERTO PEVERATI, KIM BALDRIDGE
     N. COPERNICUS UNIVERSITY AND JACKSON STATE UNIVERSITY:
          MARIA BARYSZ
     UNIVERSITY OF COPENHAGEN: Jimmy Kromann, CASPER STEINMANN
     TOKYO INSTITUTE OF TECHNOLOGY: HIROYA NAKATA
     NAGOYA UNIVERSITY: YOSHIO NISHIMOTO, STEPHAN IRLE
     MOSCOW STATE UNIVERSITY: VLADIMIR MIRONOV

 EXECUTION OF GAMESS BEGUN Sun Sep 29 10:49:45 2019

            ECHO OF THE FIRST FEW INPUT CARDS -
 INPUT CARD> $BASIS GBASIS=PCSEG-1 $END                                                     
 INPUT CARD> $CONTRL COORD=ZMT ISPHER=1 RUNTYP=ENERGY DFTTYP=PBE MULT=1 $END                
 INPUT CARD>                                                                                
 INPUT CARD> $DATA                                                                          
 INPUT CARD>Title SO2 single-point calculation template with Z-Matrix                       
 INPUT CARD>C1                                                                              
 INPUT CARD>S                                                                               
 INPUT CARD>O 1 1.55                                                                        
 INPUT CARD>O 1 1.55 2 105                                                                  
 INPUT CARD> $END                                                                           
    1000000 WORDS OF MEMORY AVAILABLE

     BASIS OPTIONS
     -------------
     GBASIS=PCSEG-1      IGAUSS=       0      POLAR=NONE    
     NDFUNC=       0     NFFUNC=       0     DIFFSP=       F
     NPFUNC=       0      DIFFS=       F     BASNAM=        


     RUN TITLE
     ---------
 Title SO2 single-point calculation template with Z-Matrix                       

 THE POINT GROUP OF THE MOLECULE IS C1      
 THE ORDER OF THE PRINCIPAL AXIS IS     0

 YOUR FULLY SUBSTITUTED Z-MATRIX IS
 S   
 O      1   1.5500000
 O      1   1.5500000  2  105.0000

 THE MOMENTS OF INERTIA ARE (AMU-ANGSTROM**2)
 IXX=    14.237   IYY=    48.374   IZZ=    62.611

 ATOM      ATOMIC                      COORDINATES (BOHR)
           CHARGE         X                   Y                   Z
 S          16.0     0.0000000000       -0.8918014411        0.0000000000
 O           8.0     2.3237916581        0.8913066126        0.0000000000
 O           8.0    -2.3237916581        0.8913066126        0.0000000000

          INTERNUCLEAR DISTANCES (ANGS.)
          ------------------------------

                1 S          2 O          3 O     

   1 S       0.0000000    1.5500000 *  1.5500000 *
   2 O       1.5500000 *  0.0000000    2.4593954 *
   3 O       1.5500000 *  2.4593954 *  0.0000000  

  * ... LESS THAN  3.000


     ATOMIC BASIS SET
     ----------------
 THE CONTRACTED PRIMITIVE FUNCTIONS HAVE BEEN UNNORMALIZED
 THE CONTRACTED BASIS FUNCTIONS ARE NOW NORMALIZED TO UNITY

  SHELL TYPE  PRIMITIVE        EXPONENT          CONTRACTION COEFFICIENT(S)

 S         

      1   S       1         49299.4000000    0.000677492991
      1   S       2          7395.8400000    0.005232317766
      1   S       3          1683.3000000    0.026769459077
      1   S       4           476.1440000    0.102869580705
      1   S       5           154.3290000    0.286438127414
      1   S       6            55.0288000    0.454278639081
      1   S       7            20.5029000    0.271743121997

      2   S       8            45.9596000   -0.088421914560
      2   S       9             4.9274000    0.564350486135
      2   S      10             1.9179900    0.505415953466

      3   S      11             0.3684980    1.000000000000

      4   S      12             0.1291650    1.000000000000

      5   P      13           451.6620000    0.003707705453
      5   P      14           106.0980000    0.029219352245
      5   P      15            33.6996000    0.124444551509
      5   P      16            12.3054000    0.321808587656
      5   P      17             4.7141200    0.462822172957
      5   P      18             1.7810500    0.266513371364

      6   P      19             0.8722350    0.349265132972
      6   P      20             0.3102780    0.717115018770

      7   P      21             0.1001940    1.000000000000

      8   D      22             0.5500000    1.000000000000

 O         

      9   S      23          2288.6400000    0.005451138222
      9   S      24           344.4160000    0.040718922842
      9   S      25            78.2538000    0.181369420873
      9   S      26            21.7195000    0.465536820246
      9   S      27             6.5590700    0.451211321214

     10   S      28            10.4656000   -0.150211201174
     10   S      29             0.9643510    1.052867983385

     11   S      30             0.2851270    1.000000000000

     12   P      31            17.0590000    0.068749256972
     12   P      32             3.6899900    0.351671941499
     12   P      33             0.9929960    0.724532099722

     13   P      34             0.2449240    1.000000000000

     14   D      35             1.0000000    1.000000000000

 O         

     15   S      36          2288.6400000    0.005451138222
     15   S      37           344.4160000    0.040718922842
     15   S      38            78.2538000    0.181369420873
     15   S      39            21.7195000    0.465536820246
     15   S      40             6.5590700    0.451211321214

     16   S      41            10.4656000   -0.150211201174
     16   S      42             0.9643510    1.052867983385

     17   S      43             0.2851270    1.000000000000

     18   P      44            17.0590000    0.068749256972
     18   P      45             3.6899900    0.351671941499
     18   P      46             0.9929960    0.724532099722

     19   P      47             0.2449240    1.000000000000

     20   D      48             1.0000000    1.000000000000

 TOTAL NUMBER OF BASIS SET SHELLS             =   20
 NUMBER OF CARTESIAN GAUSSIAN BASIS FUNCTIONS =   49
 NOTE: THIS RUN WILL RESTRICT THE MO VARIATION SPACE TO SPHERICAL HARMONICS.
 THE NUMBER OF ORBITALS KEPT IN THE VARIATIONAL SPACE WILL BE PRINTED LATER.
 NUMBER OF ELECTRONS                          =   32
 CHARGE OF MOLECULE                           =    0
 SPIN MULTIPLICITY                            =    1
 NUMBER OF OCCUPIED ORBITALS (ALPHA)          =   16
 NUMBER OF OCCUPIED ORBITALS (BETA )          =   16
 TOTAL NUMBER OF ATOMS                        =    3
 THE NUCLEAR REPULSION ENERGY IS      101.1701949669

     LEBEDEV GRID-BASED DFT OPTIONS
     ------------------------------
     DFTTYP=PBE     
     NRAD  =      96     NLEB  =     302
     NRAD0 =      24     NLEB0 =     110
     SWOFF =    5.00E-03 (PURE SCF -> DFT)
     SWITCH=    3.00E-04 (COARSE -> TIGHT GRID)
     THRESH=    0.00E+00 GTHRE=    1.00E+00

 GRIMME'S EMPIRICAL DISPERSION CORRECTION= F

     $CONTRL OPTIONS
     ---------------
 SCFTYP=RHF          RUNTYP=ENERGY       EXETYP=RUN     
 MPLEVL=       0     CITYP =NONE         CCTYP =NONE         VBTYP =NONE    
 DFTTYP=PBE          TDDFT =NONE    
 MULT  =       1     ICHARG=       0     NZVAR =       0     COORD =ZMT     
 PP    =NONE         RELWFN=NONE         LOCAL =NONE         NUMGRD=       F
 ISPHER=       1     NOSYM =       0     MAXIT =      30     UNITS =ANGS    
 PLTORB=       F     MOLPLT=       F     AIMPAC=       F     FRIEND=        
 NPRINT=       7     IREST =       0     GEOM  =INPUT   
 NORMF =       0     NORMP =       0     ITOL  =      20     ICUT  =       9
 INTTYP=BEST         GRDTYP=BEST         QMTTOL= 1.0E-06

     $SYSTEM OPTIONS
     ---------------
  REPLICATED MEMORY=     1000000 WORDS (ON EVERY NODE).
 DISTRIBUTED MEMDDI=           0 MILLION WORDS IN AGGREGATE,
 MEMDDI DISTRIBUTED OVER   1 PROCESSORS IS           0 WORDS/PROCESSOR.
 TOTAL MEMORY REQUESTED ON EACH PROCESSOR=     1000000 WORDS.
 TIMLIM=      525600.00 MINUTES, OR     365.0 DAYS.
 PARALL= F  BALTYP=  DLB     KDIAG=    0  COREFL= F
 MXSEQ2=     300 MXSEQ3=     150  mem10=         0

          ----------------
          PROPERTIES INPUT
          ----------------

     MOMENTS            FIELD           POTENTIAL          DENSITY
 IEMOM =       1   IEFLD =       0   IEPOT =       0   IEDEN =       0
 WHERE =COMASS     WHERE =NUCLEI     WHERE =NUCLEI     WHERE =NUCLEI  
 OUTPUT=BOTH       OUTPUT=BOTH       OUTPUT=BOTH       OUTPUT=BOTH    
 IEMINT=       0   IEFINT=       0                     IEDINT=       0
                                                       MORB  =       0
          EXTRAPOLATION IN EFFECT
          DIIS IN EFFECT
 ORBITAL PRINTING OPTION: NPREO=     1    49     2     1

     -------------------------------
     INTEGRAL TRANSFORMATION OPTIONS
     -------------------------------
     NWORD  =            0
     CUTOFF = 1.0E-09     MPTRAN =       0
     DIRTRF =       F     AOINTS =DUP     

          ----------------------
          INTEGRAL INPUT OPTIONS
          ----------------------
 NOPK  =       1 NORDER=       0 SCHWRZ=       F

   --- ENCODED Z MATRIX ---
 COORD  TYPE   I   J   K   L   M   N
    1      1    2   1
    2      1    3   1
    3      2    3   1   2

 THE DETERMINANT OF THE G MATRIX IS 10**(    -4)

 THE DETERMINANT OF THE G MATRIX IS 10**(    -4)
 * * * WARNING * * *
 YOUR B MATRIX HAS A SMALL DETERMINANT.
 THIS SUGGESTS YOU MAY HAVE BADLY CHOSEN COORDINATES.

     ------------------------------------------
     THE POINT GROUP IS C1 , NAXIS= 0, ORDER= 1
     ------------------------------------------

 -- VARIATIONAL SPACE WILL BE RESTRICTED TO PURE SPHERICAL HARMONICS ONLY --
 AFTER EXCLUDING CONTAMINANT COMBINATIONS FROM THE CARTESIAN GAUSSIAN BASIS
 SET, THE NUMBER OF SPHERICAL HARMONICS KEPT IN THE VARIATION SPACE IS   46

     DIMENSIONS OF THE SYMMETRY SUBSPACES ARE
 A   =   46

 ..... DONE SETTING UP THE RUN .....
 STEP CPU TIME =     0.04 TOTAL CPU TIME =          0.0 (      0.0 MIN)
 TOTAL WALL CLOCK TIME=          0.0 SECONDS, CPU UTILIZATION IS   100.00%

          ********************
          1 ELECTRON INTEGRALS
          ********************
 ...... END OF ONE-ELECTRON INTEGRALS ......
 STEP CPU TIME =     0.01 TOTAL CPU TIME =          0.0 (      0.0 MIN)
 TOTAL WALL CLOCK TIME=          0.0 SECONDS, CPU UTILIZATION IS   125.00%

          -------------
          GUESS OPTIONS
          -------------
          GUESS =HUCKEL            NORB  =       0          NORDER=       0
          MIX   =       F          PRTMO =       F          PUNMO =       F
          TOLZ  = 1.0E-08          TOLE  = 1.0E-05
          SYMDEN=       F          PURIFY=       F

 INITIAL GUESS ORBITALS GENERATED BY HUCKEL   ROUTINE.
 HUCKEL GUESS REQUIRES     21634 WORDS.

 STATISTICS FOR GENERATION OF SYMMETRY ORBITAL -Q- MATRIX
 NUMBER OF CARTESIAN ATOMIC ORBITALS=         49
 NUMBER OF SPHERICAL CONTAMINANTS DROPPED=     3
 NUMBER OF LINEARLY DEPENDENT MOS DROPPED=     0
 TOTAL NUMBER OF MOS IN VARIATION SPACE=      46

 SYMMETRIES FOR INITIAL GUESS ORBITALS FOLLOW.   BOTH SET(S).
    16 ORBITALS ARE OCCUPIED (    7 CORE ORBITALS).
     8=A        9=A       10=A       11=A       12=A       13=A       14=A   
    15=A       16=A       17=A       18=A       19=A       20=A       21=A   
    22=A       23=A       24=A       25=A       26=A   
 ...... END OF INITIAL ORBITAL SELECTION ......
 STEP CPU TIME =     0.00 TOTAL CPU TIME =          0.0 (      0.0 MIN)
 TOTAL WALL CLOCK TIME=          0.0 SECONDS, CPU UTILIZATION IS   100.00%

                    ----------------------
                    AO INTEGRAL TECHNOLOGY
                    ----------------------
     S,P,L SHELL ROTATED AXIS INTEGRALS, REPROGRAMMED BY
        KAZUYA ISHIMURA (IMS) AND JOSE SIERRA (SYNSTAR).
     S,P,D,L SHELL ROTATED AXIS INTEGRALS PROGRAMMED BY
        KAZUYA ISHIMURA (INSTITUTE FOR MOLECULAR SCIENCE).
     S,P,D,F,G SHELL TO TOTAL QUARTET ANGULAR MOMENTUM SUM 5,
        ERIC PROGRAM BY GRAHAM FLETCHER (ELORET AND NASA ADVANCED
        SUPERCOMPUTING DIVISION, AMES RESEARCH CENTER).
     S,P,D,F,G,L SHELL GENERAL RYS QUADRATURE PROGRAMMED BY
        MICHEL DUPUIS (PACIFIC NORTHWEST NATIONAL LABORATORY).

          --------------------
          2 ELECTRON INTEGRALS
          --------------------

 THE -PK- OPTION IS OFF, THE INTEGRALS ARE NOT IN SUPERMATRIX FORM.
 STORING   15000 INTEGRALS/RECORD ON DISK, USING 12 BYTES/INTEGRAL.
 TWO ELECTRON INTEGRAL EVALUATION REQUIRES   90606 WORDS OF MEMORY.
 II,JST,KST,LST =  1  1  1  1 NREC =         1 INTLOC =    1
 II,JST,KST,LST =  2  1  1  1 NREC =         1 INTLOC =    2
 II,JST,KST,LST =  3  1  1  1 NREC =         1 INTLOC =    7
 II,JST,KST,LST =  4  1  1  1 NREC =         1 INTLOC =   22
 II,JST,KST,LST =  5  1  1  1 NREC =         1 INTLOC =   56
 II,JST,KST,LST =  6  1  1  1 NREC =         1 INTLOC =  125
 II,JST,KST,LST =  7  1  1  1 NREC =         1 INTLOC =  329
 II,JST,KST,LST =  8  1  1  1 NREC =         1 INTLOC =  776
 II,JST,KST,LST =  9  1  1  1 NREC =         1 INTLOC = 2864
 II,JST,KST,LST = 10  1  1  1 NREC =         1 INTLOC = 4953
 II,JST,KST,LST = 11  1  1  1 NREC =         1 INTLOC = 7618
 II,JST,KST,LST = 12  1  1  1 NREC =         1 INTLOC =10735
 II,JST,KST,LST = 13  1  1  1 NREC =         2 INTLOC = 6653
 II,JST,KST,LST = 14  1  1  1 NREC =         3 INTLOC = 6922
 II,JST,KST,LST = 15  1  1  1 NREC =         6 INTLOC = 8921
 II,JST,KST,LST = 16  1  1  1 NREC =         7 INTLOC = 1587
 II,JST,KST,LST = 17  1  1  1 NREC =         7 INTLOC =13448
 II,JST,KST,LST = 18  1  1  1 NREC =         8 INTLOC =11909
 II,JST,KST,LST = 19  1  1  1 NREC =        11 INTLOC = 7986
 II,JST,KST,LST = 20  1  1  1 NREC =        15 INTLOC =  317
 TOTAL NUMBER OF NONZERO TWO-ELECTRON INTEGRALS =              344652
         23 INTEGRAL RECORDS WERE STORED ON DISK FILE  8.
  ...... END OF TWO-ELECTRON INTEGRALS .....
 STEP CPU TIME =     0.11 TOTAL CPU TIME =          0.2 (      0.0 MIN)
 TOTAL WALL CLOCK TIME=          0.2 SECONDS, CPU UTILIZATION IS   100.00%

          --------------------------
               R-PBE SCF CALCULATION
          --------------------------

     NUCLEAR ENERGY =       101.1701949669
     MAXIT =   30     NPUNCH=    2
     EXTRAP=T  DAMP=F  SHIFT=F  RSTRCT=F  DIIS=T  DEM=F  SOSCF=F
         DENSITY MATRIX CONVERGENCE THRESHOLD=  1.00E-05
     COARSE -> FINE DFT GRID SWITCH THRESHOLD=  3.00E-04 (SWITCH IN $DFT)
                   HF -> DFT SWITCH THRESHOLD=  5.00E-03 (SWOFF IN $DFT)
     MEMORY REQUIRED FOR RHF ITERS=    183108 WORDS.

 DFT CODE IS SWITCHING FROM THE FINE GRID NRAD= 96,  NLEB=  302
                      TO THE COARSE GRID NRAD0= 24, NLEB0=  110

     EXCHANGE FUNCTIONAL   =PBE       
     CORRELATION FUNCTIONAL=PBE       
     DFT THRESHOLD         =.460E-07
     GRID CHANGE THRESHOLD =.300E-03
 FOR AN EULER-MACLAURIN QUADRATURE USING  96 RADIAL POINTS:
 SMALLEST GAUSSIAN PRIMITIVE EXPONENT=        0.1001940000 OF TYPE -P-
 ON ATOM NUMBER   1 HAS RADIAL NORMALIZATION=  1.000000
  LARGEST GAUSSIAN PRIMITIVE EXPONENT=    49299.4000000000 OF TYPE -S-
 ON ATOM NUMBER   1 HAS RADIAL NORMALIZATION=  1.000000
 DFT IS SWITCHED OFF, PERFORMING PURE SCF UNTIL SWOFF THRESHOLD IS REACHED.

 ITER EX DEM     TOTAL ENERGY        E CHANGE  DENSITY CHANGE    DIIS ERROR
   1  0  0     -546.0780696998  -546.0780696998   0.611341464   0.976029745
          * * *   INITIATING DIIS PROCEDURE   * * *
   2  1  0     -546.7554274913    -0.6773577915   0.560866170   0.288877507
   3  2  0     -546.8299721934    -0.0745447020   0.207300059   0.231653433
   4  3  0     -547.0606022427    -0.2306300493   0.024628414   0.009015588
   5  4  0     -547.0611028234    -0.0005005808   0.004013948   0.003459629
 CONVERGED TO SWOFF, SO DFT CALCULATION IS NOW SWITCHED ON.
          * * *   INITIATING DIIS PROCEDURE   * * *
   6  5  0     -548.2134858810    -1.1523830575   0.393537669   0.100376195
   7  6  0     -548.2096555275     0.0038303535   0.343703736   0.113984771
   8  7  0     -548.2153442853    -0.0056887578   0.117021747   0.107794440
   9  8  0     -548.2515003380    -0.0361560527   0.025578937   0.012233500
  10  9  0     -548.2520171062    -0.0005167682   0.001653846   0.000751514
  11 10  0     -548.2520194851    -0.0000023790   0.000457156   0.000401803
  12 11  0     -548.2520198751    -0.0000003900   0.000171820   0.000050085
 DFT CODE IS SWITCHING BACK TO THE FINE GRID
          * * *   INITIATING DIIS PROCEDURE   * * *
  13 12  0     -548.2348329236     0.0171869515   0.008401553   0.011473871
  14 13  0     -548.2350424906    -0.0002095670   0.011617431   0.002510666
  15 14  0     -548.2348635120     0.0001789786   0.010144166   0.006527263
  16 15  0     -548.2350256123    -0.0001621003   0.003931697   0.003991797
  17 16  0     -548.2350619742    -0.0000363619   0.000637586   0.000522006
  18 17  0     -548.2350633578    -0.0000013836   0.000109412   0.000037292
  19 18  0     -548.2350633648    -0.0000000070   0.000024067   0.000009052
  20 19  0     -548.2350633651    -0.0000000003   0.000002401   0.000001734
  21 20  0     -548.2350633651    -0.0000000000   0.000000134   0.000000088

          -----------------
          DENSITY CONVERGED
          -----------------
     TIME TO FORM FOCK OPERATORS=       2.5 SECONDS (       0.1 SEC/ITER)
     TIME TO SOLVE SCF EQUATIONS=       0.0 SECONDS (       0.0 SEC/ITER)

 FINAL R-PBE ENERGY IS     -548.2350633651 AFTER  21 ITERATIONS
 DFT EXCHANGE + CORRELATION ENERGY =       -42.4110720121
 TOTAL ELECTRON NUMBER             =        31.9999540815

          ------------
          EIGENVECTORS
          ------------

                      1          2          3          4          5
                  -88.2285   -18.8015   -18.8015    -7.8448    -5.8706
                     A          A          A          A          A   
    1  S  1  S    0.997756  -0.000018  -0.000000  -0.308379  -0.000000
    2  S  1  S    0.008268   0.000034   0.000000   1.031673   0.000000
    3  S  1  S   -0.003060  -0.000407  -0.000003   0.028046  -0.000000
    4  S  1  S    0.000815   0.008513   0.000071  -0.005855  -0.000000
    5  S  1  X   -0.000000   0.000000  -0.000033  -0.000000   0.994603
    6  S  1  Y    0.000152  -0.000160  -0.000001   0.009409  -0.000001
    7  S  1  Z    0.000000   0.000000   0.000000   0.000000   0.000000
    8  S  1  X    0.000000  -0.000013   0.001545  -0.000000   0.017313
    9  S  1  Y   -0.000460   0.001854   0.000015   0.001182  -0.000000
   10  S  1  Z    0.000000   0.000000   0.000000   0.000000   0.000000
   11  S  1  X    0.000000  -0.000025   0.003059   0.000000  -0.002669
   12  S  1  Y   -0.000001   0.003728   0.000031  -0.000212  -0.000000
   13  S  1  Z    0.000000   0.000000   0.000000   0.000000   0.000000
   14  S  1 XX   -0.000176   0.000411   0.000003   0.000518  -0.000000
   15  S  1 YY   -0.000015   0.000292   0.000002  -0.000107  -0.000000
   16  S  1 ZZ    0.000191  -0.000703  -0.000006  -0.000410   0.000000
   17  S  1 XY    0.000000  -0.000002   0.000176  -0.000000   0.001313
   18  S  1 XZ    0.000000   0.000000   0.000000   0.000000   0.000000
   19  S  1 YZ    0.000000   0.000000   0.000000   0.000000   0.000000
   20  O  2  S   -0.000015   0.696485   0.708100  -0.000040  -0.000241
   21  O  2  S   -0.000145   0.023839   0.023760  -0.000150  -0.000037
   22  O  2  S    0.000395  -0.012592  -0.010495  -0.000247  -0.000775
   23  O  2  X   -0.000042  -0.000713  -0.000842   0.000173  -0.000220
   24  O  2  Y   -0.000022  -0.000540  -0.000685   0.000112  -0.000135
   25  O  2  Z    0.000000   0.000000   0.000000   0.000000   0.000000
   26  O  2  X   -0.000353   0.002658   0.001677   0.000693   0.000816
   27  O  2  Y   -0.000292   0.001429   0.001638   0.000623   0.000756
   28  O  2  Z    0.000000   0.000000   0.000000   0.000000   0.000000
   29  O  2 XX    0.000117  -0.000181  -0.000128  -0.000013   0.000313
   30  O  2 YY    0.000016   0.000044  -0.000060  -0.000020   0.000010
   31  O  2 ZZ   -0.000134   0.000136   0.000187   0.000033  -0.000324
   32  O  2 XY    0.000224  -0.000301  -0.000174  -0.000053   0.000520
   33  O  2 XZ    0.000000   0.000000   0.000000   0.000000   0.000000
   34  O  2 YZ    0.000000   0.000000   0.000000   0.000000   0.000000
   35  O  3  S   -0.000015   0.708129  -0.696456  -0.000040   0.000241
   36  O  3  S   -0.000145   0.024230  -0.023361  -0.000150   0.000037
   37  O  3  S    0.000395  -0.012764   0.010285  -0.000247   0.000775
   38  O  3  X    0.000042   0.000727  -0.000830  -0.000173  -0.000220
   39  O  3  Y   -0.000022  -0.000552   0.000676   0.000112   0.000135
   40  O  3  Z    0.000000   0.000000   0.000000   0.000000   0.000000
   41  O  3  X    0.000353  -0.002686   0.001632  -0.000693   0.000816
   42  O  3  Y   -0.000292   0.001456  -0.001614   0.000623  -0.000756
   43  O  3  Z    0.000000   0.000000   0.000000   0.000000   0.000000
   44  O  3 XX    0.000117  -0.000183   0.000125  -0.000013  -0.000313
   45  O  3 YY    0.000016   0.000043   0.000061  -0.000020  -0.000010
   46  O  3 ZZ   -0.000134   0.000140  -0.000185   0.000033   0.000324
   47  O  3 XY   -0.000224   0.000304  -0.000169   0.000053   0.000520
   48  O  3 XZ    0.000000   0.000000   0.000000   0.000000   0.000000
   49  O  3 YZ    0.000000   0.000000   0.000000   0.000000   0.000000

                      6          7          8          9         10
                   -5.8696    -5.8653    -1.0153    -0.9238    -0.6067
                     A          A          A          A          A   
    1  S  1  S    0.000000   0.002947   0.049162  -0.000000   0.069271
    2  S  1  S    0.000000  -0.010126  -0.302726   0.000000  -0.443452
    3  S  1  S    0.000000  -0.000314   0.425926  -0.000001   0.683269
    4  S  1  S    0.000000   0.001690   0.069420   0.000005   0.255668
    5  S  1  X    0.000000   0.000001  -0.000000   0.113454   0.000000
    6  S  1  Y    0.000000   0.994782  -0.066447  -0.000000   0.057360
    7  S  1  Z    0.994935   0.000000   0.000000   0.000000   0.000000
    8  S  1  X    0.000000   0.000000   0.000001  -0.257392  -0.000000
    9  S  1  Y    0.000000   0.016453   0.144618   0.000001  -0.137691
   10  S  1  Z    0.016017   0.000000   0.000000   0.000000   0.000000
   11  S  1  X    0.000000  -0.000000   0.000002   0.006266  -0.000001
   12  S  1  Y    0.000000  -0.002490  -0.017105   0.000003  -0.050072
   13  S  1  Z   -0.003101   0.000000   0.000000   0.000000   0.000000
   14  S  1 XX    0.000000  -0.000140   0.030153   0.000000  -0.007794
   15  S  1 YY    0.000000   0.000780   0.004172   0.000000  -0.010808
   16  S  1 ZZ    0.000000  -0.000640  -0.034325  -0.000001   0.018602
   17  S  1 XY    0.000000   0.000000   0.000001  -0.080046  -0.000000
   18  S  1 XZ   -0.000000   0.000000   0.000000   0.000000   0.000000
   19  S  1 YZ    0.000569   0.000000   0.000000   0.000000   0.000000
   20  O  2  S    0.000000  -0.000192  -0.135185   0.163883   0.108770
   21  O  2  S    0.000000   0.000087   0.275474  -0.340578  -0.231205
   22  O  2  S    0.000000  -0.000828   0.247763  -0.311323  -0.292955
   23  O  2  X    0.000000  -0.000201  -0.091793   0.071658  -0.088352
   24  O  2  Y    0.000000  -0.000202  -0.064523   0.068176  -0.095376
   25  O  2  Z   -0.000055   0.000000   0.000000   0.000000   0.000000
   26  O  2  X    0.000000   0.000777  -0.029743   0.017769  -0.040812
   27  O  2  Y    0.000000   0.000260  -0.021733   0.018524  -0.041652
   28  O  2  Z   -0.000164   0.000000   0.000000   0.000000   0.000000
   29  O  2 XX    0.000000   0.000146   0.005587  -0.001563   0.001425
   30  O  2 YY    0.000000   0.000160  -0.000405  -0.000591   0.002845
   31  O  2 ZZ    0.000000  -0.000306  -0.005182   0.002154  -0.004270
   32  O  2 XY    0.000000   0.000565   0.011759  -0.008271   0.005874
   33  O  2 XZ    0.000108   0.000000   0.000000   0.000000   0.000000
   34  O  2 YZ    0.000069   0.000000   0.000000   0.000000   0.000000
   35  O  3  S    0.000000  -0.000192  -0.135185  -0.163882   0.108771
   36  O  3  S    0.000000   0.000087   0.275474   0.340579  -0.231205
   37  O  3  S    0.000000  -0.000828   0.247768   0.311315  -0.292957
   38  O  3  X    0.000000   0.000201   0.091793   0.071658   0.088352
   39  O  3  Y    0.000000  -0.000202  -0.064523  -0.068175  -0.095376
   40  O  3  Z   -0.000055   0.000000   0.000000   0.000000   0.000000
   41  O  3  X    0.000000  -0.000777   0.029745   0.017766   0.040812
   42  O  3  Y    0.000000   0.000260  -0.021734  -0.018523  -0.041652
   43  O  3  Z   -0.000164   0.000000   0.000000   0.000000   0.000000
   44  O  3 XX    0.000000   0.000146   0.005587   0.001563   0.001425
   45  O  3 YY    0.000000   0.000160  -0.000405   0.000591   0.002845
   46  O  3 ZZ    0.000000  -0.000306  -0.005182  -0.002154  -0.004270
   47  O  3 XY    0.000000  -0.000565  -0.011759  -0.008270  -0.005874
   48  O  3 XZ   -0.000108   0.000000   0.000000   0.000000   0.000000
   49  O  3 YZ    0.000069   0.000000   0.000000   0.000000   0.000000

                     11         12         13         14         15
                   -0.4324    -0.4276    -0.4251    -0.3119    -0.2968
                     A          A          A          A          A   
    1  S  1  S    0.000000   0.000000  -0.008411   0.000000   0.016485
    2  S  1  S   -0.000000   0.000000   0.052537   0.000000  -0.106798
    3  S  1  S    0.000000   0.000000  -0.045497   0.000000   0.131511
    4  S  1  S    0.000000   0.000000  -0.203161   0.000000   0.322277
    5  S  1  X   -0.185316   0.000000  -0.000000   0.000000   0.000000
    6  S  1  Y    0.000000   0.000000  -0.206732   0.000000   0.091790
    7  S  1  Z    0.000000  -0.219341   0.000000  -0.000000   0.000000
    8  S  1  X    0.503856   0.000000   0.000001   0.000000   0.000000
    9  S  1  Y   -0.000001   0.000000   0.555518   0.000000  -0.251604
   10  S  1  Z    0.000000   0.592443   0.000000   0.000001   0.000000
   11  S  1  X    0.024801   0.000000   0.000001   0.000000   0.000001
   12  S  1  Y   -0.000000   0.000000   0.080973   0.000000  -0.020233
   13  S  1  Z    0.000000   0.151462   0.000000   0.000000   0.000000
   14  S  1 XX   -0.000000   0.000000  -0.032962   0.000000  -0.129386
   15  S  1 YY   -0.000000   0.000000   0.054880   0.000000   0.084423
   16  S  1 ZZ    0.000000   0.000000  -0.021918   0.000000   0.044964
   17  S  1 XY    0.050595   0.000000   0.000000   0.000000  -0.000001
   18  S  1 XZ    0.000000  -0.000000   0.000000   0.109644   0.000000
   19  S  1 YZ    0.000000   0.050616   0.000000  -0.000000   0.000000
   20  O  2  S    0.070376   0.000000   0.042144   0.000000  -0.001735
   21  O  2  S   -0.146514   0.000000  -0.089023   0.000000   0.003637
   22  O  2  S   -0.245364   0.000000  -0.136547   0.000000  -0.023083
   23  O  2  X   -0.222161   0.000000  -0.317139   0.000000  -0.047639
   24  O  2  Y   -0.284458   0.000000   0.033469   0.000000   0.437112
   25  O  2  Z    0.000000   0.293108   0.000000   0.469832   0.000000
   26  O  2  X   -0.108019   0.000000  -0.183881   0.000000  -0.044616
   27  O  2  Y   -0.149854   0.000000   0.030807   0.000000   0.315578
   28  O  2  Z    0.000000   0.175925   0.000000   0.334507   0.000000
   29  O  2 XX    0.000358   0.000000   0.017193   0.000000   0.008133
   30  O  2 YY    0.007544   0.000000  -0.011119   0.000000  -0.012289
   31  O  2 ZZ   -0.007903   0.000000  -0.006074   0.000000   0.004156
   32  O  2 XY    0.012159   0.000000   0.005035   0.000000  -0.010914
   33  O  2 XZ    0.000000  -0.016270   0.000000  -0.014529   0.000000
   34  O  2 YZ    0.000000  -0.012052   0.000000  -0.013511   0.000000
   35  O  3  S   -0.070376   0.000000   0.042144   0.000000  -0.001735
   36  O  3  S    0.146513   0.000000  -0.089024   0.000000   0.003636
   37  O  3  S    0.245364   0.000000  -0.136546   0.000000  -0.023082
   38  O  3  X   -0.222162   0.000000   0.317139   0.000000   0.047645
   39  O  3  Y    0.284459   0.000000   0.033469   0.000000   0.437115
   40  O  3  Z    0.000000   0.293108   0.000000  -0.469832   0.000000
   41  O  3  X   -0.108018   0.000000   0.183882   0.000000   0.044620
   42  O  3  Y    0.149854   0.000000   0.030807   0.000000   0.315580
   43  O  3  Z    0.000000   0.175926   0.000000  -0.334507   0.000000
   44  O  3 XX   -0.000358   0.000000   0.017194   0.000000   0.008133
   45  O  3 YY   -0.007544   0.000000  -0.011119   0.000000  -0.012289
   46  O  3 ZZ    0.007903   0.000000  -0.006074   0.000000   0.004156
   47  O  3 XY    0.012159   0.000000  -0.005035   0.000000   0.010914
   48  O  3 XZ    0.000000   0.016270   0.000000  -0.014529   0.000000
   49  O  3 YZ    0.000000  -0.012052   0.000000   0.013511   0.000000

                     16         17         18         19         20
                   -0.2797    -0.1902    -0.0348     0.0038     0.2059
                     A          A          A          A          A   
    1  S  1  S   -0.000000   0.000000  -0.000000   0.030973   0.000000
    2  S  1  S    0.000001   0.000000   0.000002  -0.209823   0.000000
    3  S  1  S   -0.000002   0.000000  -0.000004   0.318399   0.000000
    4  S  1  S    0.000002   0.000000  -0.000011   0.711153   0.000000
    5  S  1  X   -0.014990   0.000000  -0.194599  -0.000003   0.000000
    6  S  1  Y   -0.000001   0.000000   0.000002  -0.163027   0.000000
    7  S  1  Z    0.000000  -0.220628   0.000000   0.000000   0.247602
    8  S  1  X    0.039067   0.000000   0.598422   0.000010   0.000000
    9  S  1  Y    0.000002   0.000000  -0.000007   0.519846   0.000000
   10  S  1  Z    0.000000   0.652334   0.000000   0.000000  -0.977652
   11  S  1  X    0.137622   0.000000   0.784606   0.000005   0.000000
   12  S  1  Y    0.000002   0.000000  -0.000009   0.807643   0.000000
   13  S  1  Z    0.000000   0.298982   0.000000   0.000000   1.308055
   14  S  1 XX    0.000001   0.000000   0.000001  -0.111929   0.000000
   15  S  1 YY   -0.000001   0.000000   0.000001  -0.101007   0.000000
   16  S  1 ZZ   -0.000001   0.000000  -0.000001   0.212937   0.000000
   17  S  1 XY   -0.100241   0.000000  -0.219013  -0.000002   0.000000
   18  S  1 XZ    0.000000  -0.000000   0.000000   0.000000   0.000000
   19  S  1 YZ    0.000000  -0.078629   0.000000   0.000000  -0.106161
   20  O  2  S    0.004131   0.000000   0.044511   0.058274   0.000000
   21  O  2  S   -0.010527   0.000000  -0.088622  -0.111571   0.000000
   22  O  2  S   -0.043286   0.000000  -0.393620  -0.510633   0.000000
   23  O  2  X    0.406080   0.000000   0.050773   0.316674   0.000000
   24  O  2  Y   -0.256865   0.000000   0.307355   0.068800   0.000000
   25  O  2  Z    0.000000  -0.384985   0.000000   0.000000  -0.028061
   26  O  2  X    0.269307   0.000000   0.041627   0.373005   0.000000
   27  O  2  Y   -0.181597   0.000000   0.282270   0.051530   0.000000
   28  O  2  Z    0.000000  -0.320233   0.000000   0.000000  -0.128748
   29  O  2 XX   -0.016173   0.000000  -0.000305   0.001578   0.000000
   30  O  2 YY    0.016219   0.000000   0.004615  -0.006556   0.000000
   31  O  2 ZZ   -0.000046   0.000000  -0.004310   0.004978   0.000000
   32  O  2 XY    0.000490   0.000000   0.004064   0.001308   0.000000
   33  O  2 XZ    0.000000   0.003777   0.000000   0.000000   0.017191
   34  O  2 YZ    0.000000   0.001041   0.000000   0.000000   0.010053
   35  O  3  S   -0.004131   0.000000  -0.044512   0.058274   0.000000
   36  O  3  S    0.010528   0.000000   0.088620  -0.111572   0.000000
   37  O  3  S    0.043282   0.000000   0.393637  -0.510623   0.000000
   38  O  3  X    0.406079   0.000000   0.050779  -0.316675   0.000000
   39  O  3  Y    0.256858   0.000000  -0.307356   0.068792   0.000000
   40  O  3  Z    0.000000  -0.384985   0.000000   0.000000  -0.028061
   41  O  3  X    0.269304   0.000000   0.041638  -0.373000   0.000000
   42  O  3  Y    0.181593   0.000000  -0.282273   0.051523   0.000000
   43  O  3  Z    0.000000  -0.320233   0.000000   0.000000  -0.128748
   44  O  3 XX    0.016173   0.000000   0.000306   0.001578   0.000000
   45  O  3 YY   -0.016219   0.000000  -0.004615  -0.006556   0.000000
   46  O  3 ZZ    0.000046   0.000000   0.004310   0.004978   0.000000
   47  O  3 XY    0.000490   0.000000   0.004064  -0.001308   0.000000
   48  O  3 XZ    0.000000  -0.003777   0.000000   0.000000  -0.017191
   49  O  3 YZ    0.000000   0.001041   0.000000   0.000000   0.010053

                     21         22         23         24         25
                    0.2236     0.2570     0.2611     0.5096     0.5106
                     A          A          A          A          A   
    1  S  1  S   -0.034758  -0.057920  -0.000005   0.000000   0.000000
    2  S  1  S    0.256837   0.424678   0.000036   0.000000   0.000000
    3  S  1  S   -0.988859  -1.642355  -0.000139   0.000000   0.000000
    4  S  1  S    1.182258   1.977455   0.000162   0.000000   0.000000
    5  S  1  X   -0.000001  -0.000024   0.274126   0.000000   0.000000
    6  S  1  Y   -0.243177   0.129158   0.000010   0.000000   0.000000
    7  S  1  Z    0.000000   0.000000   0.000000   0.026963   0.000001
    8  S  1  X    0.000003   0.000093  -1.058091   0.000000   0.000000
    9  S  1  Y    0.951484  -0.475043  -0.000039   0.000000   0.000000
   10  S  1  Z    0.000000   0.000000   0.000000  -0.121127  -0.000003
   11  S  1  X   -0.000003  -0.000116   1.409492   0.000000   0.000000
   12  S  1  Y   -0.932791   0.977405   0.000078   0.000000   0.000000
   13  S  1  Z    0.000000   0.000000   0.000000   0.126190   0.000004
   14  S  1 XX   -0.147978   0.090635   0.000006   0.000000   0.000000
   15  S  1 YY    0.041433  -0.088972  -0.000008   0.000000   0.000000
   16  S  1 ZZ    0.106546  -0.001662   0.000003   0.000000   0.000000
   17  S  1 XY   -0.000000  -0.000012   0.178984   0.000000   0.000000
   18  S  1 XZ    0.000000   0.000000   0.000000  -0.000025   0.908113
   19  S  1 YZ    0.000000   0.000000   0.000000   0.914680   0.000026
   20  O  2  S    0.013839   0.019737   0.006459   0.000000   0.000000
   21  O  2  S   -0.059714   0.012532   0.043084   0.000000   0.000000
   22  O  2  S   -0.034465  -0.575534  -0.383623   0.000000   0.000000
   23  O  2  X    0.082741  -0.197076  -0.201846   0.000000   0.000000
   24  O  2  Y    0.016596  -0.143939  -0.115931   0.000000   0.000000
   25  O  2  Z    0.000000   0.000000   0.000000  -0.285286  -0.310577
   26  O  2  X    0.080741   0.120755  -0.101872   0.000000   0.000000
   27  O  2  Y    0.129326  -0.009464   0.017153   0.000000   0.000000
   28  O  2  Z    0.000000   0.000000   0.000000   0.095583   0.086747
   29  O  2 XX    0.014375  -0.032383  -0.003091   0.000000   0.000000
   30  O  2 YY   -0.016622   0.006795  -0.015222   0.000000   0.000000
   31  O  2 ZZ    0.002247   0.025588   0.018312   0.000000   0.000000
   32  O  2 XY   -0.005446  -0.031256  -0.031303   0.000000   0.000000
   33  O  2 XZ    0.000000   0.000000   0.000000  -0.045320  -0.031471
   34  O  2 YZ    0.000000   0.000000   0.000000  -0.005173  -0.046873
   35  O  3  S    0.013839   0.019739  -0.006455   0.000000   0.000000
   36  O  3  S   -0.059714   0.012532  -0.043089   0.000000   0.000000
   37  O  3  S   -0.034467  -0.575586   0.383538   0.000000   0.000000
   38  O  3  X   -0.082741   0.197106  -0.201817   0.000000   0.000000
   39  O  3  Y    0.016595  -0.143959   0.115907   0.000000   0.000000
   40  O  3  Z    0.000000   0.000000   0.000000  -0.285304   0.310561
   41  O  3  X   -0.080740  -0.120729  -0.101887   0.000000   0.000000
   42  O  3  Y    0.129325  -0.009465  -0.017157   0.000000   0.000000
   43  O  3  Z    0.000000   0.000000   0.000000   0.095588  -0.086741
   44  O  3 XX    0.014375  -0.032383   0.003085   0.000000   0.000000
   45  O  3 YY   -0.016622   0.006792   0.015223   0.000000   0.000000
   46  O  3 ZZ    0.002247   0.025591  -0.018308   0.000000   0.000000
   47  O  3 XY    0.005447   0.031261  -0.031298   0.000000   0.000000
   48  O  3 XZ    0.000000   0.000000   0.000000   0.045322  -0.031468
   49  O  3 YZ    0.000000   0.000000   0.000000  -0.005176   0.046873

                     26         27         28         29         30
                    0.5313     0.6317     0.6794     0.7870     0.8051
                     A          A          A          A          A   
    1  S  1  S   -0.000964   0.012840   0.000000   0.000472   0.000000
    2  S  1  S    0.007883  -0.099198   0.000000   0.001093   0.000000
    3  S  1  S   -0.055080   0.258843   0.000000  -0.069746   0.000000
    4  S  1  S    0.132645   0.918881  -0.000010  -0.009708   0.000000
    5  S  1  X   -0.000000  -0.000001  -0.144794  -0.000000   0.000000
    6  S  1  Y    0.024663  -0.112403   0.000000  -0.017070   0.000000
    7  S  1  Z    0.000000   0.000000   0.000000   0.000000  -0.000000
    8  S  1  X    0.000001   0.000005   0.790915   0.000000   0.000000
    9  S  1  Y   -0.112251   0.565336  -0.000003   0.016066   0.000000
   10  S  1  Z    0.000000   0.000000   0.000000   0.000000   0.000000
   11  S  1  X   -0.000000   0.000004   0.139878  -0.000000   0.000000
   12  S  1  Y    0.185895   0.195018  -0.000003  -0.404405   0.000000
   13  S  1  Z    0.000000   0.000000   0.000000   0.000000  -0.000001
   14  S  1 XX   -0.462737   0.646476  -0.000002   0.608312   0.000000
   15  S  1 YY    0.842711   0.158428  -0.000001  -0.464472   0.000000
   16  S  1 ZZ   -0.379974  -0.804904   0.000003  -0.143840   0.000000
   17  S  1 XY    0.000001   0.000005   0.706411   0.000000   0.000000
   18  S  1 XZ    0.000000   0.000000   0.000000   0.000000   0.439900
   19  S  1 YZ    0.000000   0.000000   0.000000   0.000000  -0.000001
   20  O  2  S    0.009885   0.069793   0.071821   0.006384   0.000000
   21  O  2  S   -0.048785  -0.235496  -0.244506  -0.033603   0.000000
   22  O  2  S   -0.034920  -0.385312  -0.301122   0.061552   0.000000
   23  O  2  X    0.212188  -0.189085  -0.148525   0.442678   0.000000
   24  O  2  Y   -0.316961   0.021263  -0.223599  -0.268398   0.000000
   25  O  2  Z    0.000000   0.000000   0.000000   0.000000   0.576255
   26  O  2  X   -0.047823   0.688450   0.735809  -0.538008   0.000000
   27  O  2  Y    0.118998   0.392638   0.664700   0.527735   0.000000
   28  O  2  Z    0.000000   0.000000   0.000000   0.000000  -0.795414
   29  O  2 XX    0.049217  -0.002129   0.018784  -0.044227   0.000000
   30  O  2 YY   -0.039963   0.023454  -0.007618   0.058851   0.000000
   31  O  2 ZZ   -0.009255  -0.021325  -0.011167  -0.014624   0.000000
   32  O  2 XY   -0.027831   0.008679   0.023905   0.007185   0.000000
   33  O  2 XZ    0.000000   0.000000   0.000000   0.000000  -0.041699
   34  O  2 YZ    0.000000   0.000000   0.000000   0.000000  -0.034923
   35  O  3  S    0.009885   0.069792  -0.071821   0.006384   0.000000
   36  O  3  S   -0.048786  -0.235499   0.244508  -0.033604   0.000000
   37  O  3  S   -0.034918  -0.385301   0.301130   0.061553   0.000000
   38  O  3  X   -0.212189   0.189078  -0.148531  -0.442675   0.000000
   39  O  3  Y   -0.316960   0.021264   0.223603  -0.268397   0.000000
   40  O  3  Z    0.000000   0.000000   0.000000   0.000000  -0.576257
   41  O  3  X    0.047825  -0.688435   0.735821   0.538004   0.000000
   42  O  3  Y    0.118997   0.392631  -0.664708   0.527735   0.000000
   43  O  3  Z    0.000000   0.000000   0.000000   0.000000   0.795416
   44  O  3 XX    0.049217  -0.002129  -0.018784  -0.044227   0.000000
   45  O  3 YY   -0.039963   0.023454   0.007617   0.058851   0.000000
   46  O  3 ZZ   -0.009255  -0.021325   0.011167  -0.014624   0.000000
   47  O  3 XY    0.027831  -0.008679   0.023905  -0.007185   0.000000
   48  O  3 XZ    0.000000   0.000000   0.000000   0.000000  -0.041699
   49  O  3 YZ    0.000000   0.000000   0.000000   0.000000   0.034923

                     31         32         33         34         35
                    0.8399     0.8440     0.8963     0.9987     1.3898
                     A          A          A          A          A   
    1  S  1  S    0.009949   0.000000   0.000000  -0.000000  -0.000000
    2  S  1  S   -0.094521   0.000000  -0.000000   0.000000   0.000001
    3  S  1  S    0.663087   0.000000   0.000002   0.000001  -0.000001
    4  S  1  S   -0.152688   0.000000   0.000000  -0.000008  -0.000024
    5  S  1  X   -0.000000   0.000000  -0.030341  -0.048641   0.062152
    6  S  1  Y    0.001726   0.000000  -0.000000   0.000000   0.000001
    7  S  1  Z    0.000000   0.001469   0.000000   0.000000   0.000000
    8  S  1  X    0.000000   0.000000   0.093908   0.037441  -0.493173
    9  S  1  Y    0.170330   0.000000   0.000001  -0.000002  -0.000008
   10  S  1  Z    0.000000  -0.024642   0.000000   0.000000   0.000000
   11  S  1  X    0.000000   0.000000  -0.364196   0.515060  -0.710931
   12  S  1  Y   -0.300535   0.000000  -0.000001  -0.000003  -0.000009
   13  S  1  Z    0.000000  -0.576262   0.000000   0.000000   0.000000
   14  S  1 XX   -0.246156   0.000000  -0.000000  -0.000002  -0.000002
   15  S  1 YY   -0.244936   0.000000  -0.000001  -0.000000  -0.000001
   16  S  1 ZZ    0.491092   0.000000   0.000001   0.000002   0.000003
   17  S  1 XY    0.000000   0.000000   0.371254   0.801000  -0.237050
   18  S  1 XZ    0.000000  -0.000001   0.000000   0.000000   0.000000
   19  S  1 YZ    0.000000  -0.415592   0.000000   0.000000   0.000000
   20  O  2  S   -0.010668   0.000000   0.010968   0.022198   0.080838
   21  O  2  S    0.086557   0.000000  -0.035079   0.003306  -1.215425
   22  O  2  S    0.015332   0.000000   0.018543  -0.391882   1.760523
   23  O  2  X   -0.335851   0.000000  -0.241455   0.590155   0.066255
   24  O  2  Y   -0.503379   0.000000   0.569227   0.186987   0.064322
   25  O  2  Z    0.000000  -0.583143   0.000000   0.000000   0.000000
   26  O  2  X    0.374967   0.000000   0.540546  -0.508434  -0.402979
   27  O  2  Y    0.655197   0.000000  -0.674369   0.023991  -0.413487
   28  O  2  Z    0.000000   0.897903   0.000000   0.000000   0.000000
   29  O  2 XX    0.002480   0.000000   0.049854  -0.011069  -0.083392
   30  O  2 YY    0.000804   0.000000  -0.033858  -0.012920  -0.018110
   31  O  2 ZZ   -0.003284   0.000000  -0.015996   0.023989   0.101502
   32  O  2 XY    0.049544   0.000000  -0.004421   0.023671  -0.106084
   33  O  2 XZ    0.000000   0.042932   0.000000   0.000000   0.000000
   34  O  2 YZ    0.000000   0.027107   0.000000   0.000000   0.000000
   35  O  3  S   -0.010668   0.000000  -0.010969  -0.022197  -0.080836
   36  O  3  S    0.086564   0.000000   0.035089  -0.003322   1.215382
   37  O  3  S    0.015326   0.000000  -0.018552   0.391905  -1.760457
   38  O  3  X    0.335849   0.000000  -0.241456   0.590158   0.066254
   39  O  3  Y   -0.503376   0.000000  -0.569228  -0.186987  -0.064321
   40  O  3  Z    0.000000  -0.583141   0.000000   0.000000   0.000000
   41  O  3  X   -0.374965   0.000000   0.540547  -0.508433  -0.402962
   42  O  3  Y    0.655193   0.000000   0.674371  -0.023993   0.413478
   43  O  3  Z    0.000000   0.897901   0.000000   0.000000   0.000000
   44  O  3 XX    0.002480   0.000000  -0.049854   0.011069   0.083390
   45  O  3 YY    0.000804   0.000000   0.033858   0.012920   0.018110
   46  O  3 ZZ   -0.003284   0.000000   0.015996  -0.023989  -0.101500
   47  O  3 XY   -0.049544   0.000000  -0.004421   0.023671  -0.106079
   48  O  3 XZ    0.000000  -0.042932   0.000000   0.000000   0.000000
   49  O  3 YZ    0.000000   0.027106   0.000000   0.000000   0.000000

                     36         37         38         39         40
                    1.5007     2.0804     2.0813     2.0890     2.0945
                     A          A          A          A          A   
    1  S  1  S   -0.000634   0.000000   0.000000  -0.000000   0.000258
    2  S  1  S    0.012503   0.000000   0.000000   0.000000  -0.000932
    3  S  1  S    0.253394   0.000000   0.000000  -0.000000   0.004972
    4  S  1  S   -2.029188   0.000000   0.000000   0.000002  -0.098976
    5  S  1  X   -0.000001   0.000000   0.000000  -0.024037  -0.000001
    6  S  1  Y    0.072317   0.000000   0.000000  -0.000000   0.000956
    7  S  1  Z    0.000000  -0.000002  -0.014341   0.000000   0.000000
    8  S  1  X    0.000008   0.000000   0.000000   0.103346   0.000002
    9  S  1  Y   -0.470222   0.000000   0.000000   0.000000  -0.018154
   10  S  1  Z    0.000000   0.000006   0.050813   0.000000   0.000000
   11  S  1  X    0.000003   0.000000   0.000000   0.027015   0.000001
   12  S  1  Y   -0.869438   0.000000   0.000000   0.000001  -0.054940
   13  S  1  Z    0.000000   0.000002   0.017019   0.000000   0.000000
   14  S  1 XX   -0.232908   0.000000   0.000000  -0.000001   0.034342
   15  S  1 YY   -0.125717   0.000000   0.000000  -0.000001   0.047432
   16  S  1 ZZ    0.358625   0.000000   0.000000   0.000001  -0.081774
   17  S  1 XY   -0.000000   0.000000   0.000000  -0.101148  -0.000002
   18  S  1 XZ    0.000000   0.030035  -0.000004   0.000000   0.000000
   19  S  1 YZ    0.000000  -0.000001  -0.008130   0.000000   0.000000
   20  O  2  S    0.068850   0.000000   0.000000  -0.003948   0.005711
   21  O  2  S   -1.265270   0.000000   0.000000   0.058116  -0.076209
   22  O  2  S    2.208274   0.000000   0.000000  -0.076318   0.110267
   23  O  2  X    0.002844   0.000000   0.000000  -0.005354   0.030844
   24  O  2  Y   -0.018405   0.000000   0.000000  -0.034924   0.003117
   25  O  2  Z    0.000000   0.018876   0.020451   0.000000   0.000000
   26  O  2  X   -0.568658   0.000000   0.000000   0.007889  -0.056334
   27  O  2  Y   -0.261317   0.000000   0.000000   0.054354  -0.004640
   28  O  2  Z    0.000000  -0.029449  -0.033933   0.000000   0.000000
   29  O  2 XX   -0.070144   0.000000   0.000000   0.154965  -0.246028
   30  O  2 YY    0.016676   0.000000   0.000000  -0.657946  -0.372933
   31  O  2 ZZ    0.053468   0.000000   0.000000   0.502982   0.618961
   32  O  2 XY   -0.143040   0.000000   0.000000   0.171048   0.333230
   33  O  2 XZ    0.000000   0.554126  -0.284097   0.000000   0.000000
   34  O  2 YZ    0.000000  -0.439655   0.648133   0.000000   0.000000
   35  O  3  S    0.068853   0.000000   0.000000   0.003948   0.005712
   36  O  3  S   -1.265307   0.000000   0.000000  -0.058114  -0.076210
   37  O  3  S    2.208322   0.000000   0.000000   0.076314   0.110268
   38  O  3  X   -0.002853   0.000000   0.000000  -0.005353  -0.030843
   39  O  3  Y   -0.018404   0.000000   0.000000   0.034923   0.003119
   40  O  3  Z    0.000000  -0.018871   0.020455   0.000000   0.000000
   41  O  3  X    0.568679   0.000000   0.000000   0.007887   0.056332
   42  O  3  Y   -0.261324   0.000000   0.000000  -0.054354  -0.004643
   43  O  3  Z    0.000000   0.029440  -0.033940   0.000000   0.000000
   44  O  3 XX   -0.070149   0.000000   0.000000  -0.154957  -0.246045
   45  O  3 YY    0.016676   0.000000   0.000000   0.657958  -0.372908
   46  O  3 ZZ    0.053473   0.000000   0.000000  -0.503001   0.618952
   47  O  3 XY    0.143044   0.000000   0.000000   0.171058  -0.333232
   48  O  3 XZ    0.000000   0.554199   0.283955   0.000000   0.000000
   49  O  3 YZ    0.000000   0.439821   0.648021   0.000000   0.000000

                     41         42         43         44         45
                    2.1044     2.2105     2.2209     2.3581     2.6330
                     A          A          A          A          A   
    1  S  1  S   -0.000000   0.000000   0.000000  -0.001181  -0.034004
    2  S  1  S    0.000000   0.000000   0.000000   0.009649   0.276263
    3  S  1  S   -0.000001   0.000000   0.000000  -0.060161  -0.759028
    4  S  1  S    0.000004   0.000000   0.000000   0.108712  -0.819897
    5  S  1  X   -0.025508   0.000000   0.000000   0.000000   0.000000
    6  S  1  Y   -0.000000   0.000000   0.000000  -0.047853   0.147157
    7  S  1  Z    0.000000  -0.000001  -0.058877   0.000000   0.000000
    8  S  1  X    0.067134   0.000000   0.000000  -0.000000  -0.000001
    9  S  1  Y    0.000000   0.000000   0.000000   0.165679  -0.806458
   10  S  1  Z    0.000000   0.000002   0.207228   0.000000   0.000000
   11  S  1  X    0.053941   0.000000   0.000000   0.000000  -0.000002
   12  S  1  Y    0.000002   0.000000   0.000000   0.133949  -0.165075
   13  S  1  Z    0.000000   0.000001   0.084510   0.000000   0.000000
   14  S  1 XX   -0.000000   0.000000   0.000000  -0.400586  -0.348546
   15  S  1 YY   -0.000000   0.000000   0.000000   0.416918  -0.057505
   16  S  1 ZZ    0.000000   0.000000   0.000000  -0.016333   0.406051
   17  S  1 XY   -0.066868   0.000000   0.000000   0.000000  -0.000001
   18  S  1 XZ    0.000000  -0.377469   0.000004   0.000000   0.000000
   19  S  1 YZ    0.000000   0.000003   0.309201   0.000000   0.000000
   20  O  2  S    0.003136   0.000000   0.000000  -0.001144   0.006963
   21  O  2  S   -0.043575   0.000000   0.000000   0.037713  -0.518040
   22  O  2  S    0.037279   0.000000   0.000000  -0.098122   1.117038
   23  O  2  X    0.072036   0.000000   0.000000  -0.010964   0.022171
   24  O  2  Y   -0.046956   0.000000   0.000000   0.026803   0.027327
   25  O  2  Z    0.000000  -0.044281   0.052735   0.000000   0.000000
   26  O  2  X   -0.128512   0.000000   0.000000   0.090350  -0.531739
   27  O  2  Y    0.071364   0.000000   0.000000  -0.126455  -0.395444
   28  O  2  Z    0.000000   0.116068  -0.146614   0.000000   0.000000
   29  O  2 XX    0.618817   0.000000   0.000000  -0.608762   0.359278
   30  O  2 YY   -0.268336   0.000000   0.000000   0.630460   0.031176
   31  O  2 ZZ   -0.350481   0.000000   0.000000  -0.021698  -0.390455
   32  O  2 XY   -0.345968   0.000000   0.000000   0.200673   0.656357
   33  O  2 XZ    0.000000  -0.454960   0.664653   0.000000   0.000000
   34  O  2 YZ    0.000000  -0.565645   0.297669   0.000000   0.000000
   35  O  3  S   -0.003136   0.000000   0.000000  -0.001144   0.006963
   36  O  3  S    0.043579   0.000000   0.000000   0.037713  -0.518040
   37  O  3  S   -0.037286   0.000000   0.000000  -0.098123   1.117036
   38  O  3  X    0.072037   0.000000   0.000000   0.010964  -0.022172
   39  O  3  Y    0.046956   0.000000   0.000000   0.026803   0.027327
   40  O  3  Z    0.000000   0.044282   0.052734   0.000000   0.000000
   41  O  3  X   -0.128514   0.000000   0.000000  -0.090350   0.531740
   42  O  3  Y   -0.071364   0.000000   0.000000  -0.126455  -0.395442
   43  O  3  Z    0.000000  -0.116071  -0.146612   0.000000   0.000000
   44  O  3 XX   -0.618812   0.000000   0.000000  -0.608762   0.359278
   45  O  3 YY    0.268343   0.000000   0.000000   0.630460   0.031175
   46  O  3 ZZ    0.350468   0.000000   0.000000  -0.021698  -0.390454
   47  O  3 XY   -0.345963   0.000000   0.000000  -0.200673  -0.656354
   48  O  3 XZ    0.000000  -0.454972  -0.664644   0.000000   0.000000
   49  O  3 YZ    0.000000   0.565650   0.297659   0.000000   0.000000

                     46
                    2.7819
                     A   
    1  S  1  S   -0.000000
    2  S  1  S    0.000000
    3  S  1  S    0.000001
    4  S  1  S   -0.000005
    5  S  1  X   -0.209961
    6  S  1  Y    0.000000
    7  S  1  Z    0.000000
    8  S  1  X    1.137006
    9  S  1  Y   -0.000002
   10  S  1  Z    0.000000
   11  S  1  X    0.155706
   12  S  1  Y   -0.000002
   13  S  1  Z    0.000000
   14  S  1 XX   -0.000001
   15  S  1 YY   -0.000000
   16  S  1 ZZ    0.000001
   17  S  1 XY    0.730844
   18  S  1 XZ    0.000000
   19  S  1 YZ    0.000000
   20  O  2  S    0.001072
   21  O  2  S    0.476016
   22  O  2  S   -1.080567
   23  O  2  X    0.004770
   24  O  2  Y    0.019738
   25  O  2  Z    0.000000
   26  O  2  X    0.573676
   27  O  2  Y    0.432526
   28  O  2  Z    0.000000
   29  O  2 XX   -0.367101
   30  O  2 YY   -0.038973
   31  O  2 ZZ    0.406074
   32  O  2 XY   -0.700436
   33  O  2 XZ    0.000000
   34  O  2 YZ    0.000000
   35  O  3  S   -0.001072
   36  O  3  S   -0.476020
   37  O  3  S    1.080576
   38  O  3  X    0.004770
   39  O  3  Y   -0.019738
   40  O  3  Z    0.000000
   41  O  3  X    0.573679
   42  O  3  Y   -0.432528
   43  O  3  Z    0.000000
   44  O  3 XX    0.367102
   45  O  3 YY    0.038973
   46  O  3 ZZ   -0.406075
   47  O  3 XY   -0.700437
   48  O  3 XZ    0.000000
   49  O  3 YZ    0.000000
 ...... END OF RHF CALCULATION ......
 STEP CPU TIME =     2.57 TOTAL CPU TIME =          2.7 (      0.0 MIN)
 TOTAL WALL CLOCK TIME=          2.8 SECONDS, CPU UTILIZATION IS    98.56%

     ---------------------------------------------------------------------
     PROPERTIES FOR THE PBE      DFT FUNCTIONAL (RHF  TYPE) DENSITY MATRIX
     ---------------------------------------------------------------------

          -----------------
          ENERGY COMPONENTS
          -----------------

         WAVEFUNCTION NORMALIZATION =       1.0000000000

                ONE ELECTRON ENERGY =    -956.6889781645
                TWO ELECTRON ENERGY =     307.2837198326
           NUCLEAR REPULSION ENERGY =     101.1701949669
                                      ------------------
                       TOTAL ENERGY =    -548.2350633651

 ELECTRON-ELECTRON POTENTIAL ENERGY =     307.2837198326
  NUCLEUS-ELECTRON POTENTIAL ENERGY =   -1503.8797567231
   NUCLEUS-NUCLEUS POTENTIAL ENERGY =     101.1701949669
                                      ------------------
             TOTAL POTENTIAL ENERGY =   -1095.4258419237
               TOTAL KINETIC ENERGY =     547.1907785586
                 VIRIAL RATIO (V/T) =       2.0019084474

          ---------------------------------------
          MULLIKEN AND LOWDIN POPULATION ANALYSES
          ---------------------------------------

     ATOMIC MULLIKEN POPULATION IN EACH MOLECULAR ORBITAL

                      1          2          3          4          5

                  2.000000   2.000000   2.000000   2.000000   2.000000

    1             1.999952   0.001445   0.000613   2.000689   2.000284
    2             0.000024   0.982707   1.016264  -0.000344  -0.000142
    3             0.000024   1.015848   0.983123  -0.000344  -0.000142

                      6          7          8          9         10

                  2.000000   2.000000   2.000000   2.000000   2.000000

    1             2.000021   2.000176   0.683419   0.338894   1.141681
    2            -0.000010  -0.000088   0.658286   0.830559   0.429158
    3            -0.000010  -0.000088   0.658295   0.830547   0.429161

                     11         12         13         14         15

                  2.000000   2.000000   2.000000   2.000000   2.000000

    1             0.530700   1.105459   0.903215   0.070954   0.376140
    2             0.734650   0.447269   0.548391   0.964523   0.811922
    3             0.734650   0.447271   0.548393   0.964522   0.811938

                     16

                  2.000000

    1             0.144832
    2             0.927595
    3             0.927573

               ----- POPULATIONS IN EACH AO -----
                             MULLIKEN      LOWDIN
              1  S  1  S      1.99982     1.99924
              2  S  1  S      1.99215     1.88504
              3  S  1  S      1.32753     0.67065
              4  S  1  S      0.53684     0.46809
              5  S  1  X      1.99378     1.95766
              6  S  1  Y      1.99488     1.96553
              7  S  1  Z      1.99389     1.96102
              8  S  1  X      0.82201     0.69109
              9  S  1  Y      1.01970     0.92531
             10  S  1  Z      0.88667     0.79074
             11  S  1  X      0.07880     0.21189
             12  S  1  Y      0.09665     0.25902
             13  S  1  Z      0.21027     0.31757
             14  S  1 XX      0.02931     0.30741
             15  S  1 YY      0.10984     0.30034
             16  S  1 ZZ      0.12074     0.27890
             17  S  1 XY      0.07095     0.13891
             18  S  1 XZ      0.01466     0.08412
             19  S  1 YZ      0.00000     0.01417
             20  O  2  S      1.99557     1.97274
             21  O  2  S      0.95478     0.69765
             22  O  2  S      0.94696     0.53588
             23  O  2  X      0.95602     0.91743
             24  O  2  Y      0.99251     0.96179
             25  O  2  Z      0.84486     0.81108
             26  O  2  X      0.50057     0.60017
             27  O  2  Y      0.58051     0.66000
             28  O  2  Z      0.56155     0.59767
             29  O  2 XX      0.00193     0.20601
             30  O  2 YY      0.00444     0.20223
             31  O  2 ZZ      0.00570     0.20513
             32  O  2 XY      0.00327     0.01143
             33  O  2 XZ      0.00210     0.00465
             34  O  2 YZ      0.00000     0.00279
             35  O  3  S      1.99557     1.97274
             36  O  3  S      0.95478     0.69765
             37  O  3  S      0.94696     0.53588
             38  O  3  X      0.95602     0.91743
             39  O  3  Y      0.99251     0.96179
             40  O  3  Z      0.84486     0.81108
             41  O  3  X      0.50057     0.60017
             42  O  3  Y      0.58051     0.66000
             43  O  3  Z      0.56155     0.59767
             44  O  3 XX      0.00193     0.20601
             45  O  3 YY      0.00444     0.20223
             46  O  3 ZZ      0.00570     0.20513
             47  O  3 XY      0.00327     0.01143
             48  O  3 XZ      0.00210     0.00465
             49  O  3 YZ      0.00000     0.00279

          ----- MULLIKEN ATOMIC OVERLAP POPULATIONS -----
          (OFF-DIAGONAL ELEMENTS NEED TO BE MULTIPLIED BY 2)

             1           2           3

    1   14.6098173
    2    0.3443253   8.0684181
    3    0.3443322  -0.0619794   8.0684082

          TOTAL MULLIKEN AND LOWDIN ATOMIC POPULATIONS
       ATOM         MULL.POP.    CHARGE          LOW.POP.     CHARGE
    1 S            15.298475    0.701525        15.226710    0.773290
    2 O             8.350764   -0.350764         8.386646   -0.386646
    3 O             8.350761   -0.350761         8.386645   -0.386645

          MULLIKEN SPHERICAL HARMONIC POPULATIONS
       ATOM           S       P       D      F      G      H      I    TOTAL
    1 S             5.86    9.10    0.35   0.00   0.00   0.00   0.00   15.30
    2 O             3.90    4.44    0.02   0.00   0.00   0.00   0.00    8.35
    3 O             3.90    4.44    0.02   0.00   0.00   0.00   0.00    8.35

          -------------------------------
          BOND ORDER AND VALENCE ANALYSIS     BOND ORDER THRESHOLD=0.050
          -------------------------------

                   BOND                       BOND                       BOND
  ATOM PAIR DIST  ORDER      ATOM PAIR DIST  ORDER      ATOM PAIR DIST  ORDER
    1   2  1.550  1.780        1   3  1.550  1.780        2   3  2.459  0.329

                       TOTAL       BONDED        FREE
      ATOM            VALENCE     VALENCE     VALENCE
    1 S                 3.560       3.560      -0.000
    2 O                 2.109       2.109      -0.000
    3 O                 2.109       2.109       0.000

          ---------------------
          ELECTROSTATIC MOMENTS
          ---------------------

 POINT   1           X           Y           Z (BOHR)    CHARGE
                -0.000000    0.000000    0.000000       -0.00 (A.U.)
         DX          DY          DZ         /D/  (DEBYE)
    -0.000004   -2.514858    0.000000    2.514858
 ...... END OF PROPERTY EVALUATION ......
 STEP CPU TIME =     0.00 TOTAL CPU TIME =          2.7 (      0.0 MIN)
 TOTAL WALL CLOCK TIME=          2.8 SECONDS, CPU UTILIZATION IS    98.56%
                580000  WORDS OF DYNAMIC MEMORY USED
 EXECUTION OF GAMESS TERMINATED NORMALLY Sun Sep 29 10:49:48 2019
 DDI: 263640 bytes (0.3 MB / 0 MWords) used by master data server.

 ----------------------------------------
 CPU timing information for all processes
 ========================================
 0: 2.664 + 0.79 = 2.743
 ----------------------------------------
 ddikick.x: exited gracefully.
----- accounting info -----
Files used on the master node crcfe02.crc.nd.edu were:
-rw-r--r-- 1 cdrisko campus     208 Sep 29 10:49 /afs/crc.nd.edu/user/c/cdrisko/SO2.F05
-rw-r--r-- 1 cdrisko campus   37566 Sep 29 10:49 /afs/crc.nd.edu/user/c/cdrisko/SO2.F07
-rw-r--r-- 1 cdrisko campus 4140368 Sep 29 10:49 /afs/crc.nd.edu/user/c/cdrisko/SO2.F08
-rw-r--r-- 1 cdrisko campus 1766880 Sep 29 10:49 /afs/crc.nd.edu/user/c/cdrisko/SO2.F10
Sun Sep 29 10:49:51 EDT 2019
0.450u 0.244s 0:06.44 10.7%	0+0k 0+24io 0pf+0w
