<?xml version="1.0" encoding="ISO-8859-1"?>
<modeling>
 <generator>
  <i name="program" type="string">vasp </i>
  <i name="version" type="string">5.4.1  </i>
  <i name="subversion" type="string">05Feb16 (build Feb 08 2018 09:21:51) complex                          parallel </i>
  <i name="platform" type="string">LinuxIFC </i>
  <i name="date" type="string">2019 11 21 </i>
  <i name="time" type="string">15:53:36 </i>
 </generator>
 <incar>
  <i type="string" name="PREC">normal</i>
  <i name="ENCUT">    400.00000000</i>
  <i type="int" name="ISMEAR">     1</i>
  <i name="SIGMA">      0.10000000</i>
  <i type="logical" name="LWAVE"> F  </i>
  <i type="logical" name="LCHARG"> F  </i>
  <v type="int" name="KPOINT_BSE">    -1     0     0     0</v>
 </incar>
 <kpoints>
  <generation param="Monkhorst-Pack">
   <v type="int" name="divisions">       9        9        9 </v>
   <v name="usershift">      0.00000000       0.00000000       0.00000000 </v>
   <v name="genvec1">      0.11111111       0.00000000       0.00000000 </v>
   <v name="genvec2">      0.00000000       0.11111111       0.00000000 </v>
   <v name="genvec3">      0.00000000       0.00000000       0.11111111 </v>
   <v name="shift">      0.00000000       0.00000000       0.00000000 </v>
  </generation>
  <varray name="kpointlist" >
   <v>       0.00000000       0.00000000       0.00000000 </v>
   <v>       0.11111111       0.00000000       0.00000000 </v>
   <v>       0.22222222       0.00000000       0.00000000 </v>
   <v>       0.33333333       0.00000000       0.00000000 </v>
   <v>       0.44444444       0.00000000       0.00000000 </v>
   <v>       0.11111111       0.11111111       0.00000000 </v>
   <v>       0.22222222       0.11111111       0.00000000 </v>
   <v>       0.33333333       0.11111111       0.00000000 </v>
   <v>       0.44444444       0.11111111       0.00000000 </v>
   <v>       0.22222222       0.22222222       0.00000000 </v>
   <v>       0.33333333       0.22222222       0.00000000 </v>
   <v>       0.44444444       0.22222222       0.00000000 </v>
   <v>       0.33333333       0.33333333       0.00000000 </v>
   <v>       0.44444444       0.33333333       0.00000000 </v>
   <v>       0.44444444       0.44444444       0.00000000 </v>
   <v>       0.11111111       0.11111111       0.11111111 </v>
   <v>       0.22222222       0.11111111       0.11111111 </v>
   <v>       0.33333333       0.11111111       0.11111111 </v>
   <v>       0.44444444       0.11111111       0.11111111 </v>
   <v>       0.22222222       0.22222222       0.11111111 </v>
   <v>       0.33333333       0.22222222       0.11111111 </v>
   <v>       0.44444444       0.22222222       0.11111111 </v>
   <v>       0.33333333       0.33333333       0.11111111 </v>
   <v>       0.44444444       0.33333333       0.11111111 </v>
   <v>       0.44444444       0.44444444       0.11111111 </v>
   <v>       0.22222222       0.22222222       0.22222222 </v>
   <v>       0.33333333       0.22222222       0.22222222 </v>
   <v>       0.44444444       0.22222222       0.22222222 </v>
   <v>       0.33333333       0.33333333       0.22222222 </v>
   <v>       0.44444444       0.33333333       0.22222222 </v>
   <v>       0.44444444       0.44444444       0.22222222 </v>
   <v>       0.33333333       0.33333333       0.33333333 </v>
   <v>       0.44444444       0.33333333       0.33333333 </v>
   <v>       0.44444444       0.44444444       0.33333333 </v>
   <v>       0.44444444       0.44444444       0.44444444 </v>
  </varray>
  <varray name="weights" >
   <v>       0.00137174 </v>
   <v>       0.00823045 </v>
   <v>       0.00823045 </v>
   <v>       0.00823045 </v>
   <v>       0.00823045 </v>
   <v>       0.01646091 </v>
   <v>       0.03292181 </v>
   <v>       0.03292181 </v>
   <v>       0.03292181 </v>
   <v>       0.01646091 </v>
   <v>       0.03292181 </v>
   <v>       0.03292181 </v>
   <v>       0.01646091 </v>
   <v>       0.03292181 </v>
   <v>       0.01646091 </v>
   <v>       0.01097394 </v>
   <v>       0.03292181 </v>
   <v>       0.03292181 </v>
   <v>       0.03292181 </v>
   <v>       0.03292181 </v>
   <v>       0.06584362 </v>
   <v>       0.06584362 </v>
   <v>       0.03292181 </v>
   <v>       0.06584362 </v>
   <v>       0.03292181 </v>
   <v>       0.01097394 </v>
   <v>       0.03292181 </v>
   <v>       0.03292181 </v>
   <v>       0.03292181 </v>
   <v>       0.06584362 </v>
   <v>       0.03292181 </v>
   <v>       0.01097394 </v>
   <v>       0.03292181 </v>
   <v>       0.03292181 </v>
   <v>       0.01097394 </v>
  </varray>
 </kpoints>
 <parameters>
  <separator name="general" >
   <i type="string" name="SYSTEM">unknown system</i>
   <i type="logical" name="LCOMPAT"> F  </i>
  </separator>
  <separator name="electronic" >
   <i type="string" name="PREC">normal</i>
   <i name="ENMAX">    400.00000000</i>
   <i name="ENAUG">    586.98000000</i>
   <i name="EDIFF">      0.00010000</i>
   <i type="int" name="IALGO">    38</i>
   <i type="int" name="IWAVPR">    10</i>
   <i type="int" name="NBANDS">    48</i>
   <i name="NELECT">     44.00000000</i>
   <i type="int" name="TURBO">     0</i>
   <i type="int" name="IRESTART">     0</i>
   <i type="int" name="NREBOOT">     0</i>
   <i type="int" name="NMIN">     0</i>
   <i name="EREF">      0.00000000</i>
   <separator name="electronic smearing" >
    <i type="int" name="ISMEAR">     1</i>
    <i name="SIGMA">      0.10000000</i>
    <i name="KSPACING">      0.50000000</i>
    <i type="logical" name="KGAMMA"> T  </i>
   </separator>
   <separator name="electronic projectors" >
    <i type="logical" name="LREAL"> F  </i>
    <v name="ROPT">      0.00000000</v>
    <i type="int" name="LMAXPAW">  -100</i>
    <i type="int" name="LMAXMIX">     2</i>
    <i type="logical" name="NLSPLINE"> F  </i>
   </separator>
   <separator name="electronic startup" >
    <i type="int" name="ISTART">     0</i>
    <i type="int" name="ICHARG">     2</i>
    <i type="int" name="INIWAV">     1</i>
   </separator>
   <separator name="electronic spin" >
    <i type="int" name="ISPIN">     1</i>
    <i type="logical" name="LNONCOLLINEAR"> F  </i>
    <v name="MAGMOM">      1.00000000      1.00000000      1.00000000      1.00000000</v>
    <i name="NUPDOWN">     -1.00000000</i>
    <i type="logical" name="LSORBIT"> F  </i>
    <v name="SAXIS">      0.00000000      0.00000000      1.00000000</v>
    <i type="logical" name="LSPIRAL"> F  </i>
    <v name="QSPIRAL">      0.00000000      0.00000000      0.00000000</v>
    <i type="logical" name="LZEROZ"> F  </i>
   </separator>
   <separator name="electronic exchange-correlation" >
    <i type="logical" name="LASPH"> F  </i>
    <i type="logical" name="LMETAGGA"> F  </i>
   </separator>
   <separator name="electronic convergence" >
    <i type="int" name="NELM">    60</i>
    <i type="int" name="NELMDL">    -5</i>
    <i type="int" name="NELMIN">     2</i>
    <i name="ENINI">    400.00000000</i>
    <separator name="electronic convergence detail" >
     <i type="logical" name="LDIAG"> T  </i>
     <i type="logical" name="LSUBROT"> F  </i>
     <i name="WEIMIN">      0.00000000</i>
     <i name="EBREAK">      0.00000052</i>
     <i name="DEPER">      0.30000000</i>
     <i type="int" name="NRMM">     4</i>
     <i name="TIME">      0.40000000</i>
    </separator>
   </separator>
   <separator name="electronic mixer" >
    <i name="AMIX">      0.40000000</i>
    <i name="BMIX">      1.00000000</i>
    <i name="AMIN">      0.10000000</i>
    <i name="AMIX_MAG">      1.60000000</i>
    <i name="BMIX_MAG">      1.00000000</i>
    <separator name="electronic mixer details" >
     <i type="int" name="IMIX">     4</i>
     <i type="logical" name="MIXFIRST"> F  </i>
     <i type="int" name="MAXMIX">   -45</i>
     <i name="WC">    100.00000000</i>
     <i type="int" name="INIMIX">     1</i>
     <i type="int" name="MIXPRE">     1</i>
     <i type="int" name="MREMOVE">     5</i>
    </separator>
   </separator>
   <separator name="electronic dipolcorrection" >
    <i type="logical" name="LDIPOL"> F  </i>
    <i type="logical" name="LMONO"> F  </i>
    <i type="int" name="IDIPOL">     0</i>
    <i name="EPSILON">      1.00000000</i>
    <v name="DIPOL">   -100.00000000   -100.00000000   -100.00000000</v>
    <i name="EFIELD">      0.00000000</i>
   </separator>
  </separator>
  <separator name="grids" >
   <i type="int" name="NGX">    18</i>
   <i type="int" name="NGY">    18</i>
   <i type="int" name="NGZ">    18</i>
   <i type="int" name="NGXF">    36</i>
   <i type="int" name="NGYF">    36</i>
   <i type="int" name="NGZF">    36</i>
   <i type="logical" name="ADDGRID"> F  </i>
  </separator>
  <separator name="ionic" >
   <i type="int" name="NSW">     0</i>
   <i type="int" name="IBRION">    -1</i>
   <i type="int" name="ISIF">     2</i>
   <i name="PSTRESS">      0.00000000</i>
   <i name="EDIFFG">      0.00100000</i>
   <i type="int" name="NFREE">     0</i>
   <i name="POTIM">      0.50000000</i>
   <i name="SMASS">     -3.00000000</i>
   <i name="SCALEE">      1.00000000</i>
  </separator>
  <separator name="ionic md" >
   <i name="TEBEG">      0.00010000</i>
   <i name="TEEND">      0.00010000</i>
   <i type="int" name="NBLOCK">     1</i>
   <i type="int" name="KBLOCK">     1</i>
   <i type="int" name="NPACO">   256</i>
   <i name="APACO">     16.00000000</i>
  </separator>
  <separator name="symmetry" >
   <i type="int" name="ISYM">     2</i>
   <i name="SYMPREC">      0.00001000</i>
  </separator>
  <separator name="dos" >
   <i type="logical" name="LORBIT"> F  </i>
   <v name="RWIGS">     -1.00000000</v>
   <i type="int" name="NEDOS">   301</i>
   <i name="EMIN">     10.00000000</i>
   <i name="EMAX">    -10.00000000</i>
   <i name="EFERMI">      0.00000000</i>
  </separator>
  <separator name="writing" >
   <i type="int" name="NWRITE">     2</i>
   <i type="logical" name="LWAVE"> F  </i>
   <i type="logical" name="LCHARG"> F  </i>
   <i type="logical" name="LPARD"> F  </i>
   <i type="logical" name="LVTOT"> F  </i>
   <i type="logical" name="LVHAR"> F  </i>
   <i type="logical" name="LELF"> F  </i>
   <i type="logical" name="LOPTICS"> F  </i>
   <v name="STM">      0.00000000      0.00000000      0.00000000      0.00000000      0.00000000      0.00000000      0.00000000</v>
  </separator>
  <separator name="performance" >
   <i type="int" name="NPAR">    24</i>
   <i type="int" name="NSIM">     4</i>
   <i type="int" name="NBLK">    -1</i>
   <i type="logical" name="LPLANE"> T  </i>
   <i type="logical" name="LSCALAPACK"> F  </i>
   <i type="logical" name="LSCAAWARE"> F  </i>
   <i type="logical" name="LSCALU"> F  </i>
   <i type="logical" name="LASYNC"> F  </i>
   <i type="logical" name="LORBITALREAL"> F  </i>
  </separator>
  <separator name="miscellaneous" >
   <i type="int" name="IDIOT">     3</i>
   <i type="logical" name="LMUSIC"> F  </i>
   <v name="POMASS">     63.54600000</v>
   <v name="DARWINR">      0.00000000</v>
   <v name="DARWINV">      1.00000000</v>
   <i type="logical" name="LCORR"> T  </i>
  </separator>
  <i type="logical" name="GGA_COMPAT"> T  </i>
  <i type="logical" name="LBERRY"> F  </i>
  <i type="int" name="ICORELEVEL">     0</i>
  <i type="logical" name="LDAU"> F  </i>
  <i type="int" name="I_CONSTRAINED_M">     0</i>
  <separator name="electronic exchange-correlation" >
   <i type="string" name="GGA">--</i>
   <i type="int" name="VOSKOWN">     0</i>
   <i type="logical" name="LHFCALC"> F  </i>
   <i type="string" name="PRECFOCK"></i>
   <i type="logical" name="LSYMGRAD"> F  </i>
   <i type="logical" name="LHFONE"> F  </i>
   <i type="logical" name="LRHFCALC"> F  </i>
   <i type="logical" name="LTHOMAS"> F  </i>
   <i type="logical" name="LMODELHF"> F  </i>
   <i name="ENCUT4O">     -1.00000000</i>
   <i type="int" name="EXXOEP">     0</i>
   <i type="int" name="FOURORBIT">     0</i>
   <i name="AEXX">      0.00000000</i>
   <i name="HFALPHA">      0.00000000</i>
   <i name="MCALPHA">      0.00000000</i>
   <i name="ALDAX">      1.00000000</i>
   <i name="AGGAX">      1.00000000</i>
   <i name="ALDAC">      1.00000000</i>
   <i name="AGGAC">      1.00000000</i>
   <i type="int" name="NKREDX">     1</i>
   <i type="int" name="NKREDY">     1</i>
   <i type="int" name="NKREDZ">     1</i>
   <i type="logical" name="SHIFTRED"> F  </i>
   <i type="logical" name="ODDONLY"> F  </i>
   <i type="logical" name="EVENONLY"> F  </i>
   <i type="int" name="LMAXFOCK">     0</i>
   <i type="int" name="NMAXFOCKAE">     0</i>
   <i type="logical" name="LFOCKAEDFT"> F  </i>
   <i name="HFSCREEN">      0.00000000</i>
   <i name="HFSCREENC">      0.00000000</i>
   <i type="int" name="NBANDSGWLOW">     0</i>
  </separator>
  <separator name="vdW DFT" >
   <i type="logical" name="LUSE_VDW"> F  </i>
   <i name="Zab_VDW">     -0.84910000</i>
   <i name="PARAM1">      0.12340000</i>
   <i name="PARAM2">      1.00000000</i>
   <i name="PARAM3">      0.00000000</i>
  </separator>
  <separator name="model GW" >
   <i type="int" name="MODEL_GW">     0</i>
   <i name="MODEL_EPS0">      7.05688215</i>
   <i name="MODEL_ALPHA">      1.00000000</i>
  </separator>
  <separator name="linear response parameters" >
   <i type="logical" name="LEPSILON"> F  </i>
   <i type="logical" name="LRPA"> F  </i>
   <i type="logical" name="LNABLA"> F  </i>
   <i type="logical" name="LVEL"> F  </i>
   <i type="int" name="KINTER">     0</i>
   <i name="CSHIFT">      0.10000000</i>
   <i name="OMEGAMAX">     -1.00000000</i>
   <i name="DEG_THRESHOLD">      0.00200000</i>
  </separator>
  <separator name="orbital magnetization" >
   <i type="logical" name="NUCIND"> F  </i>
   <v name="MAGPOS">      0.00000000      0.00000000      0.00000000</v>
   <i type="logical" name="LNICSALL"> T  </i>
   <i type="logical" name="ORBITALMAG"> F  </i>
   <i type="logical" name="LMAGBLOCH"> F  </i>
   <i type="logical" name="LCHIMAG"> F  </i>
   <i type="logical" name="LGAUGE"> T  </i>
   <i type="int" name="MAGATOM">     0</i>
   <v name="MAGDIPOL">      0.00000000      0.00000000      0.00000000</v>
   <v name="AVECCONST">      0.00000000      0.00000000      0.00000000</v>
  </separator>
  <separator name="response functions" >
   <i type="logical" name="LADDER"> F  </i>
   <i type="logical" name="LFXC"> F  </i>
   <i type="logical" name="LHARTREE"> T  </i>
   <i type="int" name="IBSE">     0</i>
   <v type="int" name="KPOINT">    -1     0     0     0</v>
   <i type="logical" name="LTCTE"> F  </i>
   <i type="logical" name="LTETE"> F  </i>
   <i type="logical" name="LTRIPLET"> F  </i>
   <i type="logical" name="LFXCEPS"> F  </i>
   <i type="logical" name="LFXHEG"> F  </i>
   <i type="int" name="NATURALO">     0</i>
   <i type="logical" name="L2ORDER"> F  </i>
   <i type="logical" name="LUSEW"> F  </i>
   <i name="ENCUTGW">     -2.00000000</i>
   <i name="ENCUTGWSOFT">     -2.00000000</i>
   <i name="ENCUTLF">     -1.00000000</i>
   <i type="int" name="LMAXMP2">    -1</i>
   <i name="SCISSOR">      0.00000000</i>
   <i type="int" name="NOMEGA">     0</i>
   <i type="int" name="NOMEGAR">     0</i>
   <i type="int" name="NBANDSGW">    -1</i>
   <i type="int" name="NBANDSO">    -1</i>
   <i type="int" name="NBANDSV">    -1</i>
   <i type="int" name="NELM">     1</i>
   <i type="int" name="NELMHF">     1</i>
   <i type="int" name="DIM">     3</i>
   <i type="int" name="ANTIRES">     0</i>
   <i name="OMEGAMAX">    -30.00000000</i>
   <i name="OMEGAMIN">    -30.00000000</i>
   <i name="OMEGATL">   -200.00000000</i>
   <i type="int" name="OMEGAGRID">     0</i>
   <i name="CSHIFT">     -0.10000000</i>
   <i type="logical" name="SELFENERGY"> F  </i>
   <i type="logical" name="LSPECTRAL"> F  </i>
   <i type="logical" name="LSPECTRALGW"> F  </i>
   <i type="logical" name="LSINGLES"> F  </i>
   <i type="logical" name="LFERMIGW"> F  </i>
   <i type="logical" name="ODDONLYGW"> F  </i>
   <i type="logical" name="EVENONLYGW"> F  </i>
   <i type="int" name="NKREDLFX">     1</i>
   <i type="int" name="NKREDLFY">     1</i>
   <i type="int" name="NKREDLFZ">     1</i>
   <i type="int" name="MAXMEM">  1800</i>
   <i type="int" name="TELESCOPE">     0</i>
   <i type="int" name="TAUPAR">     1</i>
   <i type="int" name="OMEGAPAR">    -1</i>
   <i name="LAMBDA">      1.00000000</i>
  </separator>
  <separator name="External order field" >
   <i name="OFIELD_KAPPA">      0.00000000</i>
   <v name="OFIELD_K">      0.00000000      0.00000000      0.00000000</v>
   <i name="OFIELD_Q6_NEAR">      0.00000000</i>
   <i name="OFIELD_Q6_FAR">      0.00000000</i>
   <i name="OFIELD_A">      0.00000000</i>
  </separator>
 </parameters>
 <atominfo>
  <atoms>       4 </atoms>
  <types>       1 </types>
  <array name="atoms" >
   <dimension dim="1">ion</dimension>
   <field type="string">element</field>
   <field type="int">atomtype</field>
   <set>
    <rc><c>Cu</c><c>   1</c></rc>
    <rc><c>Cu</c><c>   1</c></rc>
    <rc><c>Cu</c><c>   1</c></rc>
    <rc><c>Cu</c><c>   1</c></rc>
   </set>
  </array>
  <array name="atomtypes" >
   <dimension dim="1">type</dimension>
   <field type="int">atomspertype</field>
   <field type="string">element</field>
   <field>mass</field>
   <field>valence</field>
   <field type="string">pseudopotential</field>
   <set>
    <rc><c>   4</c><c>Cu</c><c>     63.54600000</c><c>     11.00000000</c><c>  PAW_PBE Cu 22Jun2005                  </c></rc>
   </set>
  </array>
 </atominfo>
 <structure name="initialpos" >
  <crystal>
   <varray name="basis" >
    <v>       3.61000000       0.00000000       0.00000000 </v>
    <v>       0.00000000       3.61000000       0.00000000 </v>
    <v>       0.00000000       0.00000000       3.61000000 </v>
   </varray>
   <i name="volume">     47.04588100 </i>
   <varray name="rec_basis" >
    <v>       0.27700831       0.00000000       0.00000000 </v>
    <v>       0.00000000       0.27700831       0.00000000 </v>
    <v>       0.00000000       0.00000000       0.27700831 </v>
   </varray>
  </crystal>
  <varray name="positions" >
   <v>       0.00000000       0.00000000       0.00000000 </v>
   <v>       0.00000000       0.50000000       0.50000000 </v>
   <v>       0.50000000       0.00000000       0.50000000 </v>
   <v>       0.50000000       0.50000000       0.00000000 </v>
  </varray>
 </structure>
 <calculation>
  <scstep>
   <time name="dav">    0.59    0.59</time>
   <time name="total">    0.61    0.62</time>
   <energy>
    <i name="alphaZ">    248.71993771 </i>
    <i name="ewald">  -4425.78708566 </i>
    <i name="hartreedc">  -1444.32473403 </i>
    <i name="XCdc">    183.18686199 </i>
    <i name="pawpsdc">   4912.82663951 </i>
    <i name="pawaedc">  -5336.19386850 </i>
    <i name="eentropy">      0.00286900 </i>
    <i name="bandstr">    453.88182986 </i>
    <i name="atom">   5563.83056080 </i>
    <i name="e_fr_energy">    156.14301068 </i>
    <i name="e_wo_entrp">    156.14014168 </i>
    <i name="e_0_energy">    156.14205435 </i>
   </energy>
  </scstep>
  <scstep>
   <time name="dav">    0.44    0.44</time>
   <time name="total">    0.44    0.44</time>
   <energy>
    <i name="e_fr_energy">    -13.45719718 </i>
    <i name="e_wo_entrp">    -13.45763600 </i>
    <i name="e_0_energy">    -13.45734346 </i>
   </energy>
  </scstep>
  <scstep>
   <time name="dav">    0.74    0.74</time>
   <time name="total">    0.75    0.76</time>
   <energy>
    <i name="e_fr_energy">    -18.48508957 </i>
    <i name="e_wo_entrp">    -18.48513919 </i>
    <i name="e_0_energy">    -18.48510611 </i>
   </energy>
  </scstep>
  <scstep>
   <time name="dav">    0.45    0.45</time>
   <time name="total">    0.45    0.46</time>
   <energy>
    <i name="e_fr_energy">    -18.52195774 </i>
    <i name="e_wo_entrp">    -18.52203796 </i>
    <i name="e_0_energy">    -18.52198448 </i>
   </energy>
  </scstep>
  <scstep>
   <time name="dav">    0.77    0.77</time>
   <time name="total">    0.78    0.79</time>
   <energy>
    <i name="e_fr_energy">    -18.52246963 </i>
    <i name="e_wo_entrp">    -18.52255022 </i>
    <i name="e_0_energy">    -18.52249649 </i>
   </energy>
  </scstep>
  <scstep>
   <time name="dav">    0.58    0.58</time>
   <time name="total">    0.59    0.60</time>
   <energy>
    <i name="e_fr_energy">    -16.39328851 </i>
    <i name="e_wo_entrp">    -16.39356209 </i>
    <i name="e_0_energy">    -16.39337970 </i>
   </energy>
  </scstep>
  <scstep>
   <time name="dav">    0.56    0.56</time>
   <time name="total">    0.57    0.57</time>
   <energy>
    <i name="e_fr_energy">    -14.96535033 </i>
    <i name="e_wo_entrp">    -14.96396328 </i>
    <i name="e_0_energy">    -14.96488798 </i>
   </energy>
  </scstep>
  <scstep>
   <time name="dav">    0.56    0.56</time>
   <time name="total">    0.57    0.58</time>
   <energy>
    <i name="e_fr_energy">    -14.92438818 </i>
    <i name="e_wo_entrp">    -14.92298058 </i>
    <i name="e_0_energy">    -14.92391898 </i>
   </energy>
  </scstep>
  <scstep>
   <time name="dav">    0.67    0.67</time>
   <time name="total">    0.68    0.69</time>
   <energy>
    <i name="e_fr_energy">    -14.91764429 </i>
    <i name="e_wo_entrp">    -14.91607000 </i>
    <i name="e_0_energy">    -14.91711953 </i>
   </energy>
  </scstep>
  <scstep>
   <time name="dav">    0.47    0.47</time>
   <time name="total">    0.47    0.47</time>
   <energy>
    <i name="alphaZ">    248.71993771 </i>
    <i name="ewald">  -4425.78708566 </i>
    <i name="hartreedc">  -1350.69865841 </i>
    <i name="XCdc">    178.73804555 </i>
    <i name="pawpsdc">   5274.17175092 </i>
    <i name="pawaedc">  -5705.82589401 </i>
    <i name="eentropy">     -0.00156821 </i>
    <i name="bandstr">    201.93523726 </i>
    <i name="atom">   5563.83056080 </i>
    <i name="e_fr_energy">    -14.91767404 </i>
    <i name="e_wo_entrp">    -14.91610584 </i>
    <i name="e_0_energy">    -14.91715131 </i>
   </energy>
  </scstep>
  <structure>
   <crystal>
    <varray name="basis" >
     <v>       3.61000000       0.00000000       0.00000000 </v>
     <v>       0.00000000       3.61000000       0.00000000 </v>
     <v>       0.00000000       0.00000000       3.61000000 </v>
    </varray>
    <i name="volume">     47.04588100 </i>
    <varray name="rec_basis" >
     <v>       0.27700831       0.00000000       0.00000000 </v>
     <v>       0.00000000       0.27700831       0.00000000 </v>
     <v>       0.00000000       0.00000000       0.27700831 </v>
    </varray>
   </crystal>
   <varray name="positions" >
    <v>       0.00000000       0.00000000       0.00000000 </v>
    <v>       0.00000000       0.50000000       0.50000000 </v>
    <v>       0.50000000       0.00000000       0.50000000 </v>
    <v>       0.50000000       0.50000000       0.00000000 </v>
   </varray>
  </structure>
  <varray name="forces" >
   <v>      -0.00000000      -0.00000000      -0.00000000 </v>
   <v>       0.00000000       0.00000000      -0.00000000 </v>
   <v>       0.00000000       0.00000000       0.00000000 </v>
   <v>       0.00000000      -0.00000000      -0.00000000 </v>
  </varray>
  <varray name="stress" >
   <v>      18.34984646      -0.00000000      -0.00000000 </v>
   <v>       0.00000000      18.34984646      -0.00000000 </v>
   <v>      -0.00000000       0.00000000      18.34984646 </v>
  </varray>
  <energy>
   <i name="e_fr_energy">    -14.91767404 </i>
   <i name="e_wo_entrp">    -14.91715131 </i>
   <i name="e_0_energy">     -0.00156821 </i>
  </energy>
  <time name="totalsc">    6.18    6.26</time>
  <eigenvalues>
   <array>
    <dimension dim="1">band</dimension>
    <dimension dim="2">kpoint</dimension>
    <dimension dim="3">spin</dimension>
    <field>eigene</field>
    <field>occ</field>
    <set>
     <set comment="spin 1">
      <set comment="kpoint 1">
       <r>   -1.7477    1.0000 </r>
       <r>    2.7363    1.0000 </r>
       <r>    2.7363    1.0000 </r>
       <r>    2.7363    1.0000 </r>
       <r>    3.1947    1.0000 </r>
       <r>    3.1947    1.0000 </r>
       <r>    3.1947    1.0000 </r>
       <r>    4.5982    1.0000 </r>
       <r>    4.5982    1.0000 </r>
       <r>    4.5982    1.0000 </r>
       <r>    5.4304    1.0000 </r>
       <r>    5.4304    1.0000 </r>
       <r>    5.9826    1.0000 </r>
       <r>    5.9826    1.0000 </r>
       <r>    5.9826    1.0000 </r>
       <r>    6.1386    1.0000 </r>
       <r>    6.1386    1.0000 </r>
       <r>    6.1386    1.0000 </r>
       <r>    6.1386    1.0000 </r>
       <r>    6.1386    1.0000 </r>
       <r>    6.1386    1.0000 </r>
       <r>    9.1305   -0.0000 </r>
       <r>    9.1305   -0.0000 </r>
       <r>    9.1305   -0.0000 </r>
       <r>   14.7792    0.0000 </r>
       <r>   14.7792    0.0000 </r>
       <r>   14.7792    0.0000 </r>
       <r>   20.7483    0.0000 </r>
       <r>   20.7483    0.0000 </r>
       <r>   20.7483    0.0000 </r>
       <r>   20.7483    0.0000 </r>
       <r>   20.7483    0.0000 </r>
       <r>   20.7483    0.0000 </r>
       <r>   25.2530    0.0000 </r>
       <r>   25.2530    0.0000 </r>
       <r>   25.2530    0.0000 </r>
       <r>   27.9618    0.0000 </r>
       <r>   27.9618    0.0000 </r>
       <r>   27.9618    0.0000 </r>
       <r>   30.2664    0.0000 </r>
       <r>   32.9384    0.0000 </r>
       <r>   32.9384    0.0000 </r>
       <r>   32.9384    0.0000 </r>
       <r>   35.4333    0.0000 </r>
       <r>   35.4333    0.0000 </r>
       <r>   35.4333    0.0000 </r>
       <r>   39.2056    0.0000 </r>
       <r>   44.0064    0.0000 </r>
      </set>
      <set comment="kpoint 2">
       <r>   -1.5972    1.0000 </r>
       <r>    2.7327    1.0000 </r>
       <r>    2.8062    1.0000 </r>
       <r>    2.8062    1.0000 </r>
       <r>    3.2348    1.0000 </r>
       <r>    3.2376    1.0000 </r>
       <r>    3.2376    1.0000 </r>
       <r>    4.5533    1.0000 </r>
       <r>    4.6331    1.0000 </r>
       <r>    4.6331    1.0000 </r>
       <r>    5.3895    1.0000 </r>
       <r>    5.4461    1.0000 </r>
       <r>    5.8849    1.0000 </r>
       <r>    5.8849    1.0000 </r>
       <r>    5.9303    1.0000 </r>
       <r>    5.9303    1.0000 </r>
       <r>    5.9655    1.0000 </r>
       <r>    6.0772    1.0000 </r>
       <r>    6.0772    1.0000 </r>
       <r>    6.1389    1.0000 </r>
       <r>    6.1389    1.0000 </r>
       <r>    8.2800   -0.0000 </r>
       <r>    9.5190   -0.0000 </r>
       <r>    9.5190   -0.0000 </r>
       <r>   14.8338    0.0000 </r>
       <r>   14.8338    0.0000 </r>
       <r>   15.9265    0.0000 </r>
       <r>   19.8281    0.0000 </r>
       <r>   19.8281    0.0000 </r>
       <r>   20.1422    0.0000 </r>
       <r>   20.1422    0.0000 </r>
       <r>   20.9695    0.0000 </r>
       <r>   20.9695    0.0000 </r>
       <r>   25.3167    0.0000 </r>
       <r>   26.3578    0.0000 </r>
       <r>   26.3578    0.0000 </r>
       <r>   28.0199    0.0000 </r>
       <r>   28.8973    0.0000 </r>
       <r>   28.8973    0.0000 </r>
       <r>   29.7708    0.0000 </r>
       <r>   31.5467    0.0000 </r>
       <r>   31.5467    0.0000 </r>
       <r>   32.3241    0.0000 </r>
       <r>   36.2489    0.0000 </r>
       <r>   36.8934    0.0000 </r>
       <r>   36.8934    0.0000 </r>
       <r>   39.4106    0.0000 </r>
       <r>   41.8224    0.0000 </r>
      </set>
      <set comment="kpoint 3">
       <r>   -1.1519    1.0000 </r>
       <r>    2.6657    1.0000 </r>
       <r>    2.9978    1.0000 </r>
       <r>    2.9978    1.0000 </r>
       <r>    3.3506    1.0000 </r>
       <r>    3.3665    1.0000 </r>
       <r>    3.3665    1.0000 </r>
       <r>    4.4246    1.0000 </r>
       <r>    4.7381    1.0000 </r>
       <r>    4.7381    1.0000 </r>
       <r>    5.2762    1.0000 </r>
       <r>    5.3544    1.0000 </r>
       <r>    5.3544    1.0000 </r>
       <r>    5.4928    1.0000 </r>
       <r>    5.7824    1.0000 </r>
       <r>    5.7824    1.0000 </r>
       <r>    5.9073    1.0000 </r>
       <r>    5.9073    1.0000 </r>
       <r>    5.9164    1.0000 </r>
       <r>    6.1392    1.0000 </r>
       <r>    6.1392    1.0000 </r>
       <r>    6.7610    1.0000 </r>
       <r>   10.4515    0.0000 </r>
       <r>   10.4515    0.0000 </r>
       <r>   15.0065    0.0000 </r>
       <r>   15.0065    0.0000 </r>
       <r>   18.1225    0.0000 </r>
       <r>   18.1225    0.0000 </r>
       <r>   18.3799    0.0000 </r>
       <r>   18.9075    0.0000 </r>
       <r>   18.9075    0.0000 </r>
       <r>   21.6161    0.0000 </r>
       <r>   21.6161    0.0000 </r>
       <r>   25.5109    0.0000 </r>
       <r>   28.2116    0.0000 </r>
       <r>   28.6190    0.0000 </r>
       <r>   28.6190    0.0000 </r>
       <r>   28.7910    0.0000 </r>
       <r>   29.4774    0.0000 </r>
       <r>   29.4774    0.0000 </r>
       <r>   31.0293    0.0000 </r>
       <r>   31.1048    0.0000 </r>
       <r>   31.1048    0.0000 </r>
       <r>   36.7106    0.0000 </r>
       <r>   38.1815    0.0000 </r>
       <r>   39.1505    0.0000 </r>
       <r>   39.1505    0.0000 </r>
       <r>   42.7040    0.0000 </r>
      </set>
      <set comment="kpoint 4">
       <r>   -0.4330    1.0000 </r>
       <r>    2.3304    1.0000 </r>
       <r>    3.2511    1.0000 </r>
       <r>    3.2511    1.0000 </r>
       <r>    3.5303    1.0000 </r>
       <r>    3.5844    1.0000 </r>
       <r>    3.5844    1.0000 </r>
       <r>    4.2312    1.0000 </r>
       <r>    4.7966    1.0000 </r>
       <r>    4.7966    1.0000 </r>
       <r>    4.9086    1.0000 </r>
       <r>    4.9086    1.0000 </r>
       <r>    5.1204    1.0000 </r>
       <r>    5.5484    1.0000 </r>
       <r>    5.5653    1.0000 </r>
       <r>    5.5785    1.0000 </r>
       <r>    5.5785    1.0000 </r>
       <r>    5.6653    1.0000 </r>
       <r>    5.6653    1.0000 </r>
       <r>    5.8417    1.0000 </r>
       <r>    6.1395    1.0000 </r>
       <r>    6.1395    1.0000 </r>
       <r>   11.6738    0.0000 </r>
       <r>   11.6738    0.0000 </r>
       <r>   15.3221    0.0000 </r>
       <r>   15.3221    0.0000 </r>
       <r>   16.3474    0.0000 </r>
       <r>   16.3474    0.0000 </r>
       <r>   17.6784    0.0000 </r>
       <r>   17.6784    0.0000 </r>
       <r>   21.3251    0.0000 </r>
       <r>   22.6441    0.0000 </r>
       <r>   22.6441    0.0000 </r>
       <r>   25.8449    0.0000 </r>
       <r>   27.4681    0.0000 </r>
       <r>   27.4681    0.0000 </r>
       <r>   27.8154    0.0000 </r>
       <r>   28.5917    0.0000 </r>
       <r>   29.5081    0.0000 </r>
       <r>   31.3258    0.0000 </r>
       <r>   31.3258    0.0000 </r>
       <r>   33.2527    0.0000 </r>
       <r>   33.8764    0.0000 </r>
       <r>   33.8764    0.0000 </r>
       <r>   40.7224    0.0000 </r>
       <r>   41.1219    0.0000 </r>
       <r>   41.1219    0.0000 </r>
       <r>   41.4321    0.0000 </r>
      </set>
      <set comment="kpoint 5">
       <r>    0.5067    1.0000 </r>
       <r>    1.5314    1.0000 </r>
       <r>    3.4491    1.0000 </r>
       <r>    3.4491    1.0000 </r>
       <r>    3.7544    1.0000 </r>
       <r>    3.8954    1.0000 </r>
       <r>    3.8954    1.0000 </r>
       <r>    3.9977    1.0000 </r>
       <r>    4.3014    1.0000 </r>
       <r>    4.3014    1.0000 </r>
       <r>    4.9866    1.0000 </r>
       <r>    5.0242    1.0000 </r>
       <r>    5.1334    1.0000 </r>
       <r>    5.1334    1.0000 </r>
       <r>    5.3948    1.0000 </r>
       <r>    5.3948    1.0000 </r>
       <r>    5.4124    1.0000 </r>
       <r>    5.4124    1.0000 </r>
       <r>    5.6548    1.0000 </r>
       <r>    5.7508    1.0000 </r>
       <r>    6.1398    1.0000 </r>
       <r>    6.1398    1.0000 </r>
       <r>   13.0878    0.0000 </r>
       <r>   13.0878    0.0000 </r>
       <r>   14.6545    0.0000 </r>
       <r>   14.6545    0.0000 </r>
       <r>   15.7911    0.0000 </r>
       <r>   15.7911    0.0000 </r>
       <r>   16.7081    0.0000 </r>
       <r>   16.7081    0.0000 </r>
       <r>   23.9982    0.0000 </r>
       <r>   23.9982    0.0000 </r>
       <r>   24.4661    0.0000 </r>
       <r>   25.6233    0.0000 </r>
       <r>   25.6233    0.0000 </r>
       <r>   26.3321    0.0000 </r>
       <r>   26.9869    0.0000 </r>
       <r>   27.4151    0.0000 </r>
       <r>   29.2815    0.0000 </r>
       <r>   30.6281    0.0000 </r>
       <r>   34.3343    0.0000 </r>
       <r>   34.3343    0.0000 </r>
       <r>   36.5835    0.0000 </r>
       <r>   36.5835    0.0000 </r>
       <r>   37.6080    0.0000 </r>
       <r>   37.6080    0.0000 </r>
       <r>   42.4090    0.0000 </r>
       <r>   42.4090    0.0000 </r>
      </set>
      <set comment="kpoint 6">
       <r>   -1.4479    1.0000 </r>
       <r>    2.8057    1.0000 </r>
       <r>    2.8057    1.0000 </r>
       <r>    2.8730    1.0000 </r>
       <r>    3.2761    1.0000 </r>
       <r>    3.2761    1.0000 </r>
       <r>    3.2774    1.0000 </r>
       <r>    4.5285    1.0000 </r>
       <r>    4.6498    1.0000 </r>
       <r>    4.6620    1.0000 </r>
       <r>    5.3789    1.0000 </r>
       <r>    5.4386    1.0000 </r>
       <r>    5.7149    1.0000 </r>
       <r>    5.7716    1.0000 </r>
       <r>    5.7716    1.0000 </r>
       <r>    5.8818    1.0000 </r>
       <r>    5.9440    1.0000 </r>
       <r>    5.9440    1.0000 </r>
       <r>    6.0769    1.0000 </r>
       <r>    6.0769    1.0000 </r>
       <r>    6.0989    1.0000 </r>
       <r>    8.6611   -0.0000 </r>
       <r>    8.6611   -0.0000 </r>
       <r>    9.8638   -0.0000 </r>
       <r>   14.8883    0.0000 </r>
       <r>   16.0095    0.0000 </r>
       <r>   16.0095    0.0000 </r>
       <r>   18.1420    0.0000 </r>
       <r>   20.0281    0.0000 </r>
       <r>   20.0281    0.0000 </r>
       <r>   20.3453    0.0000 </r>
       <r>   20.3453    0.0000 </r>
       <r>   21.1794    0.0000 </r>
       <r>   26.2486    0.0000 </r>
       <r>   26.4444    0.0000 </r>
       <r>   26.4444    0.0000 </r>
       <r>   28.7136    0.0000 </r>
       <r>   28.9673    0.0000 </r>
       <r>   28.9673    0.0000 </r>
       <r>   29.9144    0.0000 </r>
       <r>   30.1715    0.0000 </r>
       <r>   31.9821    0.0000 </r>
       <r>   33.3643    0.0000 </r>
       <r>   35.5849    0.0000 </r>
       <r>   36.3526    0.0000 </r>
       <r>   38.5469    0.0000 </r>
       <r>   40.6396    0.0000 </r>
       <r>   40.6787    0.0000 </r>
      </set>
      <set comment="kpoint 7">
       <r>   -1.0062    1.0000 </r>
       <r>    2.7481    1.0000 </r>
       <r>    3.0063    1.0000 </r>
       <r>    3.0568    1.0000 </r>
       <r>    3.3879    1.0000 </r>
       <r>    3.3972    1.0000 </r>
       <r>    3.4005    1.0000 </r>
       <r>    4.4157    1.0000 </r>
       <r>    4.7446    1.0000 </r>
       <r>    4.7452    1.0000 </r>
       <r>    5.2396    1.0000 </r>
       <r>    5.2701    1.0000 </r>
       <r>    5.2866    1.0000 </r>
       <r>    5.4878    1.0000 </r>
       <r>    5.5081    1.0000 </r>
       <r>    5.7443    1.0000 </r>
       <r>    5.7924    1.0000 </r>
       <r>    5.8987    1.0000 </r>
       <r>    5.9066    1.0000 </r>
       <r>    6.0765    1.0000 </r>
       <r>    6.0781    1.0000 </r>
       <r>    7.2098    1.0000 </r>
       <r>    9.5129   -0.0000 </r>
       <r>   10.7330    0.0000 </r>
       <r>   15.0465    0.0000 </r>
       <r>   16.2686    0.0000 </r>
       <r>   16.3306    0.0000 </r>
       <r>   18.3091    0.0000 </r>
       <r>   18.4831    0.0000 </r>
       <r>   19.0829    0.0000 </r>
       <r>   20.6081    0.0000 </r>
       <r>   20.7865    0.0000 </r>
       <r>   20.9411    0.0000 </r>
       <r>   26.7098    0.0000 </r>
       <r>   27.1082    0.0000 </r>
       <r>   27.5565    0.0000 </r>
       <r>   27.9734    0.0000 </r>
       <r>   28.7239    0.0000 </r>
       <r>   29.1939    0.0000 </r>
       <r>   31.1790    0.0000 </r>
       <r>   31.2371    0.0000 </r>
       <r>   32.6068    0.0000 </r>
       <r>   32.6190    0.0000 </r>
       <r>   36.2782    0.0000 </r>
       <r>   36.8456    0.0000 </r>
       <r>   38.4078    0.0000 </r>
       <r>   40.7035    0.0000 </r>
       <r>   42.5125    0.0000 </r>
      </set>
      <set comment="kpoint 8">
       <r>   -0.2939    1.0000 </r>
       <r>    2.4278    1.0000 </r>
       <r>    3.2750    1.0000 </r>
       <r>    3.3050    1.0000 </r>
       <r>    3.5612    1.0000 </r>
       <r>    3.5927    1.0000 </r>
       <r>    3.6108    1.0000 </r>
       <r>    4.2331    1.0000 </r>
       <r>    4.6972    1.0000 </r>
       <r>    4.7621    1.0000 </r>
       <r>    4.8486    1.0000 </r>
       <r>    4.9112    1.0000 </r>
       <r>    5.1029    1.0000 </r>
       <r>    5.1798    1.0000 </r>
       <r>    5.5539    1.0000 </r>
       <r>    5.5781    1.0000 </r>
       <r>    5.5897    1.0000 </r>
       <r>    5.6644    1.0000 </r>
       <r>    5.7701    1.0000 </r>
       <r>    6.0737    1.0000 </r>
       <r>    6.0757    1.0000 </r>
       <r>    6.2047    1.0000 </r>
       <r>   10.5725    0.0000 </r>
       <r>   11.9121    0.0000 </r>
       <r>   14.5439    0.0000 </r>
       <r>   15.4924    0.0000 </r>
       <r>   16.5341    0.0000 </r>
       <r>   16.7219    0.0000 </r>
       <r>   17.8370    0.0000 </r>
       <r>   19.6184    0.0000 </r>
       <r>   21.3669    0.0000 </r>
       <r>   21.5155    0.0000 </r>
       <r>   21.9596    0.0000 </r>
       <r>   25.5279    0.0000 </r>
       <r>   26.1535    0.0000 </r>
       <r>   27.1708    0.0000 </r>
       <r>   29.6261    0.0000 </r>
       <r>   29.9456    0.0000 </r>
       <r>   30.0297    0.0000 </r>
       <r>   30.7030    0.0000 </r>
       <r>   31.4396    0.0000 </r>
       <r>   33.6133    0.0000 </r>
       <r>   33.8870    0.0000 </r>
       <r>   35.4644    0.0000 </r>
       <r>   39.2322    0.0000 </r>
       <r>   39.7119    0.0000 </r>
       <r>   40.4020    0.0000 </r>
       <r>   41.2433    0.0000 </r>
      </set>
      <set comment="kpoint 9">
       <r>    0.6354    1.0000 </r>
       <r>    1.6453    1.0000 </r>
       <r>    3.4936    1.0000 </r>
       <r>    3.5065    1.0000 </r>
       <r>    3.7768    1.0000 </r>
       <r>    3.8591    1.0000 </r>
       <r>    3.9096    1.0000 </r>
       <r>    4.0102    1.0000 </r>
       <r>    4.2273    1.0000 </r>
       <r>    4.2967    1.0000 </r>
       <r>    4.8397    1.0000 </r>
       <r>    4.8441    1.0000 </r>
       <r>    5.1341    1.0000 </r>
       <r>    5.2490    1.0000 </r>
       <r>    5.3943    1.0000 </r>
       <r>    5.4033    1.0000 </r>
       <r>    5.4181    1.0000 </r>
       <r>    5.5003    1.0000 </r>
       <r>    5.6952    1.0000 </r>
       <r>    5.8468    1.0000 </r>
       <r>    6.0734    1.0000 </r>
       <r>    6.0745    1.0000 </r>
       <r>   11.7671    0.0000 </r>
       <r>   13.0919    0.0000 </r>
       <r>   13.2992    0.0000 </r>
       <r>   14.8495    0.0000 </r>
       <r>   15.9819    0.0000 </r>
       <r>   16.7233    0.0000 </r>
       <r>   17.5081    0.0000 </r>
       <r>   18.4468    0.0000 </r>
       <r>   22.6821    0.0000 </r>
       <r>   23.0299    0.0000 </r>
       <r>   24.0387    0.0000 </r>
       <r>   24.4989    0.0000 </r>
       <r>   24.7279    0.0000 </r>
       <r>   27.8521    0.0000 </r>
       <r>   27.9513    0.0000 </r>
       <r>   28.7780    0.0000 </r>
       <r>   30.3500    0.0000 </r>
       <r>   31.5383    0.0000 </r>
       <r>   32.9387    0.0000 </r>
       <r>   34.4533    0.0000 </r>
       <r>   35.4823    0.0000 </r>
       <r>   37.7303    0.0000 </r>
       <r>   38.1980    0.0000 </r>
       <r>   38.2232    0.0000 </r>
       <r>   41.4517    0.0000 </r>
       <r>   42.0182    0.0000 </r>
      </set>
      <set comment="kpoint 10">
       <r>   -0.5758    1.0000 </r>
       <r>    2.9769    1.0000 </r>
       <r>    2.9769    1.0000 </r>
       <r>    3.2179    1.0000 </r>
       <r>    3.4903    1.0000 </r>
       <r>    3.4994    1.0000 </r>
       <r>    3.4994    1.0000 </r>
       <r>    4.3571    1.0000 </r>
       <r>    4.7660    1.0000 </r>
       <r>    4.7988    1.0000 </r>
       <r>    4.9614    1.0000 </r>
       <r>    4.9614    1.0000 </r>
       <r>    5.0153    1.0000 </r>
       <r>    5.2555    1.0000 </r>
       <r>    5.5381    1.0000 </r>
       <r>    5.6336    1.0000 </r>
       <r>    5.7666    1.0000 </r>
       <r>    5.7666    1.0000 </r>
       <r>    5.9046    1.0000 </r>
       <r>    5.9046    1.0000 </r>
       <r>    5.9820    1.0000 </r>
       <r>    7.9945   -0.0000 </r>
       <r>    7.9945   -0.0000 </r>
       <r>   11.4902    0.0000 </r>
       <r>   14.2576    0.0000 </r>
       <r>   15.3755    0.0000 </r>
       <r>   18.7815    0.0000 </r>
       <r>   18.7815    0.0000 </r>
       <r>   18.8506    0.0000 </r>
       <r>   18.8506    0.0000 </r>
       <r>   19.6218    0.0000 </r>
       <r>   19.6218    0.0000 </r>
       <r>   22.4142    0.0000 </r>
       <r>   25.2838    0.0000 </r>
       <r>   26.0573    0.0000 </r>
       <r>   26.8223    0.0000 </r>
       <r>   29.0417    0.0000 </r>
       <r>   29.0417    0.0000 </r>
       <r>   31.4147    0.0000 </r>
       <r>   31.4147    0.0000 </r>
       <r>   32.7653    0.0000 </r>
       <r>   34.5870    0.0000 </r>
       <r>   34.7720    0.0000 </r>
       <r>   35.2088    0.0000 </r>
       <r>   36.0529    0.0000 </r>
       <r>   36.7177    0.0000 </r>
       <r>   41.5782    0.0000 </r>
       <r>   42.5380    0.0000 </r>
      </set>
      <set comment="kpoint 11">
       <r>    0.1152    1.0000 </r>
       <r>    2.7000    1.0000 </r>
       <r>    3.2926    1.0000 </r>
       <r>    3.4415    1.0000 </r>
       <r>    3.6294    1.0000 </r>
       <r>    3.6518    1.0000 </r>
       <r>    3.6865    1.0000 </r>
       <r>    4.2235    1.0000 </r>
       <r>    4.4707    1.0000 </r>
       <r>    4.6524    1.0000 </r>
       <r>    4.6701    1.0000 </r>
       <r>    4.7729    1.0000 </r>
       <r>    4.9364    1.0000 </r>
       <r>    5.1944    1.0000 </r>
       <r>    5.4770    1.0000 </r>
       <r>    5.5755    1.0000 </r>
       <r>    5.6511    1.0000 </r>
       <r>    5.6627    1.0000 </r>
       <r>    5.6816    1.0000 </r>
       <r>    5.9024    1.0000 </r>
       <r>    5.9289    1.0000 </r>
       <r>    6.8371    1.0000 </r>
       <r>    8.9017   -0.0000 </r>
       <r>   12.5783    0.0000 </r>
       <r>   12.5900    0.0000 </r>
       <r>   15.7153    0.0000 </r>
       <r>   17.0751    0.0000 </r>
       <r>   18.2204    0.0000 </r>
       <r>   19.4053    0.0000 </r>
       <r>   19.7009    0.0000 </r>
       <r>   20.3521    0.0000 </r>
       <r>   21.8641    0.0000 </r>
       <r>   22.2167    0.0000 </r>
       <r>   23.6187    0.0000 </r>
       <r>   24.3052    0.0000 </r>
       <r>   28.3160    0.0000 </r>
       <r>   29.5792    0.0000 </r>
       <r>   31.7819    0.0000 </r>
       <r>   31.8469    0.0000 </r>
       <r>   31.9150    0.0000 </r>
       <r>   32.3747    0.0000 </r>
       <r>   33.9014    0.0000 </r>
       <r>   34.7557    0.0000 </r>
       <r>   36.6206    0.0000 </r>
       <r>   37.6317    0.0000 </r>
       <r>   38.1147    0.0000 </r>
       <r>   39.1597    0.0000 </r>
       <r>   40.9961    0.0000 </r>
      </set>
      <set comment="kpoint 12">
       <r>    1.0097    1.0000 </r>
       <r>    1.9697    1.0000 </r>
       <r>    3.5805    1.0000 </r>
       <r>    3.6665    1.0000 </r>
       <r>    3.7591    1.0000 </r>
       <r>    3.8400    1.0000 </r>
       <r>    3.9486    1.0000 </r>
       <r>    4.0401    1.0000 </r>
       <r>    4.0625    1.0000 </r>
       <r>    4.2781    1.0000 </r>
       <r>    4.5919    1.0000 </r>
       <r>    4.6898    1.0000 </r>
       <r>    5.1439    1.0000 </r>
       <r>    5.2569    1.0000 </r>
       <r>    5.3604    1.0000 </r>
       <r>    5.3960    1.0000 </r>
       <r>    5.4009    1.0000 </r>
       <r>    5.4486    1.0000 </r>
       <r>    5.8901    1.0000 </r>
       <r>    5.9023    1.0000 </r>
       <r>    5.9080    1.0000 </r>
       <r>    6.2095    1.0000 </r>
       <r>    9.9379   -0.0000 </r>
       <r>   11.1506    0.0000 </r>
       <r>   13.9026    0.0000 </r>
       <r>   15.4123    0.0000 </r>
       <r>   16.2962    0.0000 </r>
       <r>   17.1294    0.0000 </r>
       <r>   20.1845    0.0000 </r>
       <r>   20.8063    0.0000 </r>
       <r>   21.1844    0.0000 </r>
       <r>   21.4424    0.0000 </r>
       <r>   22.1219    0.0000 </r>
       <r>   22.7625    0.0000 </r>
       <r>   25.1151    0.0000 </r>
       <r>   28.5297    0.0000 </r>
       <r>   30.3410    0.0000 </r>
       <r>   31.0611    0.0000 </r>
       <r>   31.3109    0.0000 </r>
       <r>   32.5215    0.0000 </r>
       <r>   33.4821    0.0000 </r>
       <r>   33.8837    0.0000 </r>
       <r>   34.8100    0.0000 </r>
       <r>   38.0967    0.0000 </r>
       <r>   38.1093    0.0000 </r>
       <r>   38.7968    0.0000 </r>
       <r>   39.5306    0.0000 </r>
       <r>   40.3620    0.0000 </r>
      </set>
      <set comment="kpoint 13">
       <r>    0.7650    1.0000 </r>
       <r>    3.0811    1.0000 </r>
       <r>    3.0811    1.0000 </r>
       <r>    3.5678    1.0000 </r>
       <r>    3.7394    1.0000 </r>
       <r>    3.8011    1.0000 </r>
       <r>    3.8011    1.0000 </r>
       <r>    4.1725    1.0000 </r>
       <r>    4.3202    1.0000 </r>
       <r>    4.3202    1.0000 </r>
       <r>    4.4669    1.0000 </r>
       <r>    4.7082    1.0000 </r>
       <r>    5.0223    1.0000 </r>
       <r>    5.1312    1.0000 </r>
       <r>    5.3570    1.0000 </r>
       <r>    5.4758    1.0000 </r>
       <r>    5.4758    1.0000 </r>
       <r>    5.6643    1.0000 </r>
       <r>    5.6643    1.0000 </r>
       <r>    5.7955    1.0000 </r>
       <r>    5.9054    1.0000 </r>
       <r>    7.5588    0.8500 </r>
       <r>    7.5588    0.8500 </r>
       <r>   10.8915    0.0000 </r>
       <r>   13.5774    0.0000 </r>
       <r>   16.1546    0.0000 </r>
       <r>   17.9255    0.0000 </r>
       <r>   17.9255    0.0000 </r>
       <r>   18.9432    0.0000 </r>
       <r>   18.9432    0.0000 </r>
       <r>   21.8983    0.0000 </r>
       <r>   22.4239    0.0000 </r>
       <r>   22.4239    0.0000 </r>
       <r>   22.6078    0.0000 </r>
       <r>   24.3231    0.0000 </r>
       <r>   27.5206    0.0000 </r>
       <r>   32.3523    0.0000 </r>
       <r>   32.3523    0.0000 </r>
       <r>   32.3885    0.0000 </r>
       <r>   32.9881    0.0000 </r>
       <r>   33.8539    0.0000 </r>
       <r>   33.8539    0.0000 </r>
       <r>   34.3730    0.0000 </r>
       <r>   36.6087    0.0000 </r>
       <r>   36.8748    0.0000 </r>
       <r>   38.1341    0.0000 </r>
       <r>   38.1341    0.0000 </r>
       <r>   41.0680    0.0000 </r>
      </set>
      <set comment="kpoint 14">
       <r>    1.5887    1.0000 </r>
       <r>    2.4447    1.0000 </r>
       <r>    3.4384    1.0000 </r>
       <r>    3.6002    1.0000 </r>
       <r>    3.8916    1.0000 </r>
       <r>    3.9368    1.0000 </r>
       <r>    4.0012    1.0000 </r>
       <r>    4.0628    1.0000 </r>
       <r>    4.0700    1.0000 </r>
       <r>    4.2346    1.0000 </r>
       <r>    4.4040    1.0000 </r>
       <r>    4.5826    1.0000 </r>
       <r>    5.1494    1.0000 </r>
       <r>    5.1856    1.0000 </r>
       <r>    5.2632    1.0000 </r>
       <r>    5.2994    1.0000 </r>
       <r>    5.3105    1.0000 </r>
       <r>    5.4107    1.0000 </r>
       <r>    5.6770    1.0000 </r>
       <r>    5.7146    1.0000 </r>
       <r>    6.2226    1.0000 </r>
       <r>    6.7086    1.0000 </r>
       <r>    8.4217   -0.0000 </r>
       <r>    9.5087   -0.0000 </r>
       <r>   14.8313    0.0000 </r>
       <r>   16.2911    0.0000 </r>
       <r>   16.8222    0.0000 </r>
       <r>   17.7483    0.0000 </r>
       <r>   19.0358    0.0000 </r>
       <r>   19.9155    0.0000 </r>
       <r>   20.3676    0.0000 </r>
       <r>   21.1388    0.0000 </r>
       <r>   23.2271    0.0000 </r>
       <r>   24.1566    0.0000 </r>
       <r>   25.7036    0.0000 </r>
       <r>   29.1585    0.0000 </r>
       <r>   29.4333    0.0000 </r>
       <r>   32.3771    0.0000 </r>
       <r>   33.1394    0.0000 </r>
       <r>   33.2216    0.0000 </r>
       <r>   33.6369    0.0000 </r>
       <r>   34.0667    0.0000 </r>
       <r>   35.3999    0.0000 </r>
       <r>   37.2873    0.0000 </r>
       <r>   37.5550    0.0000 </r>
       <r>   38.7035    0.0000 </r>
       <r>   38.8829    0.0000 </r>
       <r>   39.2901    0.0000 </r>
      </set>
      <set comment="kpoint 15">
       <r>    2.2847    1.0000 </r>
       <r>    2.9527    1.0000 </r>
       <r>    2.9527    1.0000 </r>
       <r>    3.3510    1.0000 </r>
       <r>    4.0505    1.0000 </r>
       <r>    4.0505    1.0000 </r>
       <r>    4.0769    1.0000 </r>
       <r>    4.1135    1.0000 </r>
       <r>    4.1570    1.0000 </r>
       <r>    4.2699    1.0000 </r>
       <r>    4.2699    1.0000 </r>
       <r>    4.4671    1.0000 </r>
       <r>    5.0813    1.0000 </r>
       <r>    5.1553    1.0000 </r>
       <r>    5.1631    1.0000 </r>
       <r>    5.1631    1.0000 </r>
       <r>    5.2863    1.0000 </r>
       <r>    5.4569    1.0000 </r>
       <r>    5.4569    1.0000 </r>
       <r>    5.5552    1.0000 </r>
       <r>    6.6749    1.0000 </r>
       <r>    7.3524    1.0010 </r>
       <r>    7.3524    1.0010 </r>
       <r>    8.2490   -0.0000 </r>
       <r>   16.0227    0.0000 </r>
       <r>   17.4334    0.0000 </r>
       <r>   17.4334    0.0000 </r>
       <r>   17.5892    0.0000 </r>
       <r>   18.6185    0.0000 </r>
       <r>   18.6185    0.0000 </r>
       <r>   18.8001    0.0000 </r>
       <r>   19.7487    0.0000 </r>
       <r>   26.4909    0.0000 </r>
       <r>   26.4909    0.0000 </r>
       <r>   26.7786    0.0000 </r>
       <r>   28.6202    0.0000 </r>
       <r>   29.6885    0.0000 </r>
       <r>   30.2441    0.0000 </r>
       <r>   31.0834    0.0000 </r>
       <r>   31.0834    0.0000 </r>
       <r>   36.1914    0.0000 </r>
       <r>   36.1914    0.0000 </r>
       <r>   36.5706    0.0000 </r>
       <r>   38.1043    0.0000 </r>
       <r>   39.1612    0.0000 </r>
       <r>   39.2922    0.0000 </r>
       <r>   39.6674    0.0000 </r>
       <r>   39.6675    0.0000 </r>
      </set>
      <set comment="kpoint 16">
       <r>   -1.2999    1.0000 </r>
       <r>    2.8747    1.0000 </r>
       <r>    2.8747    1.0000 </r>
       <r>    2.8747    1.0000 </r>
       <r>    3.3148    1.0000 </r>
       <r>    3.3148    1.0000 </r>
       <r>    3.3148    1.0000 </r>
       <r>    4.5075    1.0000 </r>
       <r>    4.6750    1.0000 </r>
       <r>    4.6750    1.0000 </r>
       <r>    5.4035    1.0000 </r>
       <r>    5.4035    1.0000 </r>
       <r>    5.6202    1.0000 </r>
       <r>    5.6202    1.0000 </r>
       <r>    5.6202    1.0000 </r>
       <r>    5.8245    1.0000 </r>
       <r>    5.8245    1.0000 </r>
       <r>    5.8245    1.0000 </r>
       <r>    6.0852    1.0000 </r>
       <r>    6.0852    1.0000 </r>
       <r>    6.0852    1.0000 </r>
       <r>    8.9816   -0.0000 </r>
       <r>    8.9816   -0.0000 </r>
       <r>    8.9816   -0.0000 </r>
       <r>   16.0928    0.0000 </r>
       <r>   16.0928    0.0000 </r>
       <r>   16.0928    0.0000 </r>
       <r>   18.3300    0.0000 </r>
       <r>   18.3300    0.0000 </r>
       <r>   18.3300    0.0000 </r>
       <r>   21.3932    0.0000 </r>
       <r>   21.3932    0.0000 </r>
       <r>   21.3932    0.0000 </r>
       <r>   26.3181    0.0000 </r>
       <r>   26.3181    0.0000 </r>
       <r>   26.3181    0.0000 </r>
       <r>   27.2020    0.0000 </r>
       <r>   30.2563    0.0000 </r>
       <r>   30.2563    0.0000 </r>
       <r>   30.2563    0.0000 </r>
       <r>   30.9672    0.0000 </r>
       <r>   31.9017    0.0000 </r>
       <r>   31.9017    0.0000 </r>
       <r>   37.0536    0.0000 </r>
       <r>   37.0536    0.0000 </r>
       <r>   37.3074    0.0000 </r>
       <r>   40.9749    0.0000 </r>
       <r>   40.9749    0.0000 </r>
      </set>
      <set comment="kpoint 17">
       <r>   -0.8623    1.0000 </r>
       <r>    2.8237    1.0000 </r>
       <r>    3.0645    1.0000 </r>
       <r>    3.0645    1.0000 </r>
       <r>    3.4236    1.0000 </r>
       <r>    3.4311    1.0000 </r>
       <r>    3.4311    1.0000 </r>
       <r>    4.4091    1.0000 </r>
       <r>    4.7455    1.0000 </r>
       <r>    4.7503    1.0000 </r>
       <r>    5.1685    1.0000 </r>
       <r>    5.1685    1.0000 </r>
       <r>    5.3132    1.0000 </r>
       <r>    5.3395    1.0000 </r>
       <r>    5.4733    1.0000 </r>
       <r>    5.6751    1.0000 </r>
       <r>    5.7039    1.0000 </r>
       <r>    5.7039    1.0000 </r>
       <r>    6.0352    1.0000 </r>
       <r>    6.0619    1.0000 </r>
       <r>    6.0619    1.0000 </r>
       <r>    7.5097    1.0199 </r>
       <r>    9.7544   -0.0000 </r>
       <r>    9.7544   -0.0000 </r>
       <r>   16.2676    0.0000 </r>
       <r>   16.2676    0.0000 </r>
       <r>   16.5847    0.0000 </r>
       <r>   16.5847    0.0000 </r>
       <r>   18.5542    0.0000 </r>
       <r>   18.9100    0.0000 </r>
       <r>   20.9731    0.0000 </r>
       <r>   20.9731    0.0000 </r>
       <r>   22.0201    0.0000 </r>
       <r>   25.3613    0.0000 </r>
       <r>   26.5331    0.0000 </r>
       <r>   27.6397    0.0000 </r>
       <r>   27.6397    0.0000 </r>
       <r>   29.8060    0.0000 </r>
       <r>   29.9767    0.0000 </r>
       <r>   30.5234    0.0000 </r>
       <r>   32.7070    0.0000 </r>
       <r>   32.7070    0.0000 </r>
       <r>   33.4112    0.0000 </r>
       <r>   35.2707    0.0000 </r>
       <r>   37.9374    0.0000 </r>
       <r>   39.0102    0.0000 </r>
       <r>   39.2032    0.0000 </r>
       <r>   42.0148    0.0000 </r>
      </set>
      <set comment="kpoint 18">
       <r>   -0.1576    1.0000 </r>
       <r>    2.5155    1.0000 </r>
       <r>    3.3233    1.0000 </r>
       <r>    3.3233    1.0000 </r>
       <r>    3.5927    1.0000 </r>
       <r>    3.6168    1.0000 </r>
       <r>    3.6168    1.0000 </r>
       <r>    4.2386    1.0000 </r>
       <r>    4.6792    1.0000 </r>
       <r>    4.6792    1.0000 </r>
       <r>    4.8272    1.0000 </r>
       <r>    4.8756    1.0000 </r>
       <r>    4.9532    1.0000 </r>
       <r>    5.2507    1.0000 </r>
       <r>    5.4723    1.0000 </r>
       <r>    5.5362    1.0000 </r>
       <r>    5.5362    1.0000 </r>
       <r>    5.5778    1.0000 </r>
       <r>    5.9471    1.0000 </r>
       <r>    6.0412    1.0000 </r>
       <r>    6.0412    1.0000 </r>
       <r>    6.3967    1.0000 </r>
       <r>   10.7571    0.0000 </r>
       <r>   10.7571    0.0000 </r>
       <r>   14.7987    0.0000 </r>
       <r>   14.7987    0.0000 </r>
       <r>   16.8656    0.0000 </r>
       <r>   16.8656    0.0000 </r>
       <r>   19.7062    0.0000 </r>
       <r>   19.7784    0.0000 </r>
       <r>   19.7784    0.0000 </r>
       <r>   21.5798    0.0000 </r>
       <r>   23.0226    0.0000 </r>
       <r>   23.6669    0.0000 </r>
       <r>   26.9169    0.0000 </r>
       <r>   27.7931    0.0000 </r>
       <r>   28.7941    0.0000 </r>
       <r>   30.1166    0.0000 </r>
       <r>   30.1166    0.0000 </r>
       <r>   31.0061    0.0000 </r>
       <r>   31.8748    0.0000 </r>
       <r>   34.0932    0.0000 </r>
       <r>   35.4950    0.0000 </r>
       <r>   35.4950    0.0000 </r>
       <r>   38.0236    0.0000 </r>
       <r>   40.5208    0.0000 </r>
       <r>   40.5208    0.0000 </r>
       <r>   40.5236    0.0000 </r>
      </set>
      <set comment="kpoint 19">
       <r>    0.7594    1.0000 </r>
       <r>    1.7513    1.0000 </r>
       <r>    3.5502    1.0000 </r>
       <r>    3.5502    1.0000 </r>
       <r>    3.8021    1.0000 </r>
       <r>    3.8338    1.0000 </r>
       <r>    3.8338    1.0000 </r>
       <r>    4.0265    1.0000 </r>
       <r>    4.2719    1.0000 </r>
       <r>    4.2719    1.0000 </r>
       <r>    4.7532    1.0000 </r>
       <r>    4.7885    1.0000 </r>
       <r>    5.0471    1.0000 </r>
       <r>    5.2530    1.0000 </r>
       <r>    5.3884    1.0000 </r>
       <r>    5.3884    1.0000 </r>
       <r>    5.3972    1.0000 </r>
       <r>    5.7026    1.0000 </r>
       <r>    5.7626    1.0000 </r>
       <r>    5.8312    1.0000 </r>
       <r>    6.0322    1.0000 </r>
       <r>    6.0322    1.0000 </r>
       <r>   11.8694    0.0000 </r>
       <r>   11.8694    0.0000 </r>
       <r>   13.3722    0.0000 </r>
       <r>   13.3722    0.0000 </r>
       <r>   17.5774    0.0000 </r>
       <r>   17.5774    0.0000 </r>
       <r>   18.5944    0.0000 </r>
       <r>   18.5944    0.0000 </r>
       <r>   20.8195    0.0000 </r>
       <r>   22.1478    0.0000 </r>
       <r>   24.3519    0.0000 </r>
       <r>   24.7470    0.0000 </r>
       <r>   25.9580    0.0000 </r>
       <r>   27.4586    0.0000 </r>
       <r>   27.5442    0.0000 </r>
       <r>   28.9727    0.0000 </r>
       <r>   31.7474    0.0000 </r>
       <r>   32.7850    0.0000 </r>
       <r>   32.9329    0.0000 </r>
       <r>   32.9329    0.0000 </r>
       <r>   36.4769    0.0000 </r>
       <r>   36.4769    0.0000 </r>
       <r>   39.1108    0.0000 </r>
       <r>   39.1108    0.0000 </r>
       <r>   40.3089    0.0000 </r>
       <r>   41.8070    0.0000 </r>
      </set>
      <set comment="kpoint 20">
       <r>   -0.4377    1.0000 </r>
       <r>    3.0309    1.0000 </r>
       <r>    3.0309    1.0000 </r>
       <r>    3.2204    1.0000 </r>
       <r>    3.5244    1.0000 </r>
       <r>    3.5320    1.0000 </r>
       <r>    3.5320    1.0000 </r>
       <r>    4.3606    1.0000 </r>
       <r>    4.7632    1.0000 </r>
       <r>    4.7814    1.0000 </r>
       <r>    4.9104    1.0000 </r>
       <r>    4.9104    1.0000 </r>
       <r>    4.9389    1.0000 </r>
       <r>    5.3156    1.0000 </r>
       <r>    5.5121    1.0000 </r>
       <r>    5.5482    1.0000 </r>
       <r>    5.5715    1.0000 </r>
       <r>    5.5715    1.0000 </r>
       <r>    6.0146    1.0000 </r>
       <r>    6.0146    1.0000 </r>
       <r>    6.0154    1.0000 </r>
       <r>    8.1835   -0.0000 </r>
       <r>    8.1835   -0.0000 </r>
       <r>   10.3841    0.0000 </r>
       <r>   14.5310    0.0000 </r>
       <r>   16.6824    0.0000 </r>
       <r>   16.9983    0.0000 </r>
       <r>   16.9983    0.0000 </r>
       <r>   18.9320    0.0000 </r>
       <r>   18.9320    0.0000 </r>
       <r>   21.5220    0.0000 </r>
       <r>   21.5220    0.0000 </r>
       <r>   22.6086    0.0000 </r>
       <r>   23.4435    0.0000 </r>
       <r>   26.8829    0.0000 </r>
       <r>   27.8978    0.0000 </r>
       <r>   27.8978    0.0000 </r>
       <r>   28.0992    0.0000 </r>
       <r>   31.8356    0.0000 </r>
       <r>   32.9029    0.0000 </r>
       <r>   32.9793    0.0000 </r>
       <r>   32.9793    0.0000 </r>
       <r>   35.2991    0.0000 </r>
       <r>   35.7581    0.0000 </r>
       <r>   36.4315    0.0000 </r>
       <r>   38.3355    0.0000 </r>
       <r>   40.4090    0.0000 </r>
       <r>   41.5333    0.0000 </r>
      </set>
      <set comment="kpoint 21">
       <r>    0.2422    1.0000 </r>
       <r>    2.7546    1.0000 </r>
       <r>    3.3099    1.0000 </r>
       <r>    3.4283    1.0000 </r>
       <r>    3.6616    1.0000 </r>
       <r>    3.6907    1.0000 </r>
       <r>    3.7027    1.0000 </r>
       <r>    4.2426    1.0000 </r>
       <r>    4.4930    1.0000 </r>
       <r>    4.6160    1.0000 </r>
       <r>    4.6433    1.0000 </r>
       <r>    4.7668    1.0000 </r>
       <r>    4.8651    1.0000 </r>
       <r>    5.3044    1.0000 </r>
       <r>    5.3740    1.0000 </r>
       <r>    5.4038    1.0000 </r>
       <r>    5.4503    1.0000 </r>
       <r>    5.6575    1.0000 </r>
       <r>    5.9164    1.0000 </r>
       <r>    5.9596    1.0000 </r>
       <r>    5.9602    1.0000 </r>
       <r>    6.9337    1.0000 </r>
       <r>    9.0329   -0.0000 </r>
       <r>   11.1939    0.0000 </r>
       <r>   12.9394    0.0000 </r>
       <r>   15.3243    0.0000 </r>
       <r>   17.1942    0.0000 </r>
       <r>   17.8215    0.0000 </r>
       <r>   19.4717    0.0000 </r>
       <r>   20.2697    0.0000 </r>
       <r>   21.7201    0.0000 </r>
       <r>   21.8651    0.0000 </r>
       <r>   22.3790    0.0000 </r>
       <r>   22.4525    0.0000 </r>
       <r>   26.4030    0.0000 </r>
       <r>   28.3572    0.0000 </r>
       <r>   28.3859    0.0000 </r>
       <r>   30.3787    0.0000 </r>
       <r>   30.6877    0.0000 </r>
       <r>   32.6945    0.0000 </r>
       <r>   33.4545    0.0000 </r>
       <r>   34.8384    0.0000 </r>
       <r>   35.5517    0.0000 </r>
       <r>   36.5226    0.0000 </r>
       <r>   38.1266    0.0000 </r>
       <r>   38.5660    0.0000 </r>
       <r>   39.2965    0.0000 </r>
       <r>   40.8743    0.0000 </r>
      </set>
      <set comment="kpoint 22">
       <r>    1.1175    1.0000 </r>
       <r>    2.0486    1.0000 </r>
       <r>    3.5758    1.0000 </r>
       <r>    3.6488    1.0000 </r>
       <r>    3.7344    1.0000 </r>
       <r>    3.8223    1.0000 </r>
       <r>    3.8806    1.0000 </r>
       <r>    4.0731    1.0000 </r>
       <r>    4.2393    1.0000 </r>
       <r>    4.3367    1.0000 </r>
       <r>    4.5795    1.0000 </r>
       <r>    4.6800    1.0000 </r>
       <r>    4.9921    1.0000 </r>
       <r>    5.1674    1.0000 </r>
       <r>    5.2978    1.0000 </r>
       <r>    5.3214    1.0000 </r>
       <r>    5.4596    1.0000 </r>
       <r>    5.7273    1.0000 </r>
       <r>    5.8587    1.0000 </r>
       <r>    5.9268    1.0000 </r>
       <r>    5.9273    1.0000 </r>
       <r>    6.1974    1.0000 </r>
       <r>   10.0204   -0.0000 </r>
       <r>   11.0985    0.0000 </r>
       <r>   12.7060    0.0000 </r>
       <r>   13.8694    0.0000 </r>
       <r>   17.9599    0.0000 </r>
       <r>   18.8988    0.0000 </r>
       <r>   18.9792    0.0000 </r>
       <r>   20.2031    0.0000 </r>
       <r>   20.3187    0.0000 </r>
       <r>   21.3246    0.0000 </r>
       <r>   23.4812    0.0000 </r>
       <r>   24.8554    0.0000 </r>
       <r>   25.2130    0.0000 </r>
       <r>   28.4482    0.0000 </r>
       <r>   29.0711    0.0000 </r>
       <r>   30.2160    0.0000 </r>
       <r>   31.0754    0.0000 </r>
       <r>   32.7394    0.0000 </r>
       <r>   34.1408    0.0000 </r>
       <r>   34.9593    0.0000 </r>
       <r>   35.3298    0.0000 </r>
       <r>   37.1693    0.0000 </r>
       <r>   37.8154    0.0000 </r>
       <r>   39.5221    0.0000 </r>
       <r>   39.7824    0.0000 </r>
       <r>   39.9677    0.0000 </r>
      </set>
      <set comment="kpoint 23">
       <r>    0.8733    1.0000 </r>
       <r>    3.0666    1.0000 </r>
       <r>    3.0666    1.0000 </r>
       <r>    3.4867    1.0000 </r>
       <r>    3.7967    1.0000 </r>
       <r>    3.8557    1.0000 </r>
       <r>    3.8557    1.0000 </r>
       <r>    4.2152    1.0000 </r>
       <r>    4.3667    1.0000 </r>
       <r>    4.3667    1.0000 </r>
       <r>    4.5027    1.0000 </r>
       <r>    4.7094    1.0000 </r>
       <r>    4.8831    1.0000 </r>
       <r>    5.2587    1.0000 </r>
       <r>    5.2852    1.0000 </r>
       <r>    5.2852    1.0000 </r>
       <r>    5.3009    1.0000 </r>
       <r>    5.8318    1.0000 </r>
       <r>    5.8318    1.0000 </r>
       <r>    5.8650    1.0000 </r>
       <r>    5.8732    1.0000 </r>
       <r>    7.6190    0.3850 </r>
       <r>    7.6190    0.3850 </r>
       <r>   10.7784    0.0000 </r>
       <r>   12.4872    0.0000 </r>
       <r>   16.1268    0.0000 </r>
       <r>   16.1268    0.0000 </r>
       <r>   17.7617    0.0000 </r>
       <r>   19.9848    0.0000 </r>
       <r>   20.9718    0.0000 </r>
       <r>   20.9718    0.0000 </r>
       <r>   22.5530    0.0000 </r>
       <r>   22.5530    0.0000 </r>
       <r>   24.4913    0.0000 </r>
       <r>   24.7406    0.0000 </r>
       <r>   27.5672    0.0000 </r>
       <r>   30.8167    0.0000 </r>
       <r>   30.8167    0.0000 </r>
       <r>   31.7610    0.0000 </r>
       <r>   32.9873    0.0000 </r>
       <r>   34.5181    0.0000 </r>
       <r>   34.8645    0.0000 </r>
       <r>   35.4923    0.0000 </r>
       <r>   35.4923    0.0000 </r>
       <r>   38.3802    0.0000 </r>
       <r>   38.3802    0.0000 </r>
       <r>   39.2945    0.0000 </r>
       <r>   40.8201    0.0000 </r>
      </set>
      <set comment="kpoint 24">
       <r>    1.6632    1.0000 </r>
       <r>    2.4680    1.0000 </r>
       <r>    3.3319    1.0000 </r>
       <r>    3.4669    1.0000 </r>
       <r>    3.9418    1.0000 </r>
       <r>    4.0044    1.0000 </r>
       <r>    4.0159    1.0000 </r>
       <r>    4.1382    1.0000 </r>
       <r>    4.2435    1.0000 </r>
       <r>    4.3653    1.0000 </r>
       <r>    4.4280    1.0000 </r>
       <r>    4.5909    1.0000 </r>
       <r>    4.9510    1.0000 </r>
       <r>    5.0966    1.0000 </r>
       <r>    5.1631    1.0000 </r>
       <r>    5.1863    1.0000 </r>
       <r>    5.4132    1.0000 </r>
       <r>    5.6338    1.0000 </r>
       <r>    5.7791    1.0000 </r>
       <r>    5.7925    1.0000 </r>
       <r>    6.1862    1.0000 </r>
       <r>    6.6963    1.0000 </r>
       <r>    8.4602   -0.0000 </r>
       <r>    9.5202   -0.0000 </r>
       <r>   13.4171    0.0000 </r>
       <r>   14.6564    0.0000 </r>
       <r>   17.1827    0.0000 </r>
       <r>   18.4714    0.0000 </r>
       <r>   18.5875    0.0000 </r>
       <r>   19.6731    0.0000 </r>
       <r>   22.0008    0.0000 </r>
       <r>   23.2623    0.0000 </r>
       <r>   23.3501    0.0000 </r>
       <r>   24.2912    0.0000 </r>
       <r>   25.8077    0.0000 </r>
       <r>   29.1923    0.0000 </r>
       <r>   29.4634    0.0000 </r>
       <r>   31.4137    0.0000 </r>
       <r>   31.9903    0.0000 </r>
       <r>   32.0815    0.0000 </r>
       <r>   34.7105    0.0000 </r>
       <r>   35.0898    0.0000 </r>
       <r>   35.1431    0.0000 </r>
       <r>   36.8650    0.0000 </r>
       <r>   37.8231    0.0000 </r>
       <r>   37.9790    0.0000 </r>
       <r>   39.5806    0.0000 </r>
       <r>   40.2920    0.0000 </r>
      </set>
      <set comment="kpoint 25">
       <r>    2.3010    1.0000 </r>
       <r>    2.8921    1.0000 </r>
       <r>    2.8921    1.0000 </r>
       <r>    3.2243    1.0000 </r>
       <r>    4.1540    1.0000 </r>
       <r>    4.1855    1.0000 </r>
       <r>    4.1855    1.0000 </r>
       <r>    4.1930    1.0000 </r>
       <r>    4.3167    1.0000 </r>
       <r>    4.3167    1.0000 </r>
       <r>    4.3323    1.0000 </r>
       <r>    4.4881    1.0000 </r>
       <r>    4.9360    1.0000 </r>
       <r>    5.0279    1.0000 </r>
       <r>    5.0279    1.0000 </r>
       <r>    5.0432    1.0000 </r>
       <r>    5.4461    1.0000 </r>
       <r>    5.5971    1.0000 </r>
       <r>    5.5971    1.0000 </r>
       <r>    5.6615    1.0000 </r>
       <r>    6.6390    1.0000 </r>
       <r>    7.3405    1.0006 </r>
       <r>    7.3405    1.0006 </r>
       <r>    8.2494   -0.0000 </r>
       <r>   14.4381    0.0000 </r>
       <r>   15.6953    0.0000 </r>
       <r>   15.6953    0.0000 </r>
       <r>   16.9683    0.0000 </r>
       <r>   19.4773    0.0000 </r>
       <r>   20.6256    0.0000 </r>
       <r>   20.6256    0.0000 </r>
       <r>   21.8294    0.0000 </r>
       <r>   26.5949    0.0000 </r>
       <r>   26.5949    0.0000 </r>
       <r>   26.9159    0.0000 </r>
       <r>   28.6306    0.0000 </r>
       <r>   29.7860    0.0000 </r>
       <r>   30.1442    0.0000 </r>
       <r>   30.9586    0.0000 </r>
       <r>   30.9586    0.0000 </r>
       <r>   35.5615    0.0000 </r>
       <r>   35.5615    0.0000 </r>
       <r>   36.3344    0.0000 </r>
       <r>   36.3505    0.0000 </r>
       <r>   38.5169    0.0000 </r>
       <r>   38.7207    0.0000 </r>
       <r>   39.3346    0.0000 </r>
       <r>   39.3346    0.0000 </r>
      </set>
      <set comment="kpoint 26">
       <r>   -0.0319    1.0000 </r>
       <r>    3.1649    1.0000 </r>
       <r>    3.1649    1.0000 </r>
       <r>    3.1649    1.0000 </r>
       <r>    3.6364    1.0000 </r>
       <r>    3.6364    1.0000 </r>
       <r>    3.6364    1.0000 </r>
       <r>    4.3520    1.0000 </r>
       <r>    4.7465    1.0000 </r>
       <r>    4.7465    1.0000 </r>
       <r>    4.7465    1.0000 </r>
       <r>    4.7631    1.0000 </r>
       <r>    4.7631    1.0000 </r>
       <r>    5.3686    1.0000 </r>
       <r>    5.3686    1.0000 </r>
       <r>    5.3686    1.0000 </r>
       <r>    5.4578    1.0000 </r>
       <r>    5.4578    1.0000 </r>
       <r>    6.0459    1.0000 </r>
       <r>    6.0459    1.0000 </r>
       <r>    6.0459    1.0000 </r>
       <r>    8.6835   -0.0000 </r>
       <r>    8.6835   -0.0000 </r>
       <r>    8.6835   -0.0000 </r>
       <r>   15.0686    0.0000 </r>
       <r>   15.0686    0.0000 </r>
       <r>   15.0686    0.0000 </r>
       <r>   19.2697    0.0000 </r>
       <r>   19.2697    0.0000 </r>
       <r>   19.2697    0.0000 </r>
       <r>   21.4863    0.0000 </r>
       <r>   23.1834    0.0000 </r>
       <r>   23.1834    0.0000 </r>
       <r>   23.1834    0.0000 </r>
       <r>   27.0751    0.0000 </r>
       <r>   27.0751    0.0000 </r>
       <r>   27.0751    0.0000 </r>
       <r>   30.3606    0.0000 </r>
       <r>   30.7349    0.0000 </r>
       <r>   30.7349    0.0000 </r>
       <r>   35.5745    0.0000 </r>
       <r>   35.5745    0.0000 </r>
       <r>   35.5745    0.0000 </r>
       <r>   36.8643    0.0000 </r>
       <r>   36.8643    0.0000 </r>
       <r>   37.2903    0.0000 </r>
       <r>   41.0086    0.0000 </r>
       <r>   41.0086    0.0000 </r>
      </set>
      <set comment="kpoint 27">
       <r>    0.6111    1.0000 </r>
       <r>    2.8849    1.0000 </r>
       <r>    3.3142    1.0000 </r>
       <r>    3.3142    1.0000 </r>
       <r>    3.7951    1.0000 </r>
       <r>    3.7951    1.0000 </r>
       <r>    3.8174    1.0000 </r>
       <r>    4.2947    1.0000 </r>
       <r>    4.5406    1.0000 </r>
       <r>    4.5406    1.0000 </r>
       <r>    4.5654    1.0000 </r>
       <r>    4.7447    1.0000 </r>
       <r>    4.7844    1.0000 </r>
       <r>    5.1715    1.0000 </r>
       <r>    5.2404    1.0000 </r>
       <r>    5.2404    1.0000 </r>
       <r>    5.4743    1.0000 </r>
       <r>    5.6297    1.0000 </r>
       <r>    5.9990    1.0000 </r>
       <r>    5.9990    1.0000 </r>
       <r>    6.0205    1.0000 </r>
       <r>    7.2618    1.0000 </r>
       <r>    9.3720   -0.0000 </r>
       <r>    9.3720   -0.0000 </r>
       <r>   13.4353    0.0000 </r>
       <r>   13.4353    0.0000 </r>
       <r>   15.8765    0.0000 </r>
       <r>   19.7455    0.0000 </r>
       <r>   19.8456    0.0000 </r>
       <r>   19.8456    0.0000 </r>
       <r>   22.2594    0.0000 </r>
       <r>   22.8620    0.0000 </r>
       <r>   22.8620    0.0000 </r>
       <r>   24.1156    0.0000 </r>
       <r>   27.4353    0.0000 </r>
       <r>   28.6053    0.0000 </r>
       <r>   28.6053    0.0000 </r>
       <r>   28.7194    0.0000 </r>
       <r>   29.2072    0.0000 </r>
       <r>   32.3575    0.0000 </r>
       <r>   34.3542    0.0000 </r>
       <r>   36.0416    0.0000 </r>
       <r>   37.5450    0.0000 </r>
       <r>   37.9611    0.0000 </r>
       <r>   37.9895    0.0000 </r>
       <r>   37.9895    0.0000 </r>
       <r>   39.7962    0.0000 </r>
       <r>   39.7962    0.0000 </r>
      </set>
      <set comment="kpoint 28">
       <r>    1.4219    1.0000 </r>
       <r>    2.2569    1.0000 </r>
       <r>    3.4216    1.0000 </r>
       <r>    3.4216    1.0000 </r>
       <r>    3.8949    1.0000 </r>
       <r>    3.8949    1.0000 </r>
       <r>    4.0152    1.0000 </r>
       <r>    4.1797    1.0000 </r>
       <r>    4.4433    1.0000 </r>
       <r>    4.4433    1.0000 </r>
       <r>    4.5426    1.0000 </r>
       <r>    4.6490    1.0000 </r>
       <r>    4.8619    1.0000 </r>
       <r>    4.9950    1.0000 </r>
       <r>    5.1509    1.0000 </r>
       <r>    5.1509    1.0000 </r>
       <r>    5.7200    1.0000 </r>
       <r>    5.7968    1.0000 </r>
       <r>    5.9337    1.0000 </r>
       <r>    5.9476    1.0000 </r>
       <r>    5.9476    1.0000 </r>
       <r>    6.2868    1.0000 </r>
       <r>   10.0670   -0.0000 </r>
       <r>   10.0670   -0.0000 </r>
       <r>   12.2664    0.0000 </r>
       <r>   12.2664    0.0000 </r>
       <r>   16.9363    0.0000 </r>
       <r>   18.2285    0.0000 </r>
       <r>   20.6535    0.0000 </r>
       <r>   20.6535    0.0000 </r>
       <r>   21.7602    0.0000 </r>
       <r>   21.7602    0.0000 </r>
       <r>   25.3729    0.0000 </r>
       <r>   25.3995    0.0000 </r>
       <r>   26.9195    0.0000 </r>
       <r>   27.9163    0.0000 </r>
       <r>   28.0751    0.0000 </r>
       <r>   29.7091    0.0000 </r>
       <r>   31.0801    0.0000 </r>
       <r>   31.0801    0.0000 </r>
       <r>   35.8312    0.0000 </r>
       <r>   35.8312    0.0000 </r>
       <r>   36.4246    0.0000 </r>
       <r>   36.6747    0.0000 </r>
       <r>   37.6340    0.0000 </r>
       <r>   38.4724    0.0000 </r>
       <r>   39.2361    0.0000 </r>
       <r>   39.6273    0.0000 </r>
      </set>
      <set comment="kpoint 29">
       <r>    1.1798    1.0000 </r>
       <r>    3.0208    1.0000 </r>
       <r>    3.0208    1.0000 </r>
       <r>    3.2706    1.0000 </r>
       <r>    3.9612    1.0000 </r>
       <r>    4.0146    1.0000 </r>
       <r>    4.0146    1.0000 </r>
       <r>    4.3548    1.0000 </r>
       <r>    4.4908    1.0000 </r>
       <r>    4.4908    1.0000 </r>
       <r>    4.5842    1.0000 </r>
       <r>    4.7061    1.0000 </r>
       <r>    4.7503    1.0000 </r>
       <r>    5.0561    1.0000 </r>
       <r>    5.0561    1.0000 </r>
       <r>    5.0722    1.0000 </r>
       <r>    5.5218    1.0000 </r>
       <r>    5.7896    1.0000 </r>
       <r>    5.9671    1.0000 </r>
       <r>    5.9825    1.0000 </r>
       <r>    5.9825    1.0000 </r>
       <r>    7.8068   -0.0076 </r>
       <r>    7.8068   -0.0076 </r>
       <r>    9.6771   -0.0000 </r>
       <r>   12.1036    0.0000 </r>
       <r>   14.2070    0.0000 </r>
       <r>   14.2070    0.0000 </r>
       <r>   18.0025    0.0000 </r>
       <r>   20.4496    0.0000 </r>
       <r>   22.8036    0.0000 </r>
       <r>   22.8036    0.0000 </r>
       <r>   23.6885    0.0000 </r>
       <r>   23.6885    0.0000 </r>
       <r>   24.9928    0.0000 </r>
       <r>   27.3468    0.0000 </r>
       <r>   27.7196    0.0000 </r>
       <r>   29.0032    0.0000 </r>
       <r>   29.0032    0.0000 </r>
       <r>   30.6799    0.0000 </r>
       <r>   31.8910    0.0000 </r>
       <r>   33.8489    0.0000 </r>
       <r>   35.4508    0.0000 </r>
       <r>   37.2070    0.0000 </r>
       <r>   37.2070    0.0000 </r>
       <r>   39.0876    0.0000 </r>
       <r>   39.3917    0.0000 </r>
       <r>   39.4991    0.0000 </r>
       <r>   39.4991    0.0000 </r>
      </set>
      <set comment="kpoint 30">
       <r>    1.8618    1.0000 </r>
       <r>    2.5199    1.0000 </r>
       <r>    3.1250    1.0000 </r>
       <r>    3.2045    1.0000 </r>
       <r>    4.0926    1.0000 </r>
       <r>    4.1282    1.0000 </r>
       <r>    4.2470    1.0000 </r>
       <r>    4.3662    1.0000 </r>
       <r>    4.5034    1.0000 </r>
       <r>    4.5394    1.0000 </r>
       <r>    4.6056    1.0000 </r>
       <r>    4.6084    1.0000 </r>
       <r>    4.7855    1.0000 </r>
       <r>    4.8948    1.0000 </r>
       <r>    4.9788    1.0000 </r>
       <r>    4.9842    1.0000 </r>
       <r>    5.6659    1.0000 </r>
       <r>    5.8760    1.0000 </r>
       <r>    5.9112    1.0000 </r>
       <r>    5.9142    1.0000 </r>
       <r>    6.0805    1.0000 </r>
       <r>    6.6852    1.0000 </r>
       <r>    8.5248   -0.0000 </r>
       <r>    9.3239   -0.0000 </r>
       <r>   11.9804    0.0000 </r>
       <r>   12.8648    0.0000 </r>
       <r>   15.2328    0.0000 </r>
       <r>   16.4987    0.0000 </r>
       <r>   21.3021    0.0000 </r>
       <r>   22.3684    0.0000 </r>
       <r>   23.7414    0.0000 </r>
       <r>   24.5991    0.0000 </r>
       <r>   24.6965    0.0000 </r>
       <r>   25.8861    0.0000 </r>
       <r>   26.1293    0.0000 </r>
       <r>   29.1782    0.0000 </r>
       <r>   29.5529    0.0000 </r>
       <r>   29.6320    0.0000 </r>
       <r>   30.6752    0.0000 </r>
       <r>   30.9475    0.0000 </r>
       <r>   34.7274    0.0000 </r>
       <r>   34.9138    0.0000 </r>
       <r>   36.0694    0.0000 </r>
       <r>   36.3271    0.0000 </r>
       <r>   36.3798    0.0000 </r>
       <r>   38.6629    0.0000 </r>
       <r>   39.8514    0.0000 </r>
       <r>   39.9100    0.0000 </r>
      </set>
      <set comment="kpoint 31">
       <r>    2.3394    1.0000 </r>
       <r>    2.7681    1.0000 </r>
       <r>    2.7681    1.0000 </r>
       <r>    2.9894    1.0000 </r>
       <r>    4.2758    1.0000 </r>
       <r>    4.3688    1.0000 </r>
       <r>    4.3688    1.0000 </r>
       <r>    4.5358    1.0000 </r>
       <r>    4.5590    1.0000 </r>
       <r>    4.5987    1.0000 </r>
       <r>    4.5987    1.0000 </r>
       <r>    4.6956    1.0000 </r>
       <r>    4.7587    1.0000 </r>
       <r>    4.8408    1.0000 </r>
       <r>    4.8408    1.0000 </r>
       <r>    4.8585    1.0000 </r>
       <r>    5.6632    1.0000 </r>
       <r>    5.7981    1.0000 </r>
       <r>    5.7981    1.0000 </r>
       <r>    5.8279    1.0000 </r>
       <r>    6.5250    1.0000 </r>
       <r>    7.2954    1.0001 </r>
       <r>    7.2954    1.0001 </r>
       <r>    8.1890   -0.0000 </r>
       <r>   12.6931    0.0000 </r>
       <r>   13.8115    0.0000 </r>
       <r>   13.8115    0.0000 </r>
       <r>   15.0259    0.0000 </r>
       <r>   22.1947    0.0000 </r>
       <r>   23.3245    0.0000 </r>
       <r>   23.3245    0.0000 </r>
       <r>   24.5080    0.0000 </r>
       <r>   26.9079    0.0000 </r>
       <r>   26.9079    0.0000 </r>
       <r>   27.3246    0.0000 </r>
       <r>   28.6741    0.0000 </r>
       <r>   29.8739    0.0000 </r>
       <r>   30.0390    0.0000 </r>
       <r>   30.5437    0.0000 </r>
       <r>   30.5437    0.0000 </r>
       <r>   34.4785    0.0000 </r>
       <r>   34.6472    0.0000 </r>
       <r>   34.6472    0.0000 </r>
       <r>   35.7623    0.0000 </r>
       <r>   36.7170    0.0000 </r>
       <r>   37.5097    0.0000 </r>
       <r>   37.9925    0.0000 </r>
       <r>   37.9925    0.0000 </r>
      </set>
      <set comment="kpoint 32">
       <r>    1.6272    1.0000 </r>
       <r>    2.9630    1.0000 </r>
       <r>    2.9630    1.0000 </r>
       <r>    2.9630    1.0000 </r>
       <r>    4.1956    1.0000 </r>
       <r>    4.1956    1.0000 </r>
       <r>    4.1956    1.0000 </r>
       <r>    4.5956    1.0000 </r>
       <r>    4.6787    1.0000 </r>
       <r>    4.6787    1.0000 </r>
       <r>    4.6787    1.0000 </r>
       <r>    4.6803    1.0000 </r>
       <r>    4.6803    1.0000 </r>
       <r>    4.8916    1.0000 </r>
       <r>    4.8916    1.0000 </r>
       <r>    4.8916    1.0000 </r>
       <r>    5.7271    1.0000 </r>
       <r>    5.7271    1.0000 </r>
       <r>    6.0168    1.0000 </r>
       <r>    6.0168    1.0000 </r>
       <r>    6.0168    1.0000 </r>
       <r>    8.1080   -0.0000 </r>
       <r>    8.1080   -0.0000 </r>
       <r>    8.1080   -0.0000 </r>
       <r>   12.6730    0.0000 </r>
       <r>   12.6730    0.0000 </r>
       <r>   12.6730    0.0000 </r>
       <r>   16.2716    0.0000 </r>
       <r>   23.4276    0.0000 </r>
       <r>   23.4276    0.0000 </r>
       <r>   23.4276    0.0000 </r>
       <r>   25.8186    0.0000 </r>
       <r>   25.8186    0.0000 </r>
       <r>   25.8186    0.0000 </r>
       <r>   28.0197    0.0000 </r>
       <r>   28.0197    0.0000 </r>
[...]
       <r>   35.1014    0.0000 </r>
       <r>   35.1014    0.0000 </r>
       <r>   35.2942    0.0000 </r>
       <r>   36.2431    0.0000 </r>
       <r>   36.4412    0.0000 </r>
       <r>   38.4617    0.0000 </r>
       <r>   38.4619    0.0000 </r>
      </set>
      <set comment="kpoint 34">
       <r>    2.3915    1.0000 </r>
       <r>    2.6552    1.0000 </r>
       <r>    2.6552    1.0000 </r>
       <r>    2.7666    1.0000 </r>
       <r>    4.4172    1.0000 </r>
       <r>    4.4671    1.0000 </r>
       <r>    4.4671    1.0000 </r>
       <r>    4.5775    1.0000 </r>
       <r>    4.6343    1.0000 </r>
       <r>    4.6846    1.0000 </r>
       <r>    4.6846    1.0000 </r>
       <r>    4.7011    1.0000 </r>
       <r>    5.1195    1.0000 </r>
       <r>    5.1195    1.0000 </r>
       <r>    5.1362    1.0000 </r>
       <r>    5.1917    1.0000 </r>
       <r>    5.8450    1.0000 </r>
       <r>    5.9487    1.0000 </r>
       <r>    5.9487    1.0000 </r>
       <r>    5.9511    1.0000 </r>
       <r>    6.3194    1.0000 </r>
       <r>    7.1923    1.0000 </r>
       <r>    7.1923    1.0000 </r>
       <r>    7.8440   -0.0019 </r>
       <r>   11.6353    0.0000 </r>
       <r>   12.3583    0.0000 </r>
       <r>   12.3583    0.0000 </r>
       <r>   13.4138    0.0000 </r>
       <r>   25.0984    0.0000 </r>
       <r>   26.1200    0.0000 </r>
       <r>   26.1200    0.0000 </r>
       <r>   27.2612    0.0000 </r>
       <r>   27.4580    0.0000 </r>
       <r>   27.4580    0.0000 </r>
       <r>   27.9908    0.0000 </r>
       <r>   28.7920    0.0000 </r>
       <r>   29.5313    0.0000 </r>
       <r>   29.8395    0.0000 </r>
       <r>   29.8395    0.0000 </r>
       <r>   30.2275    0.0000 </r>
       <r>   33.1532    0.0000 </r>
       <r>   34.1098    0.0000 </r>
       <r>   34.1098    0.0000 </r>
       <r>   34.6750    0.0000 </r>
       <r>   35.1028    0.0000 </r>
       <r>   36.0034    0.0000 </r>
       <r>   36.1456    0.0000 </r>
       <r>   36.1456    0.0000 </r>
      </set>
      <set comment="kpoint 35">
       <r>    2.4694    1.0000 </r>
       <r>    2.5913    1.0000 </r>
       <r>    2.5913    1.0000 </r>
       <r>    2.5913    1.0000 </r>
       <r>    4.5274    1.0000 </r>
       <r>    4.5274    1.0000 </r>
       <r>    4.5274    1.0000 </r>
       <r>    4.5811    1.0000 </r>
       <r>    4.5811    1.0000 </r>
       <r>    4.6041    1.0000 </r>
       <r>    4.6041    1.0000 </r>
       <r>    4.6041    1.0000 </r>
       <r>    5.5922    1.0000 </r>
       <r>    5.5922    1.0000 </r>
       <r>    5.5922    1.0000 </r>
       <r>    5.9628    1.0000 </r>
       <r>    5.9628    1.0000 </r>
       <r>    5.9996    1.0000 </r>
       <r>    5.9996    1.0000 </r>
       <r>    5.9996    1.0000 </r>
       <r>    6.1043    1.0000 </r>
       <r>    7.0464    1.0000 </r>
       <r>    7.0464    1.0000 </r>
       <r>    7.0464    1.0000 </r>
       <r>   11.5388    0.0000 </r>
       <r>   11.5388    0.0000 </r>
       <r>   11.5388    0.0000 </r>
       <r>   12.2120    0.0000 </r>
       <r>   27.8351    0.0000 </r>
       <r>   27.8351    0.0000 </r>
       <r>   27.8351    0.0000 </r>
       <r>   28.8437    0.0000 </r>
       <r>   28.8694    0.0000 </r>
       <r>   28.8694    0.0000 </r>
       <r>   28.8694    0.0000 </r>
       <r>   29.1502    0.0000 </r>
       <r>   29.1502    0.0000 </r>
       <r>   29.1502    0.0000 </r>
       <r>   29.7912    0.0000 </r>
       <r>   29.7912    0.0000 </r>
       <r>   32.9659    0.0000 </r>
       <r>   32.9659    0.0000 </r>
       <r>   33.7912    0.0000 </r>
       <r>   33.7912    0.0000 </r>
       <r>   33.7912    0.0000 </r>
       <r>   34.0352    0.0000 </r>
       <r>   34.0352    0.0000 </r>
       <r>   34.0352    0.0000 </r>
      </set>
     </set>
    </set>
   </array>
  </eigenvalues>
  <separator name="orbital magnetization" >
   <v name="MAGDIPOLOUT">      0.00000000      0.00000000      0.00000000</v>
  </separator>
  <dos>
   <i name="efermi">      7.60525660 </i>
   <total>
    <array>
     <dimension dim="1">gridpoints</dimension>
     <dimension dim="2">spin</dimension>
     <field>energy</field>
     <field>total</field>
     <field>integrated</field>
     <set>
      <set comment="spin 1">
       <r>    -4.0354     0.0000     0.0000 </r>
       <r>    -3.8676     0.0000     0.0000 </r>
       <r>    -3.6998     0.0000     0.0000 </r>
       <r>    -3.5321     0.0000     0.0000 </r>
       <r>    -3.3643     0.0000     0.0000 </r>
       <r>    -3.1965     0.0000     0.0000 </r>
       <r>    -3.0288     0.0000     0.0000 </r>
       <r>    -2.8610     0.0000     0.0000 </r>
       <r>    -2.6932    -0.0000    -0.0000 </r>
       <r>    -2.5255    -0.0000    -0.0000 </r>
       <r>    -2.3577    -0.0000    -0.0000 </r>
       <r>    -2.1899    -0.0000    -0.0000 </r>
       <r>    -2.0222    -0.0000    -0.0000 </r>
       <r>    -1.8544    -0.0006    -0.0001 </r>
       <r>    -1.6866     0.0143     0.0023 </r>
       <r>    -1.5189     0.1061     0.0201 </r>
       <r>    -1.3511     0.2106     0.0554 </r>
       <r>    -1.1834     0.1340     0.0779 </r>
       <r>    -1.0156     0.2334     0.1171 </r>
       <r>    -0.8478     0.4872     0.1988 </r>
       <r>    -0.6801     0.1384     0.2220 </r>
       <r>    -0.5123     0.1940     0.2546 </r>
       <r>    -0.3445     0.5467     0.3463 </r>
       <r>    -0.1768     0.4836     0.4274 </r>
       <r>    -0.0090     0.3351     0.4836 </r>
       <r>     0.1588     0.3739     0.5464 </r>
       <r>     0.3265     0.8488     0.6888 </r>
       <r>     0.4943     0.0125     0.6909 </r>
       <r>     0.6621     0.6959     0.8076 </r>
       <r>     0.8298     0.8013     0.9420 </r>
       <r>     0.9976     0.4920     1.0246 </r>
       <r>     1.1654     1.0859     1.2067 </r>
       <r>     1.3331     0.3548     1.2663 </r>
       <r>     1.5009     0.3664     1.3277 </r>
       <r>     1.6687     1.3078     1.5472 </r>
       <r>     1.8364     1.1322     1.7371 </r>
       <r>     2.0042     0.9947     1.9040 </r>
       <r>     2.1719     1.0733     2.0840 </r>
       <r>     2.3397     1.1750     2.2811 </r>
       <r>     2.5075     2.7243     2.7382 </r>
       <r>     2.6752     2.3958     3.1401 </r>
       <r>     2.8430     4.0376     3.8175 </r>
       <r>     3.0108     5.0018     4.6566 </r>
       <r>     3.1785     4.9818     5.4924 </r>
       <r>     3.3463     7.0223     6.6705 </r>
       <r>     3.5141     8.7571     8.1396 </r>
       <r>     3.6818     9.5251     9.7376 </r>
       <r>     3.8496     8.0658    11.0907 </r>
       <r>     4.0174     8.3832    12.4972 </r>
       <r>     4.1851     8.8591    13.9834 </r>
       <r>     4.3529    13.5170    16.2511 </r>
       <r>     4.5207    11.9031    18.2480 </r>
       <r>     4.6884    16.9417    21.0902 </r>
       <r>     4.8562    16.8066    23.9098 </r>
       <r>     5.0240    11.0685    25.7667 </r>
       <r>     5.1917    11.2332    27.6513 </r>
       <r>     5.3595    13.7857    29.9640 </r>
       <r>     5.5272    14.3029    32.3635 </r>
       <r>     5.6950    12.7074    34.4954 </r>
       <r>     5.8628    13.9476    36.8353 </r>
       <r>     6.0305    21.4086    40.4269 </r>
       <r>     6.1983     9.3249    41.9913 </r>
       <r>     6.3661     2.1019    42.3439 </r>
       <r>     6.5338     0.4821    42.4248 </r>
       <r>     6.7016     1.8135    42.7291 </r>
       <r>     6.8694     1.8086    43.0325 </r>
       <r>     7.0371     0.9750    43.1961 </r>
       <r>     7.2049     0.8845    43.3445 </r>
       <r>     7.3727     2.5567    43.7734 </r>
       <r>     7.5404     0.7724    43.9030 </r>
       <r>     7.7082     1.1084    44.0889 </r>
       <r>     7.8760     1.0432    44.2640 </r>
       <r>     8.0437     0.4718    44.3431 </r>
       <r>     8.2115     1.4209    44.5815 </r>
       <r>     8.3793     1.2560    44.7922 </r>
       <r>     8.5470     2.1566    45.1540 </r>
       <r>     8.7148     0.8832    45.3022 </r>
       <r>     8.8825     0.2443    45.3432 </r>
       <r>     9.0503     1.1772    45.5406 </r>
       <r>     9.2181     0.3010    45.5911 </r>
       <r>     9.3858     1.1850    45.7899 </r>
       <r>     9.5536     1.8139    46.0942 </r>
       <r>     9.7214     0.8886    46.2433 </r>
       <r>     9.8891     0.8408    46.3844 </r>
       <r>    10.0569     1.3666    46.6137 </r>
       <r>    10.2247     0.6251    46.7185 </r>
       <r>    10.3924     0.2200    46.7554 </r>
       <r>    10.5602     0.5067    46.8404 </r>
       <r>    10.7280     0.6827    46.9550 </r>
       <r>    10.8957     1.2735    47.1686 </r>
       <r>    11.0635     0.1986    47.2019 </r>
       <r>    11.2313     1.6744    47.4828 </r>
       <r>    11.3990     0.1289    47.5045 </r>
       <r>    11.5668     0.4822    47.5854 </r>
       <r>    11.7346     1.1375    47.7762 </r>
       <r>    11.9023     1.5466    48.0357 </r>
       <r>    12.0701     1.2654    48.2480 </r>
       <r>    12.2378     0.5779    48.3449 </r>
       <r>    12.4056     1.3137    48.5653 </r>
       <r>    12.5734     0.7664    48.6939 </r>
       <r>    12.7411     1.8153    48.9984 </r>
       <r>    12.9089     1.1197    49.1863 </r>
       <r>    13.0767     0.9674    49.3486 </r>
       <r>    13.2444     0.3339    49.4046 </r>
       <r>    13.4122     1.8284    49.7113 </r>
       <r>    13.5800     1.5958    49.9790 </r>
       <r>    13.7477     0.3321    50.0348 </r>
       <r>    13.9155     1.6844    50.3174 </r>
       <r>    14.0833     0.2293    50.3558 </r>
       <r>    14.2510     0.7594    50.4832 </r>
       <r>    14.4188     0.3562    50.5430 </r>
       <r>    14.5866     1.0017    50.7110 </r>
       <r>    14.7543     1.2596    50.9223 </r>
       <r>    14.9221     2.1440    51.2820 </r>
       <r>    15.0899     1.1758    51.4793 </r>
       <r>    15.2576     0.8369    51.6197 </r>
       <r>    15.4254     1.6348    51.8940 </r>
       <r>    15.5931     0.4975    51.9774 </r>
       <r>    15.7609     1.1254    52.1662 </r>
       <r>    15.9287     0.7037    52.2843 </r>
       <r>    16.0964     1.4452    52.5267 </r>
       <r>    16.2642     1.8388    52.8352 </r>
       <r>    16.4320     1.8809    53.1508 </r>
       <r>    16.5997     1.5599    53.4125 </r>
       <r>    16.7675     1.5849    53.6784 </r>
       <r>    16.9353     1.6017    53.9471 </r>
       <r>    17.1030     1.7045    54.2330 </r>
       <r>    17.2708     1.9123    54.5539 </r>
       <r>    17.4386     0.2025    54.5878 </r>
       <r>    17.6063     1.2823    54.8029 </r>
       <r>    17.7741     1.1275    54.9921 </r>
       <r>    17.9419     1.9133    55.3131 </r>
       <r>    18.1096     1.1031    55.4981 </r>
       <r>    18.2774     1.0885    55.6808 </r>
       <r>    18.4452     1.2932    55.8977 </r>
       <r>    18.6129     2.7573    56.3603 </r>
       <r>    18.7807     0.9323    56.5167 </r>
       <r>    18.9484     2.8377    56.9928 </r>
       <r>    19.1162     1.9905    57.3267 </r>
       <r>    19.2840     0.2755    57.3729 </r>
       <r>    19.4517     0.8696    57.5188 </r>
       <r>    19.6195     1.3427    57.7441 </r>
       <r>    19.7873     2.9449    58.2381 </r>
       <r>    19.9550     1.7708    58.5352 </r>
       <r>    20.1228     0.7939    58.6684 </r>
       <r>    20.2906     2.1134    59.0230 </r>
       <r>    20.4583     2.1719    59.3873 </r>
       <r>    20.6261     0.9897    59.5534 </r>
       <r>    20.7939     1.6882    59.8366 </r>
       <r>    20.9616     1.7070    60.1229 </r>
       <r>    21.1294     1.4035    60.3584 </r>
       <r>    21.2972     1.3498    60.5849 </r>
       <r>    21.4649     2.2842    60.9681 </r>
       <r>    21.6327     1.7274    61.2579 </r>
       <r>    21.8005     1.6818    61.5400 </r>
       <r>    21.9682     2.2464    61.9169 </r>
       <r>    22.1360     1.5509    62.1771 </r>
       <r>    22.3037     1.4839    62.4260 </r>
       <r>    22.4715     2.6286    62.8670 </r>
       <r>    22.6393     1.6928    63.1510 </r>
       <r>    22.8070     1.4433    63.3931 </r>
       <r>    22.9748     1.2516    63.6031 </r>
       <r>    23.1426     0.7045    63.7213 </r>
       <r>    23.3103     1.8242    64.0273 </r>
       <r>    23.4781     2.3084    64.4146 </r>
       <r>    23.6459     1.0737    64.5947 </r>
       <r>    23.8136     1.8160    64.8994 </r>
       <r>    23.9814     0.0736    64.9117 </r>
       <r>    24.1492     0.9835    65.0768 </r>
       <r>    24.3169     2.0663    65.4234 </r>
       <r>    24.4847     1.2960    65.6408 </r>
       <r>    24.6525     1.6179    65.9122 </r>
       <r>    24.8202     2.0847    66.2620 </r>
       <r>    24.9880     0.7762    66.3922 </r>
       <r>    25.1558     0.9546    66.5524 </r>
       <r>    25.3235     1.2555    66.7630 </r>
       <r>    25.4913     2.0217    67.1022 </r>
       <r>    25.6590     0.5470    67.1939 </r>
       <r>    25.8268     1.2306    67.4004 </r>
       <r>    25.9946     1.5218    67.6557 </r>
       <r>    26.1623     1.7518    67.9496 </r>
       <r>    26.3301     1.0303    68.1224 </r>
       <r>    26.4979     2.1163    68.4775 </r>
       <r>    26.6656     1.4162    68.7151 </r>
       <r>    26.8334     0.7122    68.8345 </r>
       <r>    27.0012     2.8018    69.3046 </r>
       <r>    27.1689     1.0384    69.4788 </r>
       <r>    27.3367     1.0753    69.6592 </r>
       <r>    27.5045     2.2816    70.0420 </r>
       <r>    27.6722     2.0723    70.3896 </r>
       <r>    27.8400     1.3309    70.6129 </r>
       <r>    28.0078     2.8396    71.0893 </r>
       <r>    28.1755     1.3056    71.3083 </r>
       <r>    28.3433     0.8753    71.4552 </r>
       <r>    28.5111     2.5479    71.8826 </r>
       <r>    28.6788     2.9010    72.3693 </r>
       <r>    28.8466     2.4878    72.7867 </r>
       <r>    29.0143     1.8945    73.1045 </r>
       <r>    29.1821     3.1151    73.6271 </r>
       <r>    29.3499     1.6066    73.8966 </r>
       <r>    29.5176     1.7061    74.1829 </r>
       <r>    29.6854     3.0817    74.6999 </r>
       <r>    29.8532     2.6090    75.1376 </r>
       <r>    30.0209     1.9008    75.4565 </r>
       <r>    30.1887     2.6136    75.8949 </r>
       <r>    30.3565     2.5272    76.3189 </r>
       <r>    30.5242     1.3238    76.5410 </r>
       <r>    30.6920     2.1897    76.9083 </r>
       <r>    30.8598     1.9043    77.2278 </r>
       <r>    31.0275     2.4274    77.6350 </r>
       <r>    31.1953     2.8401    78.1115 </r>
       <r>    31.3631     1.0645    78.2901 </r>
       <r>    31.5308     1.7819    78.5890 </r>
       <r>    31.6986     0.3576    78.6490 </r>
       <r>    31.8664     2.0560    78.9940 </r>
       <r>    32.0341     2.2809    79.3766 </r>
       <r>    32.2019     0.7655    79.5050 </r>
       <r>    32.3696     0.9851    79.6703 </r>
       <r>    32.5374     1.1467    79.8627 </r>
       <r>    32.7052     1.9673    80.1927 </r>
       <r>    32.8729     2.0974    80.5446 </r>
       <r>    33.0407     2.9400    81.0378 </r>
       <r>    33.2085     1.0030    81.2061 </r>
       <r>    33.3762     0.6017    81.3070 </r>
       <r>    33.5440     1.5528    81.5676 </r>
       <r>    33.7118     0.7379    81.6914 </r>
       <r>    33.8795     1.5584    81.9528 </r>
       <r>    34.0473     1.8794    82.2681 </r>
       <r>    34.2151     2.3013    82.6542 </r>
       <r>    34.3828     0.6388    82.7613 </r>
       <r>    34.5506     1.4714    83.0082 </r>
       <r>    34.7184     2.2231    83.3811 </r>
       <r>    34.8861     3.0229    83.8883 </r>
       <r>    35.0539     1.9009    84.2072 </r>
       <r>    35.2217     2.5948    84.6425 </r>
       <r>    35.3894     2.0277    84.9827 </r>
       <r>    35.5572     4.0056    85.6547 </r>
       <r>    35.7249     1.4591    85.8995 </r>
       <r>    35.8927     1.2953    86.1168 </r>
       <r>    36.0605     1.1087    86.3028 </r>
       <r>    36.2282     1.9983    86.6380 </r>
       <r>    36.3960     3.1544    87.1672 </r>
       <r>    36.5638     3.0434    87.6778 </r>
       <r>    36.7315     1.6364    87.9523 </r>
       <r>    36.8993     1.7246    88.2416 </r>
       <r>    37.0671     0.5502    88.3339 </r>
       <r>    37.2348     1.5121    88.5876 </r>
       <r>    37.4026     0.8387    88.7283 </r>
       <r>    37.5704     0.9736    88.8917 </r>
       <r>    37.7381     1.5783    89.1564 </r>
       <r>    37.9059     2.2453    89.5331 </r>
       <r>    38.0737     3.7871    90.1685 </r>
       <r>    38.2414     3.0590    90.6817 </r>
       <r>    38.4092     1.4847    90.9307 </r>
       <r>    38.5770     2.4956    91.3494 </r>
       <r>    38.7447     1.8020    91.6517 </r>
       <r>    38.9125     0.8263    91.7904 </r>
       <r>    39.0802     0.8261    91.9290 </r>
       <r>    39.2480     2.7539    92.3910 </r>
       <r>    39.4158     2.9675    92.8888 </r>
       <r>    39.5835     2.4674    93.3027 </r>
       <r>    39.7513     1.8411    93.6116 </r>
       <r>    39.9191     2.6981    94.0643 </r>
       <r>    40.0868     1.0256    94.2363 </r>
       <r>    40.2546     0.1355    94.2591 </r>
       <r>    40.4224     1.8818    94.5748 </r>
       <r>    40.5901     1.4437    94.8170 </r>
       <r>    40.7579     0.8609    94.9614 </r>
       <r>    40.9257     1.1973    95.1623 </r>
       <r>    41.0934     1.1569    95.3563 </r>
       <r>    41.2612     0.4471    95.4313 </r>
       <r>    41.4290     0.2926    95.4804 </r>
       <r>    41.5967     0.8397    95.6213 </r>
       <r>    41.7645     0.1619    95.6485 </r>
       <r>    41.9323     0.4281    95.7203 </r>
       <r>    42.1000     0.7667    95.8489 </r>
       <r>    42.2678    -0.0047    95.8481 </r>
       <r>    42.4355     0.1482    95.8730 </r>
       <r>    42.6033     0.6358    95.9796 </r>
       <r>    42.7711     0.1009    95.9966 </r>
       <r>    42.9388     0.0044    95.9973 </r>
       <r>    43.1066    -0.0002    95.9973 </r>
       <r>    43.2744    -0.0000    95.9973 </r>
       <r>    43.4421    -0.0000    95.9973 </r>
       <r>    43.6099    -0.0000    95.9973 </r>
       <r>    43.7777    -0.0000    95.9972 </r>
       <r>    43.9454     0.0013    95.9975 </r>
       <r>    44.1132     0.0156    96.0001 </r>
       <r>    44.2810    -0.0005    96.0000 </r>
       <r>    44.4487    -0.0000    96.0000 </r>
       <r>    44.6165    -0.0000    96.0000 </r>
       <r>    44.7843    -0.0000    96.0000 </r>
       <r>    44.9520     0.0000    96.0000 </r>
       <r>    45.1198     0.0000    96.0000 </r>
       <r>    45.2876     0.0000    96.0000 </r>
       <r>    45.4553     0.0000    96.0000 </r>
       <r>    45.6231     0.0000    96.0000 </r>
       <r>    45.7908     0.0000    96.0000 </r>
       <r>    45.9586     0.0000    96.0000 </r>
       <r>    46.1264     0.0000    96.0000 </r>
       <r>    46.2941     0.0000    96.0000 </r>
      </set>
     </set>
    </array>
   </total>
  </dos>
 </calculation>
 <structure name="finalpos" >
  <crystal>
   <varray name="basis" >
    <v>       3.61000000       0.00000000       0.00000000 </v>
    <v>       0.00000000       3.61000000       0.00000000 </v>
    <v>       0.00000000       0.00000000       3.61000000 </v>
   </varray>
   <i name="volume">     47.04588100 </i>
   <varray name="rec_basis" >
    <v>       0.27700831       0.00000000       0.00000000 </v>
    <v>       0.00000000       0.27700831       0.00000000 </v>
    <v>       0.00000000       0.00000000       0.27700831 </v>
   </varray>
  </crystal>
  <varray name="positions" >
   <v>       0.00000000       0.00000000       0.00000000 </v>
   <v>       0.00000000       0.50000000       0.50000000 </v>
   <v>       0.50000000       0.00000000       0.50000000 </v>
   <v>       0.50000000       0.50000000       0.00000000 </v>
  </varray>
 </structure>
</modeling>
