----- GAMESS execution script 'rungms' -----
This job is running on host crcfe01.crc.nd.edu
under operating system Linux at Thu Oct 17 23:46:35 EDT 2019
Available scratch disk space (Kbyte units) at beginning of the job is
Filesystem      1K-blocks  Used  Available Use% Mounted on
AFS            2147483647     0 2147483647   0% /afs
GAMESS temporary binary files will be written to /afs/crc.nd.edu/user/c/cdrisko
GAMESS supplementary output files will be written to /afs/crc.nd.edu/user/c/cdrisko/scr
Copying input file TS_opt.inp to your run's scratch directory...

 Distributed Data Interface kickoff program.
 Initiating 1 compute processes on 1 nodes to run the following command:
 /afs/crc.nd.edu/x86_64_linux/g/gamess/nov-2017/gamess/gamess.00.x TS_opt 

          ******************************************************
          *         GAMESS VERSION = 11 NOV 2017 (R3)         *
          *             FROM IOWA STATE UNIVERSITY             *
          * M.W.SCHMIDT, K.K.BALDRIDGE, J.A.BOATZ, S.T.ELBERT, *
          *   M.S.GORDON, J.H.JENSEN, S.KOSEKI, N.MATSUNAGA,   *
          *          K.A.NGUYEN, S.J.SU, T.L.WINDUS,           *
          *       TOGETHER WITH M.DUPUIS, J.A.MONTGOMERY       *
          *         J.COMPUT.CHEM.  14, 1347-1363(1993)        *
          **************** 64 BIT INTEL VERSION ****************

  SINCE 1993, STUDENTS AND POSTDOCS WORKING AT IOWA STATE UNIVERSITY
  AND ALSO IN THEIR VARIOUS JOBS AFTER LEAVING ISU HAVE MADE IMPORTANT
  CONTRIBUTIONS TO THE CODE:
     IVANA ADAMOVIC, CHRISTINE AIKENS, YURI ALEXEEV, POOJA ARORA,
     ANDREY ASADCHEV, ROB BELL, PRADIPTA BANDYOPADHYAY, JONATHAN BENTZ,
     BRETT BODE, KURT BRORSEN, CALEB CARLIN, GALINA CHABAN, WEI CHEN,
     CHEOL HO CHOI, PAUL DAY, ALBERT DEFUSCO, NUWAN DESILVA, TIM DUDLEY,
     DMITRI FEDOROV, ALEX FINDLATER, GRAHAM FLETCHER, MARK FREITAG,
     KURT GLAESEMANN, ANASTASIA GUININA,
     DAN KEMP, GRANT MERRILL, NORIYUKI MINEZAWA, JONATHAN MULLIN,
     TAKESHI NAGATA, SEAN NEDD, HEATHER NETZLOFF, BOSILJKA NJEGIC, RYAN OLSON,
     MIKE PAK, BUU PHAM,
     SPENCER PRUITT, LUKE ROSKOP, JIM SHOEMAKER, LYUDMILA SLIPCHENKO,
     TONY SMITH, SAROM SOK LEANG, JIE SONG, TETSUYA TAKETSUGU, SIMON WEBB,
     PENG XU, SOOHAENG YOO, FEDERICO ZAHARIEV

  ADDITIONAL CODE HAS BEEN PROVIDED BY COLLABORATORS IN OTHER GROUPS:
     IOWA STATE UNIVERSITY:
          JOE IVANIC, AARON WEST, LAIMUTIS BYTAUTAS, KLAUS RUEDENBERG
     UNIVERSITY OF TOKYO: KIMIHIKO HIRAO, TAKAHITO NAKAJIMA,
          TAKAO TSUNEDA, MUNEAKI KAMIYA, SUSUMU YANAGISAWA,
          KIYOSHI YAGI, MAHITO CHIBA, SEIKEN TOKURA, NAOAKI KAWAKAMI
     UNIVERSITY OF AARHUS: FRANK JENSEN
     UNIVERSITY OF IOWA: VISVALDAS KAIRYS, HUI LI
     NATIONAL INST. OF STANDARDS AND TECHNOLOGY: WALT STEVENS, DAVID GARMER
     UNIVERSITY OF PISA: BENEDETTA MENNUCCI, JACOPO TOMASI
     UNIVERSITY OF MEMPHIS: HENRY KURTZ, PRAKASHAN KORAMBATH
     UNIVERSITY OF ALBERTA: TOBY ZENG, MARIUSZ KLOBUKOWSKI
     UNIVERSITY OF NEW ENGLAND: MARK SPACKMAN
     MIE UNIVERSITY: HIROAKI UMEDA
     NAT. INST. OF ADVANCED INDUSTRIAL SCIENCE AND TECHNOLOGY: KAZUO KITAURA
     MICHIGAN STATE UNIVERSITY:
          KAROL KOWALSKI, MARTA WLOCH, JEFFREY GOUR, JESSE LUTZ,
          WEI LI, PIOTR PIECUCH
     UNIVERSITY OF SILESIA: MONIKA MUSIAL, STANISLAW KUCHARSKI
     FACULTES UNIVERSITAIRES NOTRE-DAME DE LA PAIX:
          OLIVIER QUINET, BENOIT CHAMPAGNE
     UNIVERSITY OF CALIFORNIA - SANTA BARBARA: BERNARD KIRTMAN
     INSTITUTE FOR MOLECULAR SCIENCE:
          KAZUYA ISHIMURA, MICHIO KATOUDA, AND SHIGERU NAGASE
     UNIVERSITY OF NOTRE DAME: ANNA POMOGAEVA, DAN CHIPMAN
     KYUSHU UNIVERSITY:
          HARUYUKI NAKANO,
          FENG LONG GU, JACEK KORCHOWIEC, MARCIN MAKOWSKI, AND YURIKO AOKI,
          HIROTOSHI MORI AND EISAKU MIYOSHI
     PENNSYLVANIA STATE UNIVERSITY:
          TZVETELIN IORDANOV, CHET SWALINA, JONATHAN SKONE,
          SHARON HAMMES-SCHIFFER
     WASEDA UNIVERSITY:
          MASATO KOBAYASHI, TOMOKO AKAMA, TSUGUKI TOUMA,
          TAKESHI YOSHIKAWA, YASUHIRO IKABATA, JUNJI SEINO,
          YUYA NAKAJIMA, HIROMI NAKAI
     NANJING UNIVERSITY: SHUHUA LI
     UNIVERSITY OF NEBRASKA:
          PEIFENG SU, DEJUN SI, NANDUN THELLAMUREGE, YALI WANG, HUI LI
     UNIVERSITY OF ZURICH: ROBERTO PEVERATI, KIM BALDRIDGE
     N. COPERNICUS UNIVERSITY AND JACKSON STATE UNIVERSITY:
          MARIA BARYSZ
     UNIVERSITY OF COPENHAGEN: Jimmy Kromann, CASPER STEINMANN
     TOKYO INSTITUTE OF TECHNOLOGY: HIROYA NAKATA
     NAGOYA UNIVERSITY: YOSHIO NISHIMOTO, STEPHAN IRLE
     MOSCOW STATE UNIVERSITY: VLADIMIR MIRONOV

 EXECUTION OF GAMESS BEGUN Thu Oct 17 23:46:35 2019

            ECHO OF THE FIRST FEW INPUT CARDS -
 INPUT CARD> $CONTRL SCFTYP= RHF RUNTYP=SADPOINT DFTTYP=B3LYP                               
 INPUT CARD>       ICHARG=0 MULT=1 COORD=CART $END                                          
 INPUT CARD> $BASIS GBASIS=N31 NGAUSS=6 NDFUNC=1 $END                                       
 INPUT CARD> $STATPT HESS=CALC NSTEP=100 $END                                               
 INPUT CARD> $FORCE METHOD=SEMINUM $END                                                     
 INPUT CARD> $DATA                                                                          
 INPUT CARD>C2H4O                                                                           
 INPUT CARD>C1 1                                                                            
 INPUT CARD>C 6 0.00000000 0.00000000 0.00000000                                            
 INPUT CARD>C 6 -1.29085602 0.54193240 0.00001049                                           
 INPUT CARD>O 8 -2.36184357 -0.14062579 -0.00000470                                         
 INPUT CARD>H 1 -1.32975640 1.65583381 0.00003173                                           
 INPUT CARD>H 1 -1.01036981 -1.08131030 -0.24478743                                         
 INPUT CARD>F 9 0.60846530 0.48702538 -0.77403214                                           
 INPUT CARD>H 1 0.49018242 0.20473425 0.96140699                                            
 INPUT CARD> $END                                                                           
    1000000 WORDS OF MEMORY AVAILABLE


                    * * * WARNING * * *
 OLD KEYWORD COORD=CART SELECTED, AUTOMATICALLY CHANGED TO COORD=PRINAXIS.
 YOUR MOLECULE'S COORDINATES WILL BE CHANGED TO PRINCIPAL AXES BY
   A) TRANSLATION TO THE CENTER OF MASS, THEN
   B) ROTATION TO HAVE A DIAGONAL MOMENT OF INERTIA TENSOR.

 HOWEVER, NOTHING ELSE IN YOUR INPUT WILL BE ROTATED IN THE SAME WAY,
 SO IF YOU HAVE A $VEC, $VIB, $GRAD, $HESS, EFP PARTICLE COORDINATES,
 OR ANYTHING ELSE THAT DEPENDS ON THE INITIAL ORIENTATION, THAT DATA
 WILL NOT BE USED CORRECTLY IN THIS RUN.

 THE PURPOSE OF COORD=PRINAXIS IS TO BE USED ONCE, ONLY AT THE VERY
 BEGINNING OF A SERIES OF COMPUTATIONS, PERHAPS TO FIND THE SYMMETRY
 UNIQUE ATOMS FROM AN ARBITRARY INITIAL ORIENTATION.

 AFTER THE FIRST RUN, YOU SHOULD USE ONLY COORD=UNIQUE, TO ENSURE THAT
 THE COORDINATES WHICH YOU READ IN ARE THE COORDINATES THAT ARE USED.


     BASIS OPTIONS
     -------------
     GBASIS=N31          IGAUSS=       6      POLAR=POPN31  
     NDFUNC=       1     NFFUNC=       0     DIFFSP=       F
     NPFUNC=       0      DIFFS=       F     BASNAM=        


     RUN TITLE
     ---------
 C2H4O                                                                           

 THE POINT GROUP OF THE MOLECULE IS C1      
 THE ORDER OF THE PRINCIPAL AXIS IS     1

 THE MOMENTS OF INERTIA ARE (AMU-ANGSTROM**2)
 IXX=    12.650   IYY=    99.249   IZZ=   102.006

 ATOM      ATOMIC                      COORDINATES (BOHR)
           CHARGE         X                   Y                   Z
 C           6.0    -1.1336699474       -0.8140930140       -0.4313143991
 C           6.0     1.0829998070        0.6300602247       -0.4404047451
 O           8.0     3.2214107867       -0.1435085582        0.3267715697
 H           1.0     0.8596482110        2.5850421113       -1.1917075520
 H           1.0     0.9017693049       -2.1531738799        1.0173899161
 F           9.0    -2.6833472512        0.2802635974        0.4110333334
 H           1.0    -1.7007219633       -1.2462556340       -2.3807170164

          INTERNUCLEAR DISTANCES (ANGS.)
          ------------------------------

                1 C          2 C          3 O          4 H          5 H     

   1 C       0.0000000    1.4000000 *  2.3660263 *  2.1236849 *  1.5000000 *
   2 C       1.4000000 *  0.0000000    1.2700000 *  1.1145805 *  1.6653875 *
   3 O       2.3660263 *  1.2700000 *  0.0000000    2.0718279 *  1.6647184 *
   4 H       2.1236849 *  1.1145805 *  2.0718279 *  0.0000000    2.7665686 *
   5 H       1.5000000 *  1.6653875 *  1.6647184 *  2.7665686 *  0.0000000  
   6 F       1.0984305 *  2.0517257 *  3.1330176    2.3920684 *  2.3152546 *
   7 H       1.0984072 *  2.0518489 *  3.0294617    2.5183545 *  2.3152694 *

                6 F          7 H     

   1 C       1.0984305 *  1.0984072 *
   2 C       2.0517257 *  2.0518489 *
   3 O       3.1330176    3.0294617  
   4 H       2.3920684 *  2.5183545 *
   5 H       2.3152546 *  2.3152694 *
   6 F       0.0000000    1.7622225 *
   7 H       1.7622225 *  0.0000000  

  * ... LESS THAN  3.000


     ATOMIC BASIS SET
     ----------------
 THE CONTRACTED PRIMITIVE FUNCTIONS HAVE BEEN UNNORMALIZED
 THE CONTRACTED BASIS FUNCTIONS ARE NOW NORMALIZED TO UNITY

  SHELL TYPE  PRIMITIVE        EXPONENT          CONTRACTION COEFFICIENT(S)

 C         

      1   S       1          3047.5248800    0.001834737132
      1   S       2           457.3695180    0.014037322813
      1   S       3           103.9486850    0.068842622264
      1   S       4            29.2101553    0.232184443216
      1   S       5             9.2866630    0.467941348435
      1   S       6             3.1639270    0.362311985337

      2   L       7             7.8682723   -0.119332419775    0.068999066591
      2   L       8             1.8812885   -0.160854151696    0.316423960957
      2   L       9             0.5442493    1.143456437840    0.744308290898

      3   L      10             0.1687145    1.000000000000    1.000000000000

      4   D      11             0.8000000    1.000000000000

 C         

      5   S      12          3047.5248800    0.001834737132
      5   S      13           457.3695180    0.014037322813
      5   S      14           103.9486850    0.068842622264
      5   S      15            29.2101553    0.232184443216
      5   S      16             9.2866630    0.467941348435
      5   S      17             3.1639270    0.362311985337

      6   L      18             7.8682723   -0.119332419775    0.068999066591
      6   L      19             1.8812885   -0.160854151696    0.316423960957
      6   L      20             0.5442493    1.143456437840    0.744308290898

      7   L      21             0.1687145    1.000000000000    1.000000000000

      8   D      22             0.8000000    1.000000000000

 O         

      9   S      23          5484.6716600    0.001831074430
      9   S      24           825.2349460    0.013950172200
      9   S      25           188.0469580    0.068445078098
      9   S      26            52.9645000    0.232714335992
      9   S      27            16.8975704    0.470192897984
      9   S      28             5.7996353    0.358520852987

     10   L      29            15.5396162   -0.110777549525    0.070874268231
     10   L      30             3.5999336   -0.148026262701    0.339752839147
     10   L      31             1.0137618    1.130767015354    0.727158577316

     11   L      32             0.2700058    1.000000000000    1.000000000000

     12   D      33             0.8000000    1.000000000000

 H         

     13   S      34            18.7311370    0.033494604338
     13   S      35             2.8253944    0.234726953484
     13   S      36             0.6401217    0.813757326146

     14   S      37             0.1612778    1.000000000000

 H         

     15   S      38            18.7311370    0.033494604338
     15   S      39             2.8253944    0.234726953484
     15   S      40             0.6401217    0.813757326146

     16   S      41             0.1612778    1.000000000000

 F         

     17   S      42          7001.7130900    0.001819616901
     17   S      43          1051.3660900    0.013916079607
     17   S      44           239.2856900    0.068405324535
     17   S      45            67.3974453    0.233185760119
     17   S      46            21.5199573    0.471267439240
     17   S      47             7.4031013    0.356618546182

     18   L      48            20.8479528   -0.108506975109    0.071628724237
     18   L      49             4.8083083   -0.146451658147    0.345912102697
     18   L      50             1.3440699    1.128688581135    0.722469956367

     19   L      51             0.3581514    1.000000000000    1.000000000000

     20   D      52             0.8000000    1.000000000000

 H         

     21   S      53            18.7311370    0.033494604338
     21   S      54             2.8253944    0.234726953484
     21   S      55             0.6401217    0.813757326146

     22   S      56             0.1612778    1.000000000000

 TOTAL NUMBER OF BASIS SET SHELLS             =   22
 NUMBER OF CARTESIAN GAUSSIAN BASIS FUNCTIONS =   66
 NUMBER OF ELECTRONS                          =   32
 CHARGE OF MOLECULE                           =    0
 SPIN MULTIPLICITY                            =    1
 NUMBER OF OCCUPIED ORBITALS (ALPHA)          =   16
 NUMBER OF OCCUPIED ORBITALS (BETA )          =   16
 TOTAL NUMBER OF ATOMS                        =    7
 THE NUCLEAR REPULSION ENERGY IS      122.6162107383

     LEBEDEV GRID-BASED DFT OPTIONS
     ------------------------------
     DFTTYP=B3LYP   
     NRAD  =      96     NLEB  =     302
     NRAD0 =      24     NLEB0 =     110
     SWOFF =    5.00E-03 (PURE SCF -> DFT)
     SWITCH=    3.00E-04 (COARSE -> TIGHT GRID)
     THRESH=    0.00E+00 GTHRE=    1.00E+00

 GRIMME'S EMPIRICAL DISPERSION CORRECTION= F

     $CONTRL OPTIONS
     ---------------
 SCFTYP=RHF          RUNTYP=SADPOINT     EXETYP=RUN     
 MPLEVL=       0     CITYP =NONE         CCTYP =NONE         VBTYP =NONE    
 DFTTYP=B3LYP        TDDFT =NONE    
 MULT  =       1     ICHARG=       0     NZVAR =       0     COORD =PRINAXIS
 PP    =NONE         RELWFN=NONE         LOCAL =NONE         NUMGRD=       F
 ISPHER=      -1     NOSYM =       0     MAXIT =      30     UNITS =ANGS    
 PLTORB=       F     MOLPLT=       F     AIMPAC=       F     FRIEND=        
 NPRINT=       7     IREST =       0     GEOM  =INPUT   
 NORMF =       0     NORMP =       0     ITOL  =      20     ICUT  =       9
 INTTYP=BEST         GRDTYP=BEST         QMTTOL= 1.0E-06

     $SYSTEM OPTIONS
     ---------------
  REPLICATED MEMORY=     1000000 WORDS (ON EVERY NODE).
 DISTRIBUTED MEMDDI=           0 MILLION WORDS IN AGGREGATE,
 MEMDDI DISTRIBUTED OVER   1 PROCESSORS IS           0 WORDS/PROCESSOR.
 TOTAL MEMORY REQUESTED ON EACH PROCESSOR=     1000000 WORDS.
 TIMLIM=      525600.00 MINUTES, OR     365.0 DAYS.
 PARALL= F  BALTYP=  DLB     KDIAG=    0  COREFL= F
 MXSEQ2=     300 MXSEQ3=     150  mem10=         0

          ----------------
          PROPERTIES INPUT
          ----------------

     MOMENTS            FIELD           POTENTIAL          DENSITY
 IEMOM =       1   IEFLD =       0   IEPOT =       0   IEDEN =       0
 WHERE =COMASS     WHERE =NUCLEI     WHERE =NUCLEI     WHERE =NUCLEI  
 OUTPUT=BOTH       OUTPUT=BOTH       OUTPUT=BOTH       OUTPUT=BOTH    
 IEMINT=       0   IEFINT=       0                     IEDINT=       0
                                                       MORB  =       0
          EXTRAPOLATION IN EFFECT
          DIIS IN EFFECT
 ORBITAL PRINTING OPTION: NPREO=     1    66     2     1

     -------------------------------
     INTEGRAL TRANSFORMATION OPTIONS
     -------------------------------
     NWORD  =            0
     CUTOFF = 1.0E-09     MPTRAN =       0
     DIRTRF =       F     AOINTS =DUP     

          ----------------------
          INTEGRAL INPUT OPTIONS
          ----------------------
 NOPK  =       1 NORDER=       0 SCHWRZ=       T

     ------------------------------------------
     THE POINT GROUP IS C1 , NAXIS= 1, ORDER= 1
     ------------------------------------------

     DIMENSIONS OF THE SYMMETRY SUBSPACES ARE
 A   =   66

 ..... DONE SETTING UP THE RUN .....
 STEP CPU TIME =     0.00 TOTAL CPU TIME =          0.0 (      0.0 MIN)
 TOTAL WALL CLOCK TIME=          0.0 SECONDS, CPU UTILIZATION IS     0.00%


          -----------------------------
          STATIONARY POINT LOCATION RUN
          -----------------------------

 OBTAINING INITIAL HESSIAN, HESS=CALC    

     ---------------------------------
     HESSIAN MATRIX CONTROL PARAMETERS
     ---------------------------------
     METHOD=SEMINUM    NVIB  =       2   VIBSIZ= 0.01000
     RDHESS=       F   PURIFY=       F   PRTIFC=       F
     VIBANL=       F   DECOMP=       F   PROJCT=       F
     SCLFAC= 1.00000   PRTSCN=       F   NPRT  =       0
     PULCOR=       F   NPUN  =       0   REDOVB=       T
     HSSTYP=GENERAL 

               * * * EFFICIENCY NOTE * * *
 THIS CALCULATION CAN BE RUN WITH DIFFERENTIATION METHOD=ANALYTIC
 THIS MIGHT BE MORE ACCURATE AND/OR FASTER THAN YOUR CHOICE,
 BUT THE REQUESTED CALCULATION METHOD=SEMINUM  IS PROCEEDING.

1   ATOM  0
                                        -------------------
   COORD  0                             NUCLEAR COORDINATES
                                        -------------------
     VIB  0

                       ATOM             X              Y              Z

                 1  C               -1.133670      -0.814093      -0.431314
                 2  C                1.083000       0.630060      -0.440405
                 3  O                3.221411      -0.143509       0.326772
                 4  H                0.859648       2.585042      -1.191708
                 5  H                0.901769      -2.153174       1.017390
                 6  F               -2.683347       0.280264       0.411033
                 7  H               -1.700722      -1.246256      -2.380717

          ********************
          1 ELECTRON INTEGRALS
          ********************
 ...... END OF ONE-ELECTRON INTEGRALS ......
 STEP CPU TIME =     0.01 TOTAL CPU TIME =          0.0 (      0.0 MIN)
 TOTAL WALL CLOCK TIME=          0.0 SECONDS, CPU UTILIZATION IS    25.00%

          -------------
          GUESS OPTIONS
          -------------
          GUESS =HUCKEL            NORB  =       0          NORDER=       0
          MIX   =       F          PRTMO =       F          PUNMO =       F
          TOLZ  = 1.0E-08          TOLE  = 1.0E-05
          SYMDEN=       F          PURIFY=       F

 INITIAL GUESS ORBITALS GENERATED BY HUCKEL   ROUTINE.
 HUCKEL GUESS REQUIRES     39228 WORDS.

 SYMMETRIES FOR INITIAL GUESS ORBITALS FOLLOW.   BOTH SET(S).
    16 ORBITALS ARE OCCUPIED (    4 CORE ORBITALS).
     5=A        6=A        7=A        8=A        9=A       10=A       11=A   
    12=A       13=A       14=A       15=A       16=A       17=A       18=A   
    19=A       20=A       21=A       22=A       23=A       24=A       25=A   
    26=A   
 ...... END OF INITIAL ORBITAL SELECTION ......
 STEP CPU TIME =     0.01 TOTAL CPU TIME =          0.0 (      0.0 MIN)
 TOTAL WALL CLOCK TIME=          0.0 SECONDS, CPU UTILIZATION IS    40.00%

                    ----------------------
                    AO INTEGRAL TECHNOLOGY
                    ----------------------
     S,P,L SHELL ROTATED AXIS INTEGRALS, REPROGRAMMED BY
        KAZUYA ISHIMURA (IMS) AND JOSE SIERRA (SYNSTAR).
     S,P,D,L SHELL ROTATED AXIS INTEGRALS PROGRAMMED BY
        KAZUYA ISHIMURA (INSTITUTE FOR MOLECULAR SCIENCE).
     S,P,D,F,G SHELL TO TOTAL QUARTET ANGULAR MOMENTUM SUM 5,
        ERIC PROGRAM BY GRAHAM FLETCHER (ELORET AND NASA ADVANCED
        SUPERCOMPUTING DIVISION, AMES RESEARCH CENTER).
     S,P,D,F,G,L SHELL GENERAL RYS QUADRATURE PROGRAMMED BY
        MICHEL DUPUIS (PACIFIC NORTHWEST NATIONAL LABORATORY).

          --------------------
          2 ELECTRON INTEGRALS
          --------------------

 THE -PK- OPTION IS OFF, THE INTEGRALS ARE NOT IN SUPERMATRIX FORM.
 STORING   15000 INTEGRALS/RECORD ON DISK, USING 12 BYTES/INTEGRAL.
 TWO ELECTRON INTEGRAL EVALUATION REQUIRES   90649 WORDS OF MEMORY.
 SCHWARZ INEQUALITY OVERHEAD:      2205 INTEGRALS, T=        0.00
 II,JST,KST,LST =  1  1  1  1 NREC =         1 INTLOC =    1
 II,JST,KST,LST =  2  1  1  1 NREC =         1 INTLOC =    2
 II,JST,KST,LST =  3  1  1  1 NREC =         1 INTLOC =   34
 II,JST,KST,LST =  4  1  1  1 NREC =         1 INTLOC =  214
 II,JST,KST,LST =  5  1  1  1 NREC =         1 INTLOC = 1189
 II,JST,KST,LST =  6  1  1  1 NREC =         1 INTLOC = 3213
 II,JST,KST,LST =  7  1  1  1 NREC =         2 INTLOC =  961
 II,JST,KST,LST =  8  1  1  1 NREC =         3 INTLOC = 8210
 II,JST,KST,LST =  9  1  1  1 NREC =         7 INTLOC = 6129
 II,JST,KST,LST = 10  1  1  1 NREC =         8 INTLOC = 4935
 II,JST,KST,LST = 11  1  1  1 NREC =        13 INTLOC = 3892
 II,JST,KST,LST = 12  1  1  1 NREC =        20 INTLOC = 3507
 II,JST,KST,LST = 13  1  1  1 NREC =        35 INTLOC = 2789
 II,JST,KST,LST = 14  1  1  1 NREC =        38 INTLOC = 6200
 II,JST,KST,LST = 15  1  1  1 NREC =        41 INTLOC =13032
 II,JST,KST,LST = 16  1  1  1 NREC =        45 INTLOC = 8202
 II,JST,KST,LST = 17  1  1  1 NREC =        49 INTLOC = 6978
 II,JST,KST,LST = 18  1  1  1 NREC =        52 INTLOC = 7130
 II,JST,KST,LST = 19  1  1  1 NREC =        67 INTLOC =14420
 II,JST,KST,LST = 20  1  1  1 NREC =        90 INTLOC =13245
 II,JST,KST,LST = 21  1  1  1 NREC =       132 INTLOC = 4804
 II,JST,KST,LST = 22  1  1  1 NREC =       140 INTLOC =12570
 SCHWARZ INEQUALITY TEST SKIPPED        2266 INTEGRAL BLOCKS.
 TOTAL NUMBER OF NONZERO TWO-ELECTRON INTEGRALS =             2236750
        150 INTEGRAL RECORDS WERE STORED ON DISK FILE  8.
  ...... END OF TWO-ELECTRON INTEGRALS .....
 STEP CPU TIME =     0.19 TOTAL CPU TIME =          0.2 (      0.0 MIN)
 TOTAL WALL CLOCK TIME=          0.2 SECONDS, CPU UTILIZATION IS    84.00%

          --------------------------
             R-B3LYP SCF CALCULATION
          --------------------------

     NUCLEAR ENERGY =       122.6162107383
     MAXIT =   30     NPUNCH=    2
     EXTRAP=T  DAMP=F  SHIFT=F  RSTRCT=F  DIIS=T  DEM=F  SOSCF=F
         DENSITY MATRIX CONVERGENCE THRESHOLD=  1.00E-05
     COARSE -> FINE DFT GRID SWITCH THRESHOLD=  3.00E-04 (SWITCH IN $DFT)
                   HF -> DFT SWITCH THRESHOLD=  5.00E-03 (SWOFF IN $DFT)
     MEMORY REQUIRED FOR RHF ITERS=    319420 WORDS.

 DFT CODE IS SWITCHING FROM THE FINE GRID NRAD= 96,  NLEB=  302
                      TO THE COARSE GRID NRAD0= 24, NLEB0=  110

     EXCHANGE FUNCTIONAL   =B88&HFX   
     CORRELATION FUNCTIONAL=LYP88&VWN5
     DFT THRESHOLD         =.197E-07
     GRID CHANGE THRESHOLD =.300E-03
 FOR AN EULER-MACLAURIN QUADRATURE USING  96 RADIAL POINTS:
 SMALLEST GAUSSIAN PRIMITIVE EXPONENT=        0.1612777588 OF TYPE -S-
 ON ATOM NUMBER   4 HAS RADIAL NORMALIZATION=  1.000000
  LARGEST GAUSSIAN PRIMITIVE EXPONENT=     7001.7130900000 OF TYPE -S-
 ON ATOM NUMBER   6 HAS RADIAL NORMALIZATION=  1.000000
 DFT IS SWITCHED OFF, PERFORMING PURE SCF UNTIL SWOFF THRESHOLD IS REACHED.

 ITER EX DEM     TOTAL ENERGY        E CHANGE  DENSITY CHANGE    DIIS ERROR
   1  0  0     -250.5866594353  -250.5866594353   0.365210304   0.632321833
          * * *   INITIATING DIIS PROCEDURE   * * *
   2  1  0     -251.3682039751    -0.7815445398   0.237325803   0.119656587
   3  2  0     -251.4280145708    -0.0598105957   0.134082579   0.109256973
   4  3  0     -251.5161198827    -0.0881053119   0.022945754   0.011665615
   5  4  0     -251.5175388721    -0.0014189895   0.010856013   0.003157067
   6  5  0     -251.5177775206    -0.0002386485   0.004345030   0.001390249
 CONVERGED TO SWOFF, SO DFT CALCULATION IS NOW SWITCHED ON.
          * * *   INITIATING DIIS PROCEDURE   * * *
   7  6  0     -252.6946057314    -1.1768282108   0.126091781   0.078109101
   8  7  0     -252.7129613484    -0.0183556170   0.090075985   0.030725048
   9  8  0     -252.7019897285     0.0109716199   0.066975289   0.050567955
  10  9  0     -252.7191651541    -0.0171754256   0.010708827   0.009370260
  11 10  0     -252.7196564213    -0.0004912672   0.001327805   0.001127974
  12 11  0     -252.7196627602    -0.0000063389   0.000477045   0.000315058
  13 12  0     -252.7196635904    -0.0000008302   0.000198332   0.000060396
 DFT CODE IS SWITCHING BACK TO THE FINE GRID
          * * *   INITIATING DIIS PROCEDURE   * * *
  14 13  0     -252.7150441958     0.0046193946   0.002726370   0.002039911
  15 14  0     -252.7150660245    -0.0000218287   0.001966942   0.000669528
  16 15  0     -252.7150623845     0.0000036400   0.001458403   0.000936686
  17 16  0     -252.7150686105    -0.0000062260   0.000317696   0.000255656
  18 17  0     -252.7150691822    -0.0000005717   0.000037880   0.000019117
  19 18  0     -252.7150691842    -0.0000000020   0.000025598   0.000008950
  20 19  0     -252.7150691850    -0.0000000008   0.000003346   0.000001483
  21 20  0     -252.7150691851    -0.0000000001   0.000001264   0.000000761

          -----------------
          DENSITY CONVERGED
          -----------------
     TIME TO FORM FOCK OPERATORS=       6.9 SECONDS (       0.3 SEC/ITER)
     TIME TO SOLVE SCF EQUATIONS=       0.0 SECONDS (       0.0 SEC/ITER)

 FINAL R-B3LYP ENERGY IS     -252.7150691851 AFTER  21 ITERATIONS
 DFT EXCHANGE + CORRELATION ENERGY =       -25.0212370802
 TOTAL ELECTRON NUMBER             =        31.9999870230

          ------------
          EIGENVECTORS
          ------------

                      1          2          3          4          5
                  -24.7487   -19.1740   -10.2812   -10.2749    -1.3918
                     A          A          A          A          A   
    1  C  1  S    0.000074  -0.000004   0.040525   0.992061  -0.100686
    2  C  1  S    0.000594   0.000020   0.001829   0.052615   0.180614
    3  C  1  X   -0.000041   0.000028  -0.000428  -0.003194  -0.142587
    4  C  1  Y    0.000120   0.000060  -0.000180   0.002821   0.107578
    5  C  1  Z    0.000047  -0.000062   0.000024   0.001616   0.075741
    6  C  1  S   -0.000220  -0.000287   0.003246  -0.011899   0.058187
    7  C  1  X    0.001347   0.000631   0.000904  -0.002779   0.001673
    8  C  1  Y   -0.000279  -0.000475   0.001285  -0.001415  -0.002282
    9  C  1  Z   -0.000554   0.000581  -0.000267   0.001267  -0.002274
   10  C  1 XX   -0.000518  -0.000083  -0.000618  -0.008603   0.009523
   11  C  1 YY   -0.000268   0.000029  -0.000661  -0.009549  -0.005525
   12  C  1 ZZ   -0.000206  -0.000003  -0.000486  -0.009692  -0.013333
   13  C  1 XY    0.000555   0.000031  -0.000166  -0.001036  -0.030616
   14  C  1 XZ    0.000376  -0.000009  -0.000058  -0.000877  -0.020617
   15  C  1 YZ   -0.000215   0.000019  -0.000002   0.000694   0.016901
   16  C  2  S    0.000007   0.000000   0.991917  -0.040860  -0.011662
   17  C  2  S    0.000130   0.000536   0.049117  -0.002485   0.021377
   18  C  2  X    0.000106   0.000162   0.000661   0.000148  -0.021316
   19  C  2  Y    0.000049  -0.000058  -0.000362   0.000117  -0.006970
   20  C  2  Z   -0.000035   0.000036   0.000468  -0.000029   0.003117
   21  C  2  S   -0.000929  -0.002554  -0.009532   0.005428   0.005710
   22  C  2  X    0.000372  -0.002117   0.002755  -0.002892  -0.005415
   23  C  2  Y    0.000377   0.001026  -0.000295  -0.000996   0.000262
   24  C  2  Z    0.000015  -0.000863   0.000600  -0.000465   0.002668
   25  C  2 XX   -0.000252  -0.000453  -0.008707   0.000082   0.005356
   26  C  2 YY   -0.000003  -0.000117  -0.009480   0.000236   0.000512
   27  C  2 ZZ   -0.000010  -0.000103  -0.009704   0.000216  -0.001651
   28  C  2 XY   -0.000045   0.000185  -0.000200  -0.000052   0.004077
   29  C  2 XZ    0.000013  -0.000162   0.000354  -0.000017  -0.000144
   30  C  2 YZ    0.000029   0.000078  -0.000193   0.000033  -0.000562
   31  O  3  S   -0.000003   0.992800  -0.000079  -0.000019  -0.001545
   32  O  3  S   -0.000018   0.025705   0.000333  -0.000155   0.003763
   33  O  3  X   -0.000011  -0.000859   0.000096  -0.000015  -0.002320
   34  O  3  Y    0.000013   0.000271  -0.000042  -0.000042   0.000116
   35  O  3  Z   -0.000024  -0.000367   0.000033   0.000040  -0.000087
   36  O  3  S    0.000127   0.012749  -0.002019   0.000746   0.003309
   37  O  3  X   -0.000113  -0.001183   0.001480  -0.000137   0.000326
   38  O  3  Y   -0.000015   0.000291  -0.000609   0.000434   0.000577
   39  O  3  Z    0.000024  -0.000320   0.000563  -0.000274  -0.000775
   40  O  3 XX    0.000031  -0.007730  -0.000344   0.000037  -0.000057
   41  O  3 YY   -0.000015  -0.007966   0.000159  -0.000056  -0.000152
   42  O  3 ZZ   -0.000001  -0.007994   0.000307  -0.000112   0.000314
   43  O  3 XY   -0.000039  -0.000079   0.000286  -0.000039   0.000039
   44  O  3 XZ    0.000007   0.000101  -0.000292   0.000080   0.000011
   45  O  3 YZ   -0.000025  -0.000056   0.000180  -0.000009   0.000009
   46  H  4  S    0.000068  -0.000000  -0.000261  -0.000198   0.002745
   47  H  4  S   -0.000126  -0.000336   0.002207  -0.000140   0.001457
   48  H  5  S   -0.000001  -0.000010   0.000051   0.000012   0.004406
   49  H  5  S   -0.000150  -0.000561   0.000493   0.001118  -0.003647
   50  F  6  S    0.992824  -0.000020  -0.000041  -0.000310  -0.209887
   51  F  6  S    0.019551  -0.000105  -0.000115   0.000897   0.478569
   52  F  6  X    0.001045   0.000019  -0.000007   0.000140   0.121863
   53  F  6  Y   -0.000704   0.000014  -0.000037  -0.000140  -0.080994
   54  F  6  Z   -0.000551   0.000023  -0.000062  -0.000079  -0.065983
   55  F  6  S    0.017428   0.000479   0.000130  -0.004600   0.321721
   56  F  6  X    0.000024  -0.000103   0.000176  -0.003015   0.018556
   57  F  6  Y   -0.000122  -0.000130   0.000218   0.002474  -0.009496
   58  F  6  Z   -0.000036  -0.000192   0.000240   0.001644  -0.011348
   59  F  6 XX   -0.008436  -0.000111  -0.000012  -0.000390   0.021673
   60  F  6 YY   -0.008444  -0.000079  -0.000093   0.000116   0.017735
   61  F  6 ZZ   -0.008476  -0.000031  -0.000172   0.000459   0.016514
   62  F  6 XY   -0.000038  -0.000028   0.000097   0.000825  -0.004696
   63  F  6 XZ   -0.000028   0.000010   0.000004   0.000656  -0.004189
   64  F  6 YZ    0.000029   0.000062  -0.000024  -0.000549   0.002995
   65  H  7  S   -0.000137   0.000064  -0.000185  -0.000114   0.018498
   66  H  7  S   -0.000135   0.000318   0.000280   0.002157  -0.006559

                      6          7          8          9         10
                   -1.0443    -0.7655    -0.6527    -0.6084    -0.5723
                     A          A          A          A          A   
    1  C  1  S   -0.017907  -0.139020   0.065845   0.001364   0.057911
    2  C  1  S    0.033528   0.271459  -0.145528   0.005122  -0.106373
    3  C  1  X    0.049210   0.130039   0.281642   0.021762  -0.169409
    4  C  1  Y    0.008252   0.100265   0.042479   0.049743   0.233919
    5  C  1  Z   -0.000440  -0.040318   0.009672   0.326867   0.051152
    6  C  1  S    0.011592   0.205969  -0.115035  -0.028843  -0.156907
    7  C  1  X    0.013304   0.052780   0.022421   0.043479  -0.023587
    8  C  1  Y   -0.005706   0.007075   0.021477  -0.014043   0.065640
    9  C  1  Z    0.006135  -0.017396   0.027322   0.096694  -0.018597
   10  C  1 XX    0.004974  -0.007707  -0.010033  -0.007584  -0.007339
   11  C  1 YY   -0.000394  -0.000659   0.020565  -0.000843   0.023700
   12  C  1 ZZ   -0.000615  -0.004499   0.004263  -0.000343  -0.015394
   13  C  1 XY    0.005932   0.010063   0.021056  -0.003755  -0.019228
   14  C  1 XZ    0.002824   0.007978   0.006482  -0.020422  -0.009819
   15  C  1 YZ    0.000110   0.000859  -0.003087   0.018359   0.008714
   16  C  2  S   -0.113831  -0.103000  -0.081876   0.022664  -0.012574
   17  C  2  S    0.217405   0.212266   0.164378  -0.049755   0.029831
   18  C  2  X    0.136936  -0.209830  -0.087227  -0.017632   0.045405
   19  C  2  Y   -0.063306  -0.041850   0.036381  -0.056888   0.238263
   20  C  2  Z    0.055314  -0.033512  -0.013354   0.099122  -0.031754
   21  C  2  S    0.080798   0.138400   0.180877  -0.034239   0.021488
   22  C  2  X   -0.020761  -0.037766  -0.053978   0.004453  -0.011611
   23  C  2  Y    0.012170   0.009728   0.009570  -0.012001   0.101116
   24  C  2  Z   -0.008216  -0.012106  -0.002772   0.044798  -0.012173
   25  C  2 XX    0.012350  -0.006471  -0.012363   0.000526   0.006189
   26  C  2 YY   -0.009749   0.005007   0.002308  -0.003102  -0.004396
   27  C  2 ZZ   -0.013010  -0.007712  -0.006270   0.002376  -0.001042
   28  C  2 XY   -0.013469   0.013489  -0.000052   0.001261  -0.006977
   29  C  2 XZ    0.012860  -0.003990  -0.004348  -0.007308   0.000057
   30  C  2 YZ   -0.007061  -0.003009  -0.003517  -0.003783  -0.000174
   31  O  3  S   -0.193883   0.069552   0.042970  -0.002653  -0.018479
   32  O  3  S    0.424890  -0.161770  -0.101194   0.009029   0.039105
   33  O  3  X   -0.137279  -0.021362  -0.043933  -0.012548   0.066135
   34  O  3  Y    0.040030  -0.017920   0.017384  -0.026806   0.116095
   35  O  3  Z   -0.046006   0.002014  -0.008842   0.041067  -0.013198
   36  O  3  S    0.411350  -0.167701  -0.116574  -0.006616   0.085885
   37  O  3  X   -0.060618  -0.018626  -0.025165  -0.000831   0.029222
   38  O  3  Y    0.010630  -0.005213   0.010963  -0.016258   0.060480
   39  O  3  Z   -0.016731  -0.000869  -0.009126   0.020380  -0.011549
   40  O  3 XX    0.008142   0.006333   0.005631   0.003279  -0.009726
   41  O  3 YY   -0.007984  -0.000549   0.000287   0.000438   0.001507
   42  O  3 ZZ   -0.006184  -0.000882  -0.001095  -0.000673   0.000359
   43  O  3 XY   -0.004971   0.000429  -0.003046   0.002359  -0.009729
   44  O  3 XZ    0.005789   0.001736   0.002596  -0.003314  -0.000001
   45  O  3 YZ   -0.001254  -0.000447  -0.001501   0.000984  -0.002316
   46  H  4  S    0.027654   0.063913   0.080012  -0.057638   0.112646
   47  H  4  S   -0.009742   0.006497   0.037004  -0.035969   0.056982
   48  H  5  S    0.032290   0.048039   0.008338   0.040296  -0.114849
   49  H  5  S    0.001045   0.002103   0.000901   0.013126  -0.060722
   50  F  6  S    0.012126   0.080249  -0.063093   0.019848   0.018454
   51  F  6  S   -0.027927  -0.173646   0.119641  -0.036387  -0.031845
   52  F  6  X    0.007507   0.212973  -0.138574   0.338167   0.305909
   53  F  6  Y    0.005950  -0.024410   0.382459  -0.148462   0.122235
   54  F  6  Z    0.003187  -0.093005   0.254410   0.309438  -0.220330
   55  F  6  S   -0.024526  -0.263232   0.286229  -0.095270  -0.107647
   56  F  6  X    0.003018   0.114011  -0.051523   0.187996   0.168332
   57  F  6  Y   -0.001102  -0.016914   0.207032  -0.077009   0.094590
   58  F  6  Z   -0.001686  -0.052502   0.133195   0.193976  -0.120412
   59  F  6 XX    0.000474   0.015070   0.000435   0.020968   0.013435
   60  F  6 YY   -0.001568  -0.002510  -0.016652   0.004636  -0.009622
   61  F  6 ZZ   -0.000748   0.000987  -0.010512  -0.016382   0.004892
   62  F  6 XY   -0.000293  -0.005019   0.014155  -0.011399   0.004217
   63  F  6 XZ   -0.000323  -0.009686   0.007863   0.010522  -0.011411
   64  F  6 YZ   -0.000014   0.002981  -0.013312  -0.008227  -0.000875
   65  H  7  S    0.005368   0.081937  -0.079345  -0.140319  -0.084455
   66  H  7  S    0.002390   0.012316  -0.025266  -0.076468  -0.059545

                     11         12         13         14         15
                   -0.5368    -0.4509    -0.3950    -0.3682    -0.2821
                     A          A          A          A          A   
    1  C  1  S   -0.012341  -0.028126   0.012248  -0.035224  -0.028597
    2  C  1  S    0.023030   0.053276  -0.021253   0.063664   0.063754
    3  C  1  X    0.088500   0.038438   0.035803  -0.068153   0.210335
    4  C  1  Y    0.112612  -0.056043   0.015091  -0.137677   0.154600
    5  C  1  Z   -0.061008  -0.069387   0.092018  -0.158194   0.042200
    6  C  1  S    0.035691   0.090192  -0.048159   0.166411   0.206871
    7  C  1  X    0.040093   0.006368  -0.051637   0.015716   0.092961
    8  C  1  Y    0.050960  -0.009781   0.013846  -0.032231   0.091414
    9  C  1  Z   -0.038491  -0.019043   0.029623  -0.030929   0.018879
   10  C  1 XX   -0.011485  -0.015161   0.013323  -0.024338   0.011435
   11  C  1 YY    0.015925  -0.002516   0.002905  -0.001528  -0.006084
   12  C  1 ZZ   -0.005495   0.015548  -0.012677   0.026867  -0.013287
   13  C  1 XY   -0.010190   0.014083   0.002663   0.003844   0.014419
   14  C  1 XZ    0.013832  -0.005083   0.010889   0.012308  -0.003028
   15  C  1 YZ    0.002003  -0.000250  -0.007627   0.012682  -0.004227
   16  C  2  S    0.086358   0.034761  -0.013706   0.030987  -0.025718
   17  C  2  S   -0.187941  -0.092826   0.026020  -0.069446   0.077460
   18  C  2  X   -0.111863  -0.214557  -0.196945   0.133055  -0.153003
   19  C  2  Y   -0.216028   0.172146   0.133722   0.084390  -0.184800
   20  C  2  Z    0.063319  -0.170279   0.214162   0.192394   0.050030
   21  C  2  S   -0.234647  -0.047219   0.075508  -0.119292   0.066832
   22  C  2  X   -0.024361  -0.029437  -0.076672   0.053582   0.043689
   23  C  2  Y   -0.062099   0.066816   0.028620   0.091432  -0.037903
   24  C  2  Z    0.033212  -0.064005   0.145214   0.121924   0.019936
   25  C  2 XX    0.007581  -0.000617  -0.016540   0.005525   0.025981
   26  C  2 YY   -0.006691   0.009959   0.009063  -0.015689  -0.025741
   27  C  2 ZZ    0.004521   0.003549   0.012991   0.008975  -0.005132
   28  C  2 XY    0.001258   0.008178   0.007444   0.008844   0.026826
   29  C  2 XZ   -0.001279  -0.005007   0.009033   0.016661  -0.001922
   30  C  2 YZ    0.005832   0.003869  -0.013022   0.006539   0.015022
   31  O  3  S   -0.057213  -0.076972  -0.010196   0.005477  -0.008966
   32  O  3  S    0.117979   0.160985   0.013857   0.000527   0.029307
   33  O  3  X    0.099921   0.447144   0.020750  -0.094626   0.214452
   34  O  3  Y   -0.164875  -0.078172  -0.020517   0.329142   0.420074
   35  O  3  Z    0.090177   0.073867   0.436161   0.201057  -0.078664
   36  O  3  S    0.235872   0.329894   0.053992  -0.054193  -0.003342
   37  O  3  X    0.034120   0.240916  -0.000350  -0.043444   0.161177
   38  O  3  Y   -0.083802  -0.036674  -0.003755   0.205745   0.293836
   39  O  3  Z    0.039059   0.034637   0.273807   0.135481  -0.044966
   40  O  3 XX   -0.006618  -0.030801   0.004106   0.006515  -0.006728
   41  O  3 YY   -0.008884  -0.000500   0.001880   0.009147   0.004344
   42  O  3 ZZ   -0.006311   0.000745  -0.014994  -0.003505   0.003919
   43  O  3 XY    0.011934   0.004661  -0.001552  -0.016920  -0.013180
   44  O  3 XZ   -0.005556  -0.006403  -0.024125  -0.011389   0.000336
   45  O  3 YZ    0.004853   0.001512   0.004713  -0.000735  -0.002070
   46  H  4  S   -0.185182   0.098439   0.072323  -0.055326  -0.163928
   47  H  4  S   -0.093554   0.075282   0.078580  -0.058392  -0.245012
   48  H  5  S    0.033268  -0.032399   0.076847  -0.040497  -0.096861
   49  H  5  S    0.034022   0.007457   0.099285  -0.052147  -0.216998
   50  F  6  S   -0.002778   0.003621   0.006062   0.007198   0.001278
   51  F  6  S    0.000140  -0.015384  -0.002716  -0.019062   0.006292
   52  F  6  X    0.144724   0.000956  -0.204318   0.148259  -0.162972
   53  F  6  Y    0.352935  -0.038949  -0.101884   0.176177  -0.122877
   54  F  6  Z   -0.158556   0.245866  -0.187323   0.207642  -0.063962
   55  F  6  S    0.029027   0.003785  -0.062088  -0.024399  -0.032546
   56  F  6  X    0.098067   0.015957  -0.147910   0.114241  -0.127325
   57  F  6  Y    0.220356  -0.032823  -0.067819   0.122187  -0.102871
   58  F  6  Z   -0.102619   0.166365  -0.131817   0.147942  -0.051941
   59  F  6 XX    0.008759   0.001287  -0.002454   0.004782   0.006561
   60  F  6 YY   -0.019044   0.002028   0.009771  -0.003479   0.003605
   61  F  6 ZZ    0.003478  -0.008173   0.008049  -0.000603   0.003160
   62  F  6 XY    0.008695  -0.002034   0.002056   0.000575   0.000269
   63  F  6 XZ   -0.010038   0.005317  -0.000688   0.002854  -0.001676
   64  F  6 YZ   -0.003259  -0.003266   0.004070  -0.001896   0.001591
   65  H  7  S    0.012422   0.080891  -0.089275   0.209538  -0.090988
   66  H  7  S   -0.000199   0.063924  -0.083252   0.221284  -0.138659

                     16         17         18         19         20
                   -0.2482    -0.0597     0.0472     0.1256     0.1505
                     A          A          A          A          A   
    1  C  1  S   -0.037131  -0.002147   0.087621   0.011731   0.066769
    2  C  1  S    0.051879   0.013882  -0.174324  -0.022560  -0.066775
    3  C  1  X    0.030813  -0.024027  -0.053224   0.117952   0.028727
    4  C  1  Y   -0.272892  -0.000704   0.367809   0.059935  -0.044704
    5  C  1  Z    0.212777   0.007272  -0.128808   0.178124   0.430308
    6  C  1  S    0.304868  -0.104927  -0.626839  -0.157720  -1.471368
    7  C  1  X    0.064349  -0.165063  -0.024878   0.163531  -0.157987
    8  C  1  Y   -0.159784  -0.017953   0.593829   0.377162  -0.152309
    9  C  1  Z    0.139366   0.062586   0.040314   0.398252   1.104144
   10  C  1 XX    0.000641  -0.005969   0.001024   0.009895   0.002553
   11  C  1 YY    0.003929   0.003400   0.005650  -0.008351   0.008751
   12  C  1 ZZ   -0.008160   0.006994   0.015488   0.002153   0.004394
   13  C  1 XY   -0.019571   0.018235  -0.017818  -0.011435   0.008323
   14  C  1 XZ    0.017454   0.027293   0.005007  -0.000397  -0.004252
   15  C  1 YZ   -0.004921   0.013376  -0.006861   0.005817   0.008970
   16  C  2  S    0.034890  -0.012017   0.009218   0.088600  -0.068456
   17  C  2  S   -0.078296   0.018751  -0.030989  -0.146670   0.062614
   18  C  2  X    0.102989  -0.137625  -0.006098   0.013500   0.013496
   19  C  2  Y    0.111051   0.144706   0.056864  -0.336545   0.039810
   20  C  2  Z    0.007823   0.466782   0.030661   0.114437  -0.111445
   21  C  2  S   -0.185679   0.212885  -0.093541  -1.420890   1.318616
   22  C  2  X    0.128935  -0.169887   0.150465   0.272054  -0.179869
   23  C  2  Y    0.081872   0.061271   0.119872  -0.926426  -0.038299
   24  C  2  Z    0.024742   0.484581  -0.050257   0.253504  -0.405632
   25  C  2 XX   -0.000499   0.012054   0.008549   0.002677  -0.015999
   26  C  2 YY    0.015792  -0.000673  -0.010551   0.005936  -0.013642
   27  C  2 ZZ   -0.002532  -0.012300   0.005947   0.004267   0.009968
   28  C  2 XY    0.010100  -0.013379  -0.001250   0.003863   0.001427
   29  C  2 XZ   -0.017283  -0.020918   0.003083  -0.001262  -0.017017
   30  C  2 YZ   -0.004848   0.005427   0.000511  -0.008462  -0.007884
   31  O  3  S    0.017022  -0.005385   0.024626  -0.007613   0.009678
   32  O  3  S   -0.033761   0.020456  -0.053099   0.030521  -0.014642
   33  O  3  X    0.189124   0.063455   0.059309  -0.017024   0.048151
   34  O  3  Y    0.186996  -0.183938   0.141462   0.074660  -0.062145
   35  O  3  Z   -0.179678  -0.366304  -0.112843  -0.014317   0.104305
   36  O  3  S   -0.119541  -0.002822  -0.202717  -0.051073  -0.125122
   37  O  3  X    0.151541   0.080842   0.085411   0.016505   0.085011
   38  O  3  Y    0.131109  -0.168238   0.120800   0.153525  -0.055081
   39  O  3  Z   -0.139818  -0.356725  -0.074519  -0.004160   0.161512
   40  O  3 XX   -0.008850   0.001687  -0.003168   0.006689   0.002236
   41  O  3 YY    0.012852   0.000172   0.011660  -0.000311  -0.002882
   42  O  3 ZZ    0.008338   0.000840   0.005060  -0.001805   0.009695
   43  O  3 XY   -0.002118  -0.001228   0.004080   0.005023  -0.005848
   44  O  3 XZ    0.002696  -0.000229  -0.007153  -0.002122  -0.000953
   45  O  3 YZ   -0.007036   0.003102  -0.005606  -0.000188  -0.000031
   46  H  4  S    0.044925  -0.012062  -0.054145   0.077622  -0.057068
   47  H  4  S    0.109626  -0.008831  -0.220328   1.878531  -0.709906
   48  H  5  S    0.223574  -0.074542   0.250764  -0.006757  -0.083021
   49  H  5  S    0.316310  -0.193334   0.983119  -0.347150  -0.307701
   50  F  6  S    0.003422   0.021032   0.001668   0.005866   0.011212
   51  F  6  S   -0.012099  -0.058344   0.032602   0.011350  -0.028627
   52  F  6  X    0.009816  -0.094496  -0.008732  -0.008278  -0.015170
   53  F  6  Y    0.202157  -0.008211  -0.149504  -0.046823   0.079203
   54  F  6  Z   -0.207967   0.012963   0.087695  -0.029252  -0.123733
   55  F  6  S   -0.009834  -0.131658  -0.137200  -0.149872  -0.087299
   56  F  6  X    0.007645  -0.061795  -0.050764  -0.066933  -0.044694
   57  F  6  Y    0.177500   0.012773  -0.155600  -0.022098   0.103036
   58  F  6  Z   -0.179473   0.011846   0.103654  -0.053642  -0.205055
   59  F  6 XX   -0.002340   0.002477   0.011704   0.006114   0.004001
   60  F  6 YY   -0.001441  -0.002674   0.002378   0.007720  -0.000763
   61  F  6 ZZ   -0.000727  -0.003159   0.022066   0.007909  -0.001468
   62  F  6 XY    0.001713   0.005689   0.003992  -0.000004   0.000180
   63  F  6 XZ   -0.000055   0.003928   0.000659   0.006964   0.012272
   64  F  6 YZ   -0.002238   0.004141  -0.000216  -0.006662  -0.004066
   65  H  7  S   -0.075649   0.092758   0.095541   0.017969   0.005204
   66  H  7  S   -0.084462   0.211178   0.628803   0.779610   1.736804

                     21         22         23         24         25
                    0.2116     0.2999     0.3465     0.4827     0.5428
                     A          A          A          A          A   
    1  C  1  S    0.013247   0.017646  -0.119322   0.007264   0.016952
    2  C  1  S   -0.038405   0.005163   0.129644  -0.178134   0.006628
    3  C  1  X    0.110143   0.211772   0.210157  -0.484502   0.147883
    4  C  1  Y   -0.056208  -0.004933   0.026902  -0.658374   0.012773
    5  C  1  Z   -0.047230   0.111326   0.144185   0.048649  -0.014393
    6  C  1  S   -0.073209  -1.442553   3.484259  -0.119512  -0.243870
    7  C  1  X    1.246622   1.252584   1.508894   0.572038   0.212182
    8  C  1  Y   -0.094647  -0.945699   1.797583   0.854477  -0.157969
    9  C  1  Z   -0.425347  -0.090867   0.701114   0.161322  -0.175108
   10  C  1 XX    0.002085  -0.031286  -0.025810   0.025042   0.032505
   11  C  1 YY   -0.021230   0.015812   0.000744  -0.029693  -0.025310
   12  C  1 ZZ   -0.003134  -0.009589   0.041932   0.020533   0.002289
   13  C  1 XY   -0.005837   0.007723  -0.021174  -0.034809  -0.030121
   14  C  1 XZ    0.002463  -0.002893   0.012595   0.009491  -0.031419
   15  C  1 YZ    0.022209  -0.008743  -0.010082   0.000200  -0.003705
   16  C  2  S   -0.035371   0.052044   0.091591  -0.066067   0.010218
   17  C  2  S    0.011870  -0.018888  -0.032582  -0.013420   0.007577
   18  C  2  X    0.142723  -0.156567   0.171394   0.206755   0.205808
   19  C  2  Y    0.032846   0.232205   0.341301   0.044836  -0.257918
   20  C  2  Z    0.160350   0.076703  -0.063932   0.013141  -0.936244
   21  C  2  S    0.403840  -1.203262  -2.959312  -0.259880  -0.139980
   22  C  2  X    1.350839  -1.641676   1.715736  -0.801241  -0.348734
   23  C  2  Y    0.057988   0.906193   1.329762  -0.457122   0.412972
   24  C  2  Z    0.578446  -0.519124  -0.414432  -0.060437   1.224227
   25  C  2 XX   -0.019273   0.008973  -0.000326  -0.137692  -0.001219
   26  C  2 YY    0.021405   0.016223   0.008443   0.002282   0.040770
   27  C  2 ZZ    0.004632  -0.023582   0.000857   0.039851  -0.028657
   28  C  2 XY    0.014518   0.000005   0.021037  -0.035740   0.004227
   29  C  2 XZ   -0.012109   0.006969   0.003222  -0.020436   0.001380
   30  C  2 YZ    0.014156  -0.004699  -0.022827   0.003686   0.015515
   31  O  3  S    0.070144  -0.089364  -0.019981  -0.004151  -0.008485
   32  O  3  S   -0.086045   0.085588   0.071366  -0.088271   0.055951
   33  O  3  X    0.160316  -0.117499  -0.142682   0.214308   0.023910
   34  O  3  Y   -0.119746   0.094844  -0.134626   0.096643  -0.033699
   35  O  3  Z    0.060318  -0.074867   0.001836  -0.010126  -0.094860
   36  O  3  S   -1.205471   1.775376   0.115462   0.518081   0.052391
   37  O  3  X    0.490716  -0.696892  -0.357748  -0.102431  -0.043686
   38  O  3  Y   -0.337508   0.224461  -0.261487   0.150303  -0.032916
   39  O  3  Z    0.158489  -0.302828   0.092536  -0.051120  -0.148018
   40  O  3 XX    0.010957  -0.013481   0.010887   0.033838  -0.006617
   41  O  3 YY    0.035060  -0.035737   0.013417  -0.043048   0.005073
   42  O  3 ZZ    0.026587  -0.056963   0.000661  -0.029786   0.036283
   43  O  3 XY    0.012778  -0.013953  -0.003768  -0.015623   0.020951
   44  O  3 XZ   -0.010653   0.012520  -0.003920   0.019008   0.049649
   45  O  3 YZ    0.010902  -0.001659  -0.014282  -0.005182  -0.009294
   46  H  4  S    0.007328   0.113847   0.042169   0.015115   0.090750
   47  H  4  S   -0.006420  -0.471878  -0.587253   0.035281  -0.035766
   48  H  5  S    0.001103   0.040960   0.046455   0.208597   0.056255
   49  H  5  S   -0.434327  -0.041033  -0.283073  -0.350464  -0.168581
   50  F  6  S   -0.078802  -0.070854   0.045651   0.007199  -0.010384
   51  F  6  S    0.045143  -0.013525   0.060974   0.038154   0.001432
   52  F  6  X    0.053935  -0.033962  -0.123876   0.017524  -0.000522
   53  F  6  Y   -0.062621  -0.096776  -0.006329  -0.048169  -0.083368
   54  F  6  Z   -0.062590  -0.044157  -0.023055  -0.016093  -0.071257
   55  F  6  S    1.160264   1.397595  -0.986122  -0.213774   0.196536
   56  F  6  X    0.214755   0.162028  -0.439002  -0.160696  -0.012693
   57  F  6  Y   -0.211854  -0.249741  -0.063772  -0.081609  -0.046733
   58  F  6  Z   -0.132543  -0.241561   0.000322  -0.001132  -0.010269
   59  F  6 XX   -0.038865  -0.045802   0.044537  -0.055433  -0.016136
   60  F  6 YY   -0.059712  -0.057586   0.056937   0.068692  -0.019787
   61  F  6 ZZ   -0.058210  -0.071826   0.077086   0.032541  -0.005608
   62  F  6 XY   -0.018181  -0.016360  -0.020585  -0.020016   0.019182
   63  F  6 XZ   -0.005909  -0.022991   0.011374   0.032485   0.029546
   64  F  6 YZ    0.018908   0.000099  -0.012776   0.014918  -0.001550
   65  H  7  S    0.050549  -0.034689   0.121009   0.092793   0.064968
   66  H  7  S    0.262245   0.632957   0.267685   0.080528   0.225793

                     26         27         28         29         30
                    0.6064     0.6341     0.6559     0.6885     0.7475
                     A          A          A          A          A   
    1  C  1  S    0.006466   0.011874  -0.020010   0.000167   0.064069
    2  C  1  S   -0.021647  -0.161769  -0.278860   0.233602   0.102908
    3  C  1  X    0.155963  -0.501794  -0.029050  -0.347325   0.481945
    4  C  1  Y    0.426110   0.178998  -0.039217  -0.098605  -0.569288
    5  C  1  Z   -0.438260  -0.555610  -0.366014   0.019693  -0.546023
    6  C  1  S   -0.323531   0.266454   0.181583   0.396634  -0.848112
    7  C  1  X    0.020716   1.194606   0.761599   1.319928  -0.435378
    8  C  1  Y   -0.508304  -0.218050  -0.142786   0.345071   0.719129
    9  C  1  Z    1.085576   1.676166   0.578502   0.449671   0.886615
   10  C  1 XX    0.000142  -0.008341  -0.056816   0.024933   0.126583
   11  C  1 YY   -0.039368   0.002017   0.017316  -0.012408   0.000197
   12  C  1 ZZ    0.031079  -0.000142  -0.039249   0.024973  -0.031667
   13  C  1 XY   -0.082767   0.050757  -0.034903   0.132678  -0.092262
   14  C  1 XZ    0.015868   0.034405  -0.117837   0.044754  -0.098749
   15  C  1 YZ    0.012078  -0.016703  -0.024560  -0.011478   0.064506
   16  C  2  S   -0.019988   0.002728  -0.017173  -0.002238   0.027194
   17  C  2  S    0.345505  -0.317962  -0.576258   0.613024   0.038564
   18  C  2  X    0.696186  -0.544918   0.295908  -0.042254  -0.291019
   19  C  2  Y   -0.010309   0.006798  -0.076531  -0.763964  -0.127008
   20  C  2  Z    0.244756  -0.147496   0.066131   0.162687   0.140177
   21  C  2  S   -0.280690  -0.209813   0.564256  -1.749936   0.160532
   22  C  2  X   -0.961919   0.557117  -0.482302   0.236992   0.426922
   23  C  2  Y   -0.114003   0.138918   0.950010   2.234653   0.080248
   24  C  2  Z   -0.506409  -0.227309  -0.370362  -0.758267  -0.364235
   25  C  2 XX   -0.063054  -0.025610  -0.031598  -0.031098  -0.040429
   26  C  2 YY    0.073083  -0.043057  -0.138074   0.013258   0.100058
   27  C  2 ZZ    0.009139   0.006355   0.011267   0.038423  -0.026564
   28  C  2 XY    0.093894  -0.063495  -0.022486  -0.012473   0.005986
   29  C  2 XZ   -0.039801   0.016186   0.020115  -0.032211   0.059178
   30  C  2 YZ   -0.014928  -0.021733   0.118452  -0.019145  -0.029754
   31  O  3  S    0.011163  -0.029218   0.002551   0.004946  -0.004273
   32  O  3  S   -0.021479   0.143661  -0.037065  -0.015748   0.071427
   33  O  3  X    0.339840  -0.062643  -0.077541   0.050694  -0.106056
   34  O  3  Y   -0.080984   0.003903  -0.159062  -0.085825   0.056047
   35  O  3  Z    0.112582   0.007928   0.016218  -0.006232  -0.100126
   36  O  3  S    0.471856  -0.022637   0.247643   0.541065  -0.225782
   37  O  3  X   -0.103671  -0.287504   0.047505  -0.157815   0.047332
   38  O  3  Y    0.030552   0.029133   0.010381  -0.064025   0.011740
   39  O  3  Z    0.028326  -0.002513  -0.014538   0.019542   0.089766
   40  O  3 XX    0.120289   0.011364  -0.016818   0.076025   0.005443
   41  O  3 YY   -0.009183   0.011734  -0.007892  -0.033284   0.002654
   42  O  3 ZZ   -0.021272   0.035887   0.010639  -0.016438   0.011962
   43  O  3 XY   -0.056796   0.067137  -0.037326  -0.009056   0.014979
   44  O  3 XZ    0.049922  -0.041527   0.007007   0.039601  -0.036281
   45  O  3 YZ   -0.032983   0.017531   0.012215  -0.011341   0.004860
   46  H  4  S    0.232961   0.069810  -0.565555   0.112751   0.415525
   47  H  4  S   -0.045025  -0.072222  -0.317048  -1.084383  -0.570132
   48  H  5  S    0.165952   0.301316  -0.408985  -0.433355  -0.196425
   49  H  5  S   -0.536880  -1.206271   0.221923   1.011445   0.505174
   50  F  6  S    0.005165   0.001823  -0.012724   0.004595  -0.030845
   51  F  6  S    0.047362   0.026768  -0.159017   0.087261   0.258174
   52  F  6  X    0.046677  -0.084184  -0.053945  -0.175866   0.314509
   53  F  6  Y   -0.015826   0.092007  -0.183081   0.094873  -0.059075
   54  F  6  Z   -0.062950  -0.096877  -0.135282  -0.007253  -0.131629
   55  F  6  S   -0.213652   0.038900   0.425445   0.074899  -0.344822
   56  F  6  X   -0.136789  -0.058007  -0.024321   0.018478   0.099931
   57  F  6  Y    0.010441   0.021206  -0.014605  -0.075099  -0.132271
   58  F  6  Z   -0.080258  -0.158934  -0.035320  -0.083827  -0.091228
   59  F  6 XX   -0.002498  -0.005112  -0.118156   0.052585  -0.047980
   60  F  6 YY   -0.020292   0.010207  -0.070750   0.075500   0.049404
   61  F  6 ZZ    0.068353   0.058756  -0.052839   0.051433   0.100387
   62  F  6 XY    0.034466  -0.003910   0.058523  -0.073897   0.079174
   63  F  6 XZ   -0.016327  -0.049290   0.001543  -0.041095   0.074537
   64  F  6 YZ   -0.012403   0.048517  -0.033445   0.034885  -0.030262
   65  H  7  S    0.122715   0.127417  -0.385585   0.233866  -0.148390
   66  H  7  S    0.347393   1.007030   0.579608   0.469069   0.907388

                     31         32         33         34         35
                    0.8114     0.8413     0.8881     0.9361     0.9625
                     A          A          A          A          A   
    1  C  1  S    0.024398   0.000525  -0.060574   0.032163   0.006931
    2  C  1  S   -0.379825  -0.568351   0.645650  -0.709852  -0.100762
    3  C  1  X    0.061463   0.021884  -0.291048   0.064022   0.233179
    4  C  1  Y   -0.082453   0.190096   0.106940  -0.064420  -0.060647
    5  C  1  Z    0.137536   0.341981  -0.102695   0.007915  -0.007314
    6  C  1  S    2.374221   1.515681  -0.406121   2.003877  -1.014295
    7  C  1  X    0.411130  -0.106977   0.353755   0.616509  -0.626514
    8  C  1  Y    0.438003  -0.248493   0.032298   0.139140  -0.377433
    9  C  1  Z   -0.339163  -0.671540   0.199302   0.209282   0.128488
   10  C  1 XX    0.122065  -0.014505   0.042189   0.011806  -0.083409
   11  C  1 YY    0.009667  -0.069144   0.077477   0.010886  -0.011117
   12  C  1 ZZ   -0.089536   0.021317  -0.082920  -0.039409   0.084147
   13  C  1 XY   -0.032490  -0.081595   0.001122  -0.027388   0.036629
   14  C  1 XZ   -0.031466   0.012361   0.000783  -0.018057   0.050916
   15  C  1 YZ   -0.022685   0.028634  -0.120169  -0.018608  -0.010779
   16  C  2  S   -0.029574   0.011952   0.028748   0.015453  -0.017291
   17  C  2  S    0.254428  -1.112243  -0.119184   0.752529  -0.362576
   18  C  2  X   -0.278133   0.112038   0.200122  -0.025629   0.040554
   19  C  2  Y   -0.319180  -0.508842  -0.211453  -0.094862   0.035608
   20  C  2  Z    0.095664   0.218656   0.089139   0.036930   0.084197
   21  C  2  S   -1.668044   2.132609   0.330097  -1.862599   1.476002
   22  C  2  X    0.657698  -0.147047   0.047067   0.243780  -0.502720
   23  C  2  Y    1.795179   1.234244   0.497279   0.656009  -0.511015
   24  C  2  Z   -0.442193  -0.339807  -0.067704  -0.204443  -0.526358
   25  C  2 XX   -0.151413  -0.104725   0.035944   0.106606   0.014419
   26  C  2 YY    0.049748   0.031874   0.061750   0.033172  -0.079693
   27  C  2 ZZ    0.014874  -0.060245  -0.058125   0.009717   0.030768
   28  C  2 XY    0.075250  -0.056638  -0.003967  -0.098507  -0.005543
   29  C  2 XZ   -0.038577   0.000025   0.085860   0.072288  -0.039763
   30  C  2 YZ    0.021948  -0.059996  -0.041596  -0.053393  -0.016740
   31  O  3  S   -0.017853  -0.004361  -0.001428  -0.015739   0.000266
   32  O  3  S    0.181617  -0.070644  -0.269918  -0.492093  -0.000251
   33  O  3  X    0.403989  -0.094121  -0.097321  -0.514458   0.126341
   34  O  3  Y   -0.317052   0.071361   0.004374  -0.117538  -0.293461
   35  O  3  Z    0.103225   0.037453  -0.282314  -0.021895  -0.757138
   36  O  3  S    0.337294   0.071766   0.449115   1.299337  -0.042009
   37  O  3  X   -0.972402   0.076602   0.221183   0.572815  -0.117587
   38  O  3  Y    0.113048  -0.187547  -0.178203  -0.031374   0.423241
   39  O  3  Z   -0.183519  -0.018149   0.369298   0.096355   1.022034
   40  O  3 XX    0.153648  -0.001463  -0.070385  -0.123992  -0.021404
   41  O  3 YY    0.082338  -0.047907  -0.092770  -0.188068  -0.022789
   42  O  3 ZZ    0.014849  -0.021918  -0.120398  -0.237040   0.043977
   43  O  3 XY    0.007181   0.060943   0.024093   0.038092   0.007604
   44  O  3 XZ    0.020561  -0.014784  -0.007025   0.007218   0.007729
   45  O  3 YZ   -0.032019   0.040807   0.001163  -0.022539  -0.008229
   46  H  4  S   -0.293846   0.568786   0.302229  -0.257995  -0.134386
   47  H  4  S   -0.669712  -1.907844  -0.679935   0.145652   0.033010
   48  H  5  S    0.543943   0.103908   0.379547   0.516376   0.058282
   49  H  5  S   -0.192874  -0.163225  -0.490244  -0.680233  -0.089139
   50  F  6  S    0.001289   0.004508   0.025432  -0.007939   0.011083
   51  F  6  S    0.079287  -0.135032  -0.178952   0.178295   0.408019
   52  F  6  X    0.208393   0.035004  -0.007953   0.071553  -0.068410
   53  F  6  Y   -0.094628  -0.091981   0.080577  -0.121038   0.174451
   54  F  6  Z    0.130046  -0.053219   0.225695  -0.037406   0.007847
   55  F  6  S   -0.415133  -0.015728   0.080939  -0.351748  -0.571996
   56  F  6  X   -0.185288  -0.183332  -0.233453   0.000287   0.278901
   57  F  6  Y    0.107620   0.090857   0.088150   0.044398  -0.286953
   58  F  6  Z    0.026513   0.136549   0.030905  -0.074868  -0.171817
   59  F  6 XX   -0.044033  -0.044518  -0.048174   0.007756   0.220857
   60  F  6 YY    0.044521  -0.068957  -0.022666   0.072435   0.189980
   61  F  6 ZZ    0.022948  -0.066477  -0.019393   0.057698   0.162390
   62  F  6 XY    0.046081   0.038377  -0.040170   0.057233  -0.006058
   63  F  6 XZ    0.020471   0.039504  -0.079912   0.017443  -0.013182
   64  F  6 YZ   -0.034214  -0.040255   0.045843  -0.054016  -0.011798
   65  H  7  S   -0.217743   0.253305  -0.835310   0.226737   0.288417
   66  H  7  S   -0.213584  -1.126700   1.063459  -0.259119  -0.339333

                     36         37         38         39         40
                    0.9894     1.0796     1.1537     1.2594     1.3448
                     A          A          A          A          A   
    1  C  1  S    0.005335   0.067958  -0.087373  -0.015405  -0.016498
    2  C  1  S   -0.407714   0.431743  -1.418717  -0.275677  -0.061221
    3  C  1  X   -0.458276  -0.067789  -0.057336   0.007738   0.111015
    4  C  1  Y    0.298778   0.060574   0.054492  -0.041482  -0.019647
    5  C  1  Z    0.224060   0.065530   0.013498  -0.146572   0.158183
    6  C  1  S    2.813838   0.125485   5.009514   0.737484   0.203461
    7  C  1  X    0.815789   0.291222   1.469745   0.131396  -0.565370
    8  C  1  Y    0.675083  -0.240629   1.054239  -0.084020   0.064157
    9  C  1  Z   -0.332717   0.345146  -0.163930   0.327994  -0.894183
   10  C  1 XX    0.026217   0.112559  -0.103674   0.046685   0.145417
   11  C  1 YY   -0.024462   0.030651  -0.026761   0.007242   0.005368
   12  C  1 ZZ   -0.040168  -0.026119  -0.029236  -0.083134  -0.179748
   13  C  1 XY   -0.113053  -0.061755   0.039603   0.048792   0.003661
   14  C  1 XZ   -0.157095  -0.077808  -0.035268   0.104178   0.064029
   15  C  1 YZ    0.062418   0.094988  -0.176542   0.127533  -0.115135
   16  C  2  S    0.013684  -0.002605   0.026762   0.021245   0.002006
   17  C  2  S    0.565276   0.059969   0.477806   0.171875   0.076237
   18  C  2  X   -0.153507  -0.110401  -0.084713  -0.065085  -0.021186
   19  C  2  Y    0.236693  -0.171345  -0.015017   0.106148   0.085187
   20  C  2  Z   -0.050746   0.089718  -0.053741   0.030118   0.035872
   21  C  2  S   -2.602962   0.254288  -3.249698  -0.748145  -1.073754
   22  C  2  X    0.973245   0.316439   1.947366   0.564238  -0.577031
   23  C  2  Y   -0.481294   1.223486   1.075343  -0.225286  -0.095484
   24  C  2  Z    0.296083  -0.547269   0.223343  -0.188054  -0.080370
   25  C  2 XX   -0.079781   0.092927  -0.012604   0.128084  -0.039996
   26  C  2 YY    0.099870  -0.084866   0.048543   0.025809   0.146438
   27  C  2 ZZ    0.018025  -0.016435   0.001919  -0.106398  -0.124576
   28  C  2 XY   -0.047288   0.051960  -0.005028  -0.069104   0.077637
   29  C  2 XZ    0.053284  -0.014902   0.110045  -0.260962  -0.039480
   30  C  2 YZ    0.009899   0.048414   0.044402  -0.106129   0.004778
   31  O  3  S    0.003146  -0.006020   0.002711  -0.003262  -0.038064
   32  O  3  S    0.056029  -0.030008  -0.049137  -0.102963  -0.693304
   33  O  3  X    0.022245   0.121671   0.212930   0.099352   0.154161
   34  O  3  Y   -0.263734   0.546594   0.463825   0.032033  -0.144040
   35  O  3  Z   -0.257135  -0.285912  -0.139398  -0.113921   0.055002
   36  O  3  S   -0.204535   0.224916  -0.058395   0.104100   1.935007
   37  O  3  X   -0.027049  -0.323296  -0.390361  -0.214545  -0.677009
   38  O  3  Y    0.483025  -1.035807  -0.909951  -0.000764   0.420679
   39  O  3  Z    0.249233   0.501211   0.215251   0.339567  -0.239980
   40  O  3 XX    0.040506  -0.072484  -0.024609  -0.102049  -0.252224
   41  O  3 YY    0.007823   0.029929   0.040726  -0.066489  -0.096675
   42  O  3 ZZ    0.003141  -0.014539  -0.051434   0.079296  -0.189120
   43  O  3 XY    0.019697  -0.061334  -0.045341   0.067544   0.068403
   44  O  3 XZ    0.012118   0.017383   0.014948   0.101801   0.016462
   45  O  3 YZ    0.040672  -0.053719   0.020929  -0.058124   0.005025
   46  H  4  S    0.247446  -0.320190   0.135338   0.176981   0.102061
   47  H  4  S    0.606570  -0.500849  -0.056246   0.095703   0.108404
   48  H  5  S   -0.451022   0.253488  -0.225888  -0.123839   0.047731
   49  H  5  S    0.178762  -0.444396  -0.515518  -0.232049   0.229071
   50  F  6  S   -0.008937  -0.027468   0.024044  -0.013800   0.004397
   51  F  6  S   -0.476304  -0.352189   0.234861  -0.193347  -0.036254
   52  F  6  X    0.328791   0.186717  -0.107936  -0.296463  -0.376873
   53  F  6  Y   -0.109727  -0.199858   0.225119  -0.634874   0.053134
   54  F  6  Z   -0.177028  -0.326444   0.136862   0.280351  -0.579242
   55  F  6  S    0.294740   0.700358  -0.897985   0.384478  -0.039505
   56  F  6  X   -0.809073  -0.405052   0.177310   0.518854   0.645262
   57  F  6  Y    0.383308   0.409033  -0.409525   0.788211  -0.082272
   58  F  6  Z    0.430830   0.396961  -0.197159  -0.418197   0.997387
   59  F  6 XX   -0.301967  -0.202274   0.028548  -0.104446  -0.151507
   60  F  6 YY   -0.258762  -0.172220   0.133287  -0.074257   0.070677
   61  F  6 ZZ   -0.188690  -0.251685   0.263239  -0.046771   0.086194
   62  F  6 XY   -0.027867   0.045306  -0.028166   0.034026   0.068535
   63  F  6 XZ    0.041663  -0.006024   0.033546   0.055642  -0.113172
   64  F  6 YZ   -0.049474  -0.005900  -0.117465   0.033134   0.044726
   65  H  7  S   -0.073037   0.262643  -0.276893  -0.105343  -0.090785
   66  H  7  S   -0.426132   0.097956  -0.342190   0.101856  -0.458384

                     41         42         43         44         45
                    1.3877     1.4576     1.5113     1.6133     1.6634
                     A          A          A          A          A   
    1  C  1  S    0.033923   0.009047  -0.004769  -0.031098   0.001133
    2  C  1  S    0.401509   0.096988  -0.231763  -0.347969  -0.096616
    3  C  1  X    0.048280  -0.047139  -0.025968  -0.143003  -0.113798
    4  C  1  Y    0.170986  -0.067747  -0.021720   0.002976   0.106244
    5  C  1  Z   -0.022433  -0.137716   0.065970  -0.167505  -0.008021
    6  C  1  S   -1.126722   0.015989   1.146554   0.447117  -0.224885
    7  C  1  X   -0.613808   0.946856   0.213311   0.774375   0.726019
    8  C  1  Y   -0.592474   0.017653   0.137488   0.104155  -0.490574
    9  C  1  Z    0.776579   0.788158  -0.344700  -0.133334   0.641589
   10  C  1 XX    0.048560  -0.202289  -0.014770  -0.032310   0.339601
   11  C  1 YY   -0.200457   0.279545   0.134307  -0.112836  -0.401957
   12  C  1 ZZ    0.178417  -0.040720  -0.099423   0.069261   0.025461
   13  C  1 XY    0.015206  -0.007425  -0.082513   0.377655  -0.147706
   14  C  1 XZ   -0.235338  -0.051433   0.223257  -0.184196   0.317011
   15  C  1 YZ   -0.198244   0.074723   0.111049   0.301310   0.033248
   16  C  2  S   -0.015437  -0.018619   0.001321   0.009595  -0.014340
   17  C  2  S   -0.185156   0.043353   0.057346   0.027237  -0.259965
   18  C  2  X   -0.047640  -0.067784   0.005866   0.105976  -0.053781
   19  C  2  Y    0.052541  -0.066958  -0.036680  -0.002334   0.043971
   20  C  2  Z   -0.037170  -0.046906  -0.177800  -0.007663  -0.037472
   21  C  2  S    0.265119  -2.293543  -0.808617  -1.061825  -0.590816
   22  C  2  X   -1.091724  -1.137587   0.063394  -0.075821  -1.465295
   23  C  2  Y   -0.135939   1.027376   0.324355   0.120423   1.012364
   24  C  2  Z   -0.356270  -0.568520   0.130940  -0.009215  -0.696018
   25  C  2 XX   -0.185838   0.010903  -0.070279   0.095482  -0.158446
   26  C  2 YY    0.014016   0.018867  -0.326372  -0.113571   0.240152
   27  C  2 ZZ    0.151991  -0.042327   0.405756  -0.040937  -0.101903
   28  C  2 XY    0.179418  -0.064284   0.149794   0.230631   0.217676
   29  C  2 XZ    0.260467  -0.193779   0.028586   0.015570  -0.110297
   30  C  2 YZ    0.034738  -0.004808  -0.516378  -0.094676   0.004804
   31  O  3  S   -0.038252  -0.066958  -0.010231  -0.008353  -0.050876
   32  O  3  S   -0.662097  -1.278125  -0.169350  -0.230856  -0.560270
   33  O  3  X    0.102809   0.266994   0.045980   0.028111  -0.132954
   34  O  3  Y   -0.030779   0.002475   0.025742  -0.095919   0.055599
   35  O  3  Z   -0.017038   0.127258  -0.045578   0.002004  -0.038680
   36  O  3  S    1.922958   3.817694   0.516922   0.681090   2.423324
   37  O  3  X   -0.552436  -1.248038  -0.189045  -0.198401  -0.580653
   38  O  3  Y    0.199972   0.246797  -0.075502   0.139904   0.102830
   39  O  3  Z   -0.243981  -0.408629  -0.133571  -0.076562  -0.170138
   40  O  3 XX   -0.166039  -0.432105   0.078389  -0.074712  -0.338077
   41  O  3 YY   -0.130292  -0.328075  -0.112294   0.174974   0.165403
   42  O  3 ZZ   -0.211841  -0.176318  -0.091206  -0.227959  -0.223468
   43  O  3 XY   -0.069123   0.121058  -0.107000  -0.017748   0.030023
   44  O  3 XZ   -0.217463   0.005118  -0.370651  -0.080038   0.109271
   45  O  3 YZ    0.092370  -0.012642  -0.130663  -0.186873  -0.058496
   46  H  4  S    0.006897  -0.004851  -0.035375   0.211281  -0.386498
   47  H  4  S   -0.016582  -0.238018  -0.004666  -0.016145  -0.375212
   48  H  5  S   -0.043232  -0.128860  -0.144197   0.093558  -0.225239
   49  H  5  S   -0.185313  -0.211874  -0.005540  -0.148946  -0.153300
   50  F  6  S    0.030680  -0.004465   0.012077  -0.025050  -0.001788
   51  F  6  S    0.501579   0.020827   0.207375  -0.597782   0.027143
   52  F  6  X   -0.075616   0.244513   0.029489  -0.038269   0.232764
   53  F  6  Y   -0.301421   0.112323  -0.076442   0.149646   0.155341
   54  F  6  Z    0.145486   0.137584  -0.049979  -0.069920   0.231661
   55  F  6  S   -1.157192   0.096606  -0.514954   1.359772   0.091983
   56  F  6  X   -0.009079  -0.542589  -0.114873   0.130675  -0.413920
   57  F  6  Y    0.702085  -0.322344   0.008269  -0.299404  -0.178280
   58  F  6  Z   -0.298338  -0.344135   0.216728  -0.145765  -0.342011
   59  F  6 XX    0.051442   0.169510   0.091384  -0.061813  -0.071332
   60  F  6 YY    0.390562  -0.043721  -0.092022   0.033452  -0.088999
   61  F  6 ZZ    0.115017  -0.139727   0.223378  -0.519823   0.159289
   62  F  6 XY   -0.203535   0.084729   0.067768   0.109891  -0.016131
   63  F  6 XZ   -0.009441  -0.163279  -0.031393   0.321619   0.122494
   64  F  6 YZ   -0.091687  -0.225070   0.086502   0.078714   0.302509
   65  H  7  S    0.263709   0.105845  -0.167348  -0.195667   0.058229
   66  H  7  S    0.237504   0.573043  -0.253486   0.062472   0.240991

                     46         47         48         49         50
                    1.7464     1.7679     1.7819     1.8962     1.9087
                     A          A          A          A          A   
    1  C  1  S    0.003823   0.004769   0.013523   0.019396   0.020806
    2  C  1  S    0.005874   0.275233  -0.190991   0.491675  -0.045180
    3  C  1  X   -0.009537   0.035020  -0.045237   0.250181  -0.217825
    4  C  1  Y   -0.064546  -0.083990  -0.074308   0.002328  -0.179369
    5  C  1  Z   -0.021631  -0.056101   0.055294  -0.158584   0.014201
    6  C  1  S    0.328892  -0.605700  -0.169202  -2.965807  -1.032815
    7  C  1  X   -0.054516  -0.378442   0.626007   0.535464  -0.890221
    8  C  1  Y    0.013384  -0.047416   0.179722  -1.174364  -0.131073
    9  C  1  Z   -0.136590   0.294811   0.456120  -0.398322  -0.136774
   10  C  1 XX   -0.112701  -0.162804   0.122693  -0.024486  -0.057885
   11  C  1 YY    0.013897   0.171997   0.173855  -0.235773   0.047815
   12  C  1 ZZ    0.146953  -0.019040  -0.258278   0.238828  -0.038105
   13  C  1 XY    0.006841  -0.012183   0.069843   0.143969  -0.051994
   14  C  1 XZ    0.053081   0.078035   0.129984   0.261376   0.015069
   15  C  1 YZ    0.172025   0.133427  -0.090369  -0.016495   0.111117
   16  C  2  S    0.013852  -0.010332   0.006605   0.005009  -0.013197
   17  C  2  S    0.299279  -0.020601   0.034792   0.024220  -0.270466
   18  C  2  X   -0.100043   0.016032   0.046052  -0.032261  -0.077977
   19  C  2  Y   -0.203467   0.015811   0.003465  -0.008557  -0.113591
   20  C  2  Z    0.053102  -0.061321  -0.054661  -0.049941  -0.012261
   21  C  2  S   -1.167592   0.635293  -0.430104   0.664148   1.638207
   22  C  2  X   -0.339283   0.156521   0.239225  -0.910459  -0.458117
   23  C  2  Y    0.361478  -0.058360  -0.286202   0.536145  -1.285824
   24  C  2  Z   -0.257155  -0.205086  -0.035821  -0.111192   0.401815
   25  C  2 XX    0.021270  -0.096462   0.080884  -0.122004   0.171029
   26  C  2 YY   -0.202641   0.199192  -0.135549  -0.048631  -0.203277
   27  C  2 ZZ    0.193705  -0.062717   0.003818   0.191968   0.071630
   28  C  2 XY   -0.002873  -0.074915   0.092316   0.029988   0.263902
   29  C  2 XZ    0.005989   0.237896   0.113276  -0.203709  -0.132575
   30  C  2 YZ    0.298772  -0.091797   0.065396  -0.177559   0.092037
   31  O  3  S   -0.019360   0.009569   0.002050  -0.012847   0.008131
   32  O  3  S   -0.397668   0.015992   0.075899  -0.053895   0.295433
   33  O  3  X    0.030945   0.122510  -0.009843  -0.083745  -0.174402
   34  O  3  Y   -0.096917   0.053325  -0.093076   0.036675  -0.123849
   35  O  3  Z    0.032849  -0.061622  -0.024681  -0.029055   0.020876
   36  O  3  S    1.301577  -0.293015  -0.247980   0.610230  -0.866676
   37  O  3  X   -0.391153  -0.025179   0.102800  -0.096755   0.485615
   38  O  3  Y    0.191659  -0.112138   0.129167   0.017240   0.298421
   39  O  3  Z   -0.141168   0.153411   0.072655  -0.079176  -0.026873
   40  O  3 XX   -0.304052   0.210427  -0.150458   0.058041  -0.208624
   41  O  3 YY   -0.079738   0.454242   0.129411  -0.088098   0.602022
   42  O  3 ZZ    0.151618  -0.635046   0.031080  -0.003503  -0.242095
   43  O  3 XY   -0.302832   0.264341  -0.400660   0.068195  -0.179920
   44  O  3 XZ    0.023063   0.104629   0.032311   0.013299   0.162258
   45  O  3 YZ    0.343051   0.368440   0.470295   0.316697  -0.241772
   46  H  4  S    0.296941  -0.251428   0.237148  -0.241981   0.374207
   47  H  4  S   -0.120647  -0.001574   0.115780  -0.188920   0.250866
   48  H  5  S    0.264274  -0.030545  -0.108773   0.100522   0.039035
   49  H  5  S    0.006132   0.032434  -0.027158   0.146403   0.001968
   50  F  6  S    0.004237   0.003722  -0.018451  -0.073055   0.007374
   51  F  6  S    0.049006   0.022649  -0.321187  -1.349710   0.315749
   52  F  6  X   -0.067001  -0.127147   0.091730   0.066790  -0.006844
   53  F  6  Y   -0.037759  -0.136575  -0.047562   0.064560  -0.055089
   54  F  6  Z   -0.111439  -0.006276   0.164235  -0.020855  -0.000141
   55  F  6  S   -0.155475  -0.087637   0.837073   3.890825  -0.697315
   56  F  6  X    0.069630   0.171360  -0.030725   0.475058  -0.015424
   57  F  6  Y    0.036722   0.154675  -0.075389  -0.430221   0.144387
   58  F  6  Z    0.156608  -0.032819  -0.327033  -0.276900   0.073453
   59  F  6 XX    0.178803   0.250232  -0.135796  -0.739186  -0.048815
   60  F  6 YY   -0.423587  -0.223746   0.150865  -0.239470  -0.001777
   61  F  6 ZZ    0.304393   0.012368  -0.316890  -0.204407   0.271668
   62  F  6 XY   -0.188410   0.035686   0.409830  -0.087462  -0.221389
   63  F  6 XZ    0.359759   0.053919  -0.239526   0.017175  -0.286925
   64  F  6 YZ    0.111715  -0.011262   0.115429  -0.455717  -0.439324
   65  H  7  S   -0.225985   0.026770   0.342372  -0.082202   0.008108
   66  H  7  S   -0.043859   0.174702   0.254089   0.321743  -0.152986

                     51         52         53         54         55
                    2.0051     2.0661     2.1531     2.3167     2.3783
                     A          A          A          A          A   
    1  C  1  S   -0.057985  -0.029027   0.043861  -0.038501   0.053427
    2  C  1  S   -0.482412  -0.055564   0.137422  -0.161883  -0.099926
    3  C  1  X   -0.061946  -0.324721  -0.054941   0.175036  -0.339700
    4  C  1  Y    0.171754   0.005175  -0.146154   0.189414  -0.266698
    5  C  1  Z   -0.044505   0.051088  -0.057845   0.146989  -0.026957
    6  C  1  S    3.679060   0.812151  -2.460350   1.531373  -0.789327
    7  C  1  X   -0.048843   0.011491  -0.340155   0.898866  -0.421865
    8  C  1  Y    1.122943   0.314805  -0.701914   0.554083  -0.247768
    9  C  1  Z   -0.326232   0.303615   0.112473   0.568036  -0.326785
   10  C  1 XX    0.123513   0.274407   0.014956   0.213324  -0.129227
   11  C  1 YY   -0.149679  -0.105111   0.141750   0.382059   0.062861
   12  C  1 ZZ   -0.007637  -0.245465  -0.220374  -0.678082   0.129196
   13  C  1 XY   -0.013001  -0.026091   0.185958   0.395640   0.202278
   14  C  1 XZ   -0.137098   0.049100   0.043083  -0.299647  -0.108351
   15  C  1 YZ    0.323958   0.525961  -0.144945   0.198665  -0.479392
   16  C  2  S    0.010339   0.006455  -0.091611   0.040042   0.002388
   17  C  2  S    0.040568  -0.019178  -0.610935  -0.226106   0.055698
   18  C  2  X    0.076146   0.018841   0.094850   0.432465  -0.030384
   19  C  2  Y    0.089822   0.036207   0.050160   0.185036   0.016187
   20  C  2  Z   -0.002947  -0.104039   0.014188  -0.002856   0.124091
   21  C  2  S   -1.415701  -0.274450   2.635831  -1.211342   0.946696
   22  C  2  X    0.845559   0.078734  -0.933814   0.174507  -0.316839
   23  C  2  Y    0.664692   0.259824  -0.663442   0.742342  -0.449630
   24  C  2  Z    0.170538  -0.370989   0.089961  -0.295791   0.258812
   25  C  2 XX   -0.074339  -0.245013   0.461284  -0.051214  -0.216437
   26  C  2 YY   -0.021273   0.566989  -0.017362  -0.190525   0.202552
   27  C  2 ZZ    0.044536  -0.323891  -0.702638   0.278818   0.066264
   28  C  2 XY    0.000113   0.167968   0.020033   0.118292   0.772353
   29  C  2 XZ   -0.202731   0.094207   0.362052  -0.198526  -0.081237
   30  C  2 YZ   -0.429120   0.195849  -0.432775   0.273010  -0.170375
   31  O  3  S   -0.004949  -0.009643   0.010316  -0.001116   0.000834
   32  O  3  S    0.095334   0.132564  -0.166208  -0.018154   0.423439
   33  O  3  X   -0.039730  -0.130242   0.252684  -0.090782  -0.281341
   34  O  3  Y    0.089831   0.046340  -0.145037   0.084377   0.073074
   35  O  3  Z    0.036670  -0.099800   0.117341  -0.042942  -0.067333
   36  O  3  S   -0.123735   0.050740  -0.204362   0.370547  -0.694008
   37  O  3  X   -0.045804  -0.013239   0.107772  -0.138812   0.399989
   38  O  3  Y   -0.238109  -0.020888   0.191547  -0.259779  -0.105913
   39  O  3  Z   -0.095960   0.174203  -0.079964   0.070222  -0.062727
   40  O  3 XX   -0.052078   0.136079  -0.037126   0.242447  -0.050933
   41  O  3 YY   -0.061725  -0.243039  -0.168605  -0.102803  -0.110878
   42  O  3 ZZ    0.124957   0.149391   0.067519  -0.062695   0.358463
   43  O  3 XY   -0.043042  -0.209924  -0.171753   0.391185   0.248382
   44  O  3 XZ    0.300897  -0.359012   0.108941  -0.097182   0.232556
   45  O  3 YZ    0.419278   0.020697   0.028019   0.187129   0.092121
   46  H  4  S   -0.153375  -0.270463  -0.266149   0.118704  -0.088345
   47  H  4  S   -0.155330  -0.100355   0.000694  -0.318987   0.172514
   48  H  5  S    0.039541   0.042411  -0.095065  -0.010780   0.037159
   49  H  5  S    0.048213   0.010114  -0.003936  -0.190182   0.080868
   50  F  6  S    0.051116   0.025130  -0.022596   0.009863   0.001915
   51  F  6  S    1.096148   0.030480  -0.095722   0.122645   0.196120
   52  F  6  X   -0.002596  -0.236726   0.175065   0.081884   0.080999
   53  F  6  Y    0.112440   0.076762  -0.014337   0.088250  -0.150019
   54  F  6  Z   -0.122001   0.090380  -0.007974   0.127165  -0.106363
   55  F  6  S   -3.109506  -0.729319   0.829767  -0.517272  -0.088135
   56  F  6  X   -0.479738   0.020517  -0.011880  -0.411650   0.133323
   57  F  6  Y    0.071636   0.103712  -0.125066  -0.170865   0.247234
   58  F  6  Z    0.495204   0.019824  -0.131991  -0.264137   0.141784
   59  F  6 XX    0.256239   0.202725  -0.146189  -0.331939   0.469610
   60  F  6 YY    0.570803  -0.125071  -0.220496   0.007430  -0.347158
   61  F  6 ZZ    0.026607   0.032948   0.221547   0.422815   0.032103
   62  F  6 XY   -0.228528   0.019387  -0.293991  -0.196099   0.185724
   63  F  6 XZ   -0.102229  -0.144162   0.183647   0.043953   0.051005
   64  F  6 YZ    0.001750  -0.368029  -0.109215   0.164373  -0.115192
   65  H  7  S   -0.461658  -0.033797   0.344096   0.441606   0.024799
   66  H  7  S   -0.421050   0.015008   0.052280   0.030171  -0.168075

                     56         57         58         59         60
                    2.5437     2.5947     2.6890     2.8447     2.8998
[...]
   39  O  3  Z    0.169726   0.211063  -0.073817  -0.053067   0.186185
   40  O  3 XX    0.008394   0.002071  -0.002402   0.008398   0.001455
   41  O  3 YY   -0.000652   0.001181  -0.002223   0.003415  -0.001011
   42  O  3 ZZ   -0.010702   0.001740  -0.005903   0.005055   0.003860
   43  O  3 XY    0.008991  -0.000594   0.005767   0.005224   0.004881
   44  O  3 XZ    0.001315   0.000439  -0.002442   0.000915  -0.007872
   45  O  3 YZ    0.009459   0.000094  -0.003323  -0.000778   0.003152
   46  H  4  S    0.176058  -0.003094   0.055827   0.089416  -0.011572
   47  H  4  S    0.273266  -0.008069   1.281016   0.856857  -0.570761
   48  H  5  S    0.040693  -0.062137  -0.004686  -0.070211  -0.036870
   49  H  5  S    0.091847  -0.221376   0.246287  -1.634988  -0.436777
   50  F  6  S    0.000037  -0.027704   0.011526   0.011135   0.075033
   51  F  6  S    0.000150   0.036274  -0.024124   0.011948  -0.075739
   52  F  6  X    0.111629   0.122830  -0.075352  -0.065942  -0.154751
   53  F  6  Y    0.118016   0.005529  -0.006435   0.052021   0.144674
   54  F  6  Z    0.003535  -0.102073  -0.015433   0.039304   0.200762
   55  F  6  S    0.001698   0.244762  -0.097836  -0.156322  -0.830035
   56  F  6  X    0.087672   0.128197  -0.112297  -0.084097  -0.261234
   57  F  6  Y    0.094729  -0.010144  -0.022307   0.079253   0.208000
   58  F  6  Z    0.004854  -0.116901  -0.021974   0.051822   0.306658
   59  F  6 XX    0.000112  -0.011616   0.004810   0.019053   0.038002
   60  F  6 YY   -0.000596  -0.016242  -0.001749   0.013659   0.040288
   61  F  6 ZZ    0.000937  -0.008478  -0.001685   0.017509   0.036121
   62  F  6 XY    0.000123  -0.003192  -0.003219  -0.002653   0.002186
   63  F  6 XZ    0.001160  -0.002360   0.005141  -0.003428   0.008962
   64  F  6 YZ   -0.000367   0.002537  -0.002821   0.006145  -0.000039
   65  H  7  S    0.052951  -0.004233   0.067558  -0.004879   0.040669
   66  H  7  S    0.122639   0.003719   1.299576  -0.732042   0.348604

                     21         22         23         24         25
                    0.1675     0.2519     0.2609     0.5036     0.5344
                     A          A          A          A          A   
    1  C  1  S   -0.062308  -0.029078   0.090296   0.017774   0.011346
    2  C  1  S    0.109494   0.004653  -0.123976  -0.224050  -0.328569
    3  C  1  X   -0.240761   0.062241  -0.199880   0.620130  -0.410755
    4  C  1  Y    0.329598   0.149072  -0.176992  -0.042577  -0.775944
    5  C  1  Z   -0.132684  -0.086454  -0.137495  -0.492572  -0.166955
    6  C  1  S    0.684692   0.983594  -1.322000   0.323914   0.547273
    7  C  1  X   -0.607263   0.542047  -1.147524  -0.750143   0.760094
    8  C  1  Y    0.951545   0.722927  -0.815464   0.061915   1.558356
    9  C  1  Z   -0.425759  -0.381910  -0.868295   0.653236   0.448485
   10  C  1 XX   -0.002282   0.002435   0.022891   0.034987  -0.006437
   11  C  1 YY    0.006049  -0.025987  -0.003527  -0.017575  -0.006733
   12  C  1 ZZ   -0.004527   0.007419  -0.013702   0.026725  -0.003583
   13  C  1 XY   -0.005554  -0.014784   0.032711  -0.022980  -0.041667
   14  C  1 XZ    0.005862   0.018696  -0.000774  -0.052419  -0.013389
   15  C  1 YZ   -0.015971   0.012281   0.028939   0.005558  -0.044510
   16  C  2  S    0.068130  -0.004371  -0.078737   0.019507  -0.038947
   17  C  2  S   -0.099267  -0.056516   0.031569   0.022263  -0.097980
   18  C  2  X    0.091510   0.193033  -0.271342   0.319241   0.076369
   19  C  2  Y   -0.139625   0.169240  -0.353031  -0.398489  -0.136194
   20  C  2  Z    0.023574   0.089986   0.225450  -0.317599  -0.011989
   21  C  2  S   -1.017477   0.777376   1.940648   0.051636  -0.665722
   22  C  2  X    0.265199   1.851409  -0.379083  -0.244080   0.224493
   23  C  2  Y   -0.336322   0.558209  -1.081359   0.430664   0.314470
   24  C  2  Z    0.184203   1.286668   1.383966   0.212961  -0.288762
   25  C  2 XX    0.020827   0.008609  -0.006602   0.016365  -0.065350
   26  C  2 YY   -0.012924   0.017272  -0.002208   0.030520  -0.031055
   27  C  2 ZZ    0.005560  -0.005445  -0.000734  -0.009978  -0.010046
   28  C  2 XY    0.001840   0.007253  -0.017910   0.034711  -0.104552
   29  C  2 XZ    0.013244  -0.011504  -0.000479   0.027223  -0.003274
   30  C  2 YZ    0.002564   0.001480   0.015820  -0.005126   0.039914
   31  O  3  S   -0.013527   0.100984   0.056658  -0.003108   0.006373
   32  O  3  S    0.035802  -0.088720  -0.022792   0.005820  -0.154731
   33  O  3  X   -0.105114   0.042790   0.133569   0.001888   0.064749
   34  O  3  Y    0.063002  -0.070499   0.078845  -0.039273   0.067121
   35  O  3  Z   -0.021838   0.150424   0.010945  -0.029809  -0.017519
   36  O  3  S    0.083261  -2.043083  -1.237385   0.014937   0.327568
   37  O  3  X   -0.122052   0.429397   0.552111  -0.007243  -0.061436
   38  O  3  Y    0.090864  -0.143723   0.250428  -0.056972  -0.010883
   39  O  3  Z   -0.033961   0.696125   0.211675  -0.004645  -0.013675
   40  O  3 XX   -0.003086   0.035135   0.031222  -0.027276  -0.023963
   41  O  3 YY   -0.001465   0.066444   0.043770  -0.003486  -0.042675
   42  O  3 ZZ   -0.000519   0.026000   0.017353   0.020378  -0.036009
   43  O  3 XY    0.003796  -0.000964  -0.004024   0.022422   0.009814
   44  O  3 XZ   -0.002280  -0.037698  -0.017986  -0.015332   0.000659
   45  O  3 YZ    0.000726  -0.005182   0.011994   0.014163   0.016285
   46  H  4  S    0.028825  -0.034815  -0.061885   0.050055  -0.240190
   47  H  4  S    0.861302  -0.099492   1.142614  -0.031910  -0.095610
   48  H  5  S    0.060245  -0.053972  -0.097132   0.040740   0.232041
   49  H  5  S    1.150655   0.312914   0.163316   0.031079   0.287657
   50  F  6  S    0.036508  -0.005671  -0.021683   0.011045   0.006641
   51  F  6  S   -0.026886  -0.020801  -0.031670   0.069865   0.014680
   52  F  6  X   -0.058075  -0.052125   0.101580   0.154825   0.002272
   53  F  6  Y   -0.005055  -0.073505   0.010810  -0.081849  -0.111861
   54  F  6  Z    0.157990  -0.021227  -0.030009  -0.171145  -0.044702
   55  F  6  S   -0.425102   0.123571   0.380853  -0.551018  -0.236020
   56  F  6  X   -0.096846  -0.027583   0.234279  -0.079365  -0.145031
   57  F  6  Y   -0.038631  -0.103401   0.032260   0.052259  -0.119811
   58  F  6  Z    0.254512  -0.011944  -0.041537   0.093613   0.035874
   59  F  6 XX    0.017215  -0.006660  -0.027590   0.009155  -0.029955
   60  F  6 YY    0.024491  -0.020357  -0.027540   0.052297   0.032589
   61  F  6 ZZ    0.027167  -0.012977  -0.038921  -0.012160   0.009230
   62  F  6 XY   -0.000980   0.001429   0.012444   0.036617  -0.016013
   63  F  6 XZ   -0.001356   0.002689   0.003715   0.074028   0.034602
   64  F  6 YZ   -0.004269   0.000296   0.008384  -0.041495   0.003507
   65  H  7  S   -0.053330   0.113711  -0.041965   0.020699   0.063069
   66  H  7  S   -1.360528  -0.192642  -0.659096   0.028755   0.198341

                     26
                    0.5525
                     A   
    1  C  1  S   -0.010982
    2  C  1  S    0.206761
    3  C  1  X   -0.215050
    4  C  1  Y    0.155277
    5  C  1  Z    0.511730
    6  C  1  S   -0.403479
    7  C  1  X    0.397153
    8  C  1  Y   -0.457996
    9  C  1  Z   -1.204935
   10  C  1 XX   -0.024602
   11  C  1 YY    0.024766
   12  C  1 ZZ   -0.042259
   13  C  1 XY    0.005340
   14  C  1 XZ    0.015294
   15  C  1 YZ   -0.009161
   16  C  2  S   -0.009948
   17  C  2  S   -0.104230
   18  C  2  X    0.502569
   19  C  2  Y   -0.503220
   20  C  2  Z   -0.287587
   21  C  2  S    0.532581
   22  C  2  X   -0.609335
   23  C  2  Y    0.714831
   24  C  2  Z    0.816770
   25  C  2 XX    0.006972
   26  C  2 YY    0.000506
   27  C  2 ZZ   -0.029808
   28  C  2 XY   -0.021518
   29  C  2 XZ   -0.001725
   30  C  2 YZ    0.007125
   31  O  3  S    0.012329
   32  O  3  S    0.025172
   33  O  3  X   -0.006543
   34  O  3  Y   -0.119364
   35  O  3  Z    0.017268
   36  O  3  S   -0.377348
   37  O  3  X    0.208663
   38  O  3  Y   -0.058198
   39  O  3  Z    0.037008
   40  O  3 XX   -0.033049
   41  O  3 YY    0.025627
   42  O  3 ZZ    0.055077
   43  O  3 XY    0.007687
   44  O  3 XZ    0.004264
   45  O  3 YZ    0.031452
   46  H  4  S   -0.127965
   47  H  4  S    0.083893
   48  H  5  S    0.046039
   49  H  5  S   -0.017515
   50  F  6  S   -0.014930
   51  F  6  S   -0.155666
   52  F  6  X   -0.149879
   53  F  6  Y   -0.058455
   54  F  6  Z    0.138591
   55  F  6  S    0.787716
   56  F  6  X    0.134299
   57  F  6  Y   -0.041041
   58  F  6  Z   -0.097827
   59  F  6 XX   -0.038499
   60  F  6 YY   -0.076759
   61  F  6 ZZ   -0.048742
   62  F  6 XY   -0.004667
   63  F  6 XZ   -0.066254
   64  F  6 YZ    0.020374
   65  H  7  S   -0.146133
   66  H  7  S   -0.203107

     ---------------------------------------------------------------------
     PROPERTIES FOR THE B3LYP    DFT FUNCTIONAL (RHF  TYPE) DENSITY MATRIX
     ---------------------------------------------------------------------

          -----------------
          ENERGY COMPONENTS
          -----------------

         WAVEFUNCTION NORMALIZATION =       1.0000000000

                ONE ELECTRON ENERGY =    -574.1983526336
                TWO ELECTRON ENERGY =     206.7988678741
           NUCLEAR REPULSION ENERGY =     114.4773926804
                                      ------------------
                       TOTAL ENERGY =    -252.9220920792

 ELECTRON-ELECTRON POTENTIAL ENERGY =     206.7988678741
  NUCLEUS-ELECTRON POTENTIAL ENERGY =    -825.2384215786
   NUCLEUS-NUCLEUS POTENTIAL ENERGY =     114.4773926804
                                      ------------------
             TOTAL POTENTIAL ENERGY =    -503.9621610242
               TOTAL KINETIC ENERGY =     251.0400689450
                 VIRIAL RATIO (V/T) =       2.0074969034

          ---------------------------------------
          MULLIKEN AND LOWDIN POPULATION ANALYSES
          ---------------------------------------

     ATOMIC MULLIKEN POPULATION IN EACH MOLECULAR ORBITAL

                      1          2          3          4          5

                  2.000000   2.000000   2.000000   2.000000   2.000000

    1            -0.000037  -0.000007   0.000744   1.997880   0.184222
    2            -0.000014  -0.000937   1.999736   0.001143   0.016701
    3             0.000000   2.000955  -0.000909   0.000001   0.003290
    4            -0.000000  -0.000010   0.000416   0.000003   0.000082
    5            -0.000001  -0.000001   0.000014   0.000525   0.002902
    6             2.000052   0.000000   0.000002  -0.000061   1.790598
    7            -0.000000  -0.000000  -0.000003   0.000510   0.002205

                      6          7          8          9         10

                  2.000000   2.000000   2.000000   2.000000   2.000000

    1             0.015507   0.984565   0.357394   0.646524   0.588457
    2             0.510087   0.458798   0.743159   0.381483   0.101814
    3             1.465821   0.091142   0.236783   0.259928   0.044303
    4            -0.002230   0.031124   0.305008   0.096620   0.000046
    5            -0.000211   0.095777   0.105872   0.008841   0.201242
    6             0.010886   0.227921   0.219042   0.352471   1.050993
    7             0.000140   0.110672   0.032743   0.254132   0.013144

                     11         12         13         14         15

                  2.000000   2.000000   2.000000   2.000000   2.000000

    1             0.497203   0.103622   0.051370   0.070053   0.255840
    2             0.297333   0.324930   0.622253   0.192113   0.033551
    3             0.325251   1.133159   1.111589   0.347725   0.065679
    4             0.073827   0.115364   0.000308   0.001086   0.012308
    5             0.073210   0.012284   0.015259   0.051333   0.249559
    6             0.651661   0.269188   0.165330   1.314283   1.145647
    7             0.081516   0.041454   0.033892   0.023407   0.237415

                     16

                  2.000000

    1             0.232156
    2             0.109131
    3             1.260328
    4             0.243318
    5             0.022796
    6             0.098808
    7             0.033462

               ----- POPULATIONS IN EACH AO -----
                             MULLIKEN      LOWDIN
              1  C  1  S      1.99191     1.97705
              2  C  1  S      0.69892     0.36991
              3  C  1  X      0.65045     0.57811
              4  C  1  Y      0.73615     0.65163
              5  C  1  Z      0.63814     0.56496
              6  C  1  S      0.54265     0.31920
              7  C  1  X      0.19844     0.32514
              8  C  1  Y      0.27386     0.41242
              9  C  1  Z      0.20196     0.33983
             10  C  1 XX     -0.00002     0.15405
             11  C  1 YY      0.00611     0.16097
             12  C  1 ZZ      0.00861     0.16573
             13  C  1 XY      0.01403     0.02805
             14  C  1 XZ      0.01759     0.03332
             15  C  1 YZ      0.00669     0.01308
             16  C  2  S      1.99193     1.97294
             17  C  2  S      0.73711     0.37588
             18  C  2  X      0.65773     0.58006
             19  C  2  Y      0.61278     0.53760
             20  C  2  Z      0.68544     0.60335
             21  C  2  S      0.47131     0.31478
             22  C  2  X      0.16907     0.29786
             23  C  2  Y      0.24212     0.35501
             24  C  2  Z      0.17384     0.32579
             25  C  2 XX      0.00156     0.17403
             26  C  2 YY     -0.01180     0.13454
             27  C  2 ZZ      0.01068     0.18419
             28  C  2 XY      0.01448     0.03133
             29  C  2 XZ      0.01643     0.03290
             30  C  2 YZ      0.01861     0.03885
             31  O  3  S      1.99268     1.97654
             32  O  3  S      0.92017     0.72081
             33  O  3  X      0.93389     0.87688
             34  O  3  Y      0.97813     0.93030
             35  O  3  Z      0.94242     0.88003
             36  O  3  S      1.00577     0.47691
             37  O  3  X      0.50695     0.57011
             38  O  3  Y      0.59345     0.62669
             39  O  3  Z      0.47015     0.56242
             40  O  3 XX     -0.00342     0.17826
             41  O  3 YY     -0.01001     0.16859
             42  O  3 ZZ     -0.00224     0.18030
             43  O  3 XY      0.00397     0.00666
             44  O  3 XZ      0.00792     0.01625
             45  O  3 YZ      0.00523     0.00882
             46  H  4  S      0.53271     0.49483
             47  H  4  S      0.34456     0.38104
             48  H  5  S      0.53352     0.49288
             49  H  5  S      0.30588     0.34764
             50  F  6  S      1.99326     1.97696
             51  F  6  S      0.94517     0.85457
             52  F  6  X      1.07771     1.03538
             53  F  6  Y      1.17480     1.13931
             54  F  6  Z      1.05275     1.00549
             55  F  6  S      0.98167     0.52504
             56  F  6  X      0.66377     0.70116
             57  F  6  Y      0.71757     0.75641
             58  F  6  Z      0.63687     0.69089
             59  F  6 XX      0.01631     0.16550
             60  F  6 YY      0.00776     0.16208
             61  F  6 ZZ      0.01910     0.16683
             62  F  6 XY      0.00224     0.00419
             63  F  6 XZ      0.00545     0.00795
             64  F  6 YZ      0.00239     0.00452
             65  H  7  S      0.53795     0.49828
             66  H  7  S      0.32674     0.35695

          ----- MULLIKEN ATOMIC OVERLAP POPULATIONS -----
          (OFF-DIAGONAL ELEMENTS NEED TO BE MULTIPLIED BY 2)

             1           2           3           4           5

    1    4.9595059
    2    0.2857255   4.7079300
    3   -0.0618995   0.5425848   7.9199984
    4   -0.1018110   0.3325209  -0.0565182   0.6874289
    5    0.3340886  -0.0249870  -0.0022076   0.0063150   0.6002526
    6    0.2534276  -0.0246251  -0.0010116   0.0026020  -0.0286497
    7    0.3164564  -0.0278673   0.0040991   0.0067304  -0.0454106

             6           7

    6    9.1269931
    7   -0.0319155   0.6425968

          TOTAL MULLIKEN AND LOWDIN ATOMIC POPULATIONS
       ATOM         MULL.POP.    CHARGE          LOW.POP.     CHARGE
    1 C             5.985493    0.014507         6.093455   -0.093455
    2 C             5.791282    0.208718         5.959075    0.040925
    3 O             8.345045   -0.345045         8.179558   -0.179558
    4 H             0.877268    0.122732         0.875878    0.124122
    5 H             0.839401    0.160599         0.840516    0.159484
    6 F             9.296821   -0.296821         9.196290   -0.196290
    7 H             0.864689    0.135311         0.855227    0.144773

          -------------------------------
          BOND ORDER AND VALENCE ANALYSIS     BOND ORDER THRESHOLD=0.050
          -------------------------------

                   BOND                       BOND                       BOND
  ATOM PAIR DIST  ORDER      ATOM PAIR DIST  ORDER      ATOM PAIR DIST  ORDER
    1   2  1.533  0.906        1   5  1.097  0.913        1   6  1.387  0.946
    1   7  1.097  0.915        2   3  1.208  1.994        2   4  1.112  0.882

                       TOTAL       BONDED        FREE
      ATOM            VALENCE     VALENCE     VALENCE
    1 C                 3.695       3.695      -0.000
    2 C                 3.809       3.809       0.000
    3 O                 2.081       2.081       0.000
    4 H                 0.925       0.925       0.000
    5 H                 0.926       0.926       0.000
    6 F                 1.016       1.016       0.000
    7 H                 0.929       0.929      -0.000

          ---------------------
          ELECTROSTATIC MOMENTS
          ---------------------

 POINT   1           X           Y           Z (BOHR)    CHARGE
                 0.086668    0.144421    0.506631        0.00 (A.U.)
         DX          DY          DZ         /D/  (DEBYE)
    -0.574406   -0.661247   -2.632431    2.774326
 ...... END OF PROPERTY EVALUATION ......
 STEP CPU TIME =     0.03 TOTAL CPU TIME =       1154.9 (     19.2 MIN)
 TOTAL WALL CLOCK TIME=       1170.6 SECONDS, CPU UTILIZATION IS    98.66%
  $VIB   
          IVIB=   0 IATOM=   0 ICOORD=   0 E=     -252.9220920792
  5.556359938E-05-3.773012107E-05-2.051048137E-05 2.980446876E-05-3.827913449E-05
  4.129201619E-06-1.872013800E-05 9.006179325E-06-1.557753896E-05-2.160751208E-06
  3.140337718E-05-4.859968569E-06-1.747531448E-05 1.907501597E-05 1.855169355E-06
 -4.516984469E-05 1.163573199E-05 3.202878928E-05-1.842019765E-06 4.888951083E-06
  2.934828644E-06
 -5.744064311E-01-6.612473426E-01-2.632431108E+00
 ......END OF GEOMETRY SEARCH......
 STEP CPU TIME =     0.00 TOTAL CPU TIME =       1154.9 (     19.2 MIN)
 TOTAL WALL CLOCK TIME=       1170.7 SECONDS, CPU UTILIZATION IS    98.66%
                998100  WORDS OF DYNAMIC MEMORY USED
 EXECUTION OF GAMESS TERMINATED NORMALLY Fri Oct 18 00:06:05 2019
 DDI: 263640 bytes (0.3 MB / 0 MWords) used by master data server.

 ----------------------------------------
 CPU timing information for all processes
 ========================================
 0: 1125.246 + 29.717 = 1154.963
 ----------------------------------------
 ddikick.x: exited gracefully.
----- accounting info -----
Files used on the master node crcfe01.crc.nd.edu were:
-rw-r--r-- 1 cdrisko campus      486 Oct 17 23:46 /afs/crc.nd.edu/user/c/cdrisko/TS_opt.F05
-rw-r--r-- 1 cdrisko campus  2035325 Oct 18 00:06 /afs/crc.nd.edu/user/c/cdrisko/TS_opt.F07
-rw-r--r-- 1 cdrisko campus 27182416 Oct 18 00:05 /afs/crc.nd.edu/user/c/cdrisko/TS_opt.F08
-rw-r--r-- 1 cdrisko campus  2126800 Oct 18 00:06 /afs/crc.nd.edu/user/c/cdrisko/TS_opt.F10
-rw-r--r-- 1 cdrisko campus  2041032 Oct 18 00:05 /afs/crc.nd.edu/user/c/cdrisko/TS_opt.F22
Fri Oct 18 00:06:08 EDT 2019
0.409u 0.204s 19:34.28 0.0%	0+0k 0+16io 0pf+0w
