----- GAMESS execution script 'rungms' -----
This job is running on host crcfe02.crc.nd.edu
under operating system Linux at Thu Oct 17 15:35:43 EDT 2019
Available scratch disk space (Kbyte units) at beginning of the job is
Filesystem      1K-blocks  Used  Available Use% Mounted on
AFS            2147483647     0 2147483647   0% /afs
GAMESS temporary binary files will be written to /afs/crc.nd.edu/user/c/cdrisko
GAMESS supplementary output files will be written to /afs/crc.nd.edu/user/c/cdrisko/scr
Copying input file TS_vib.inp to your run's scratch directory...

 Distributed Data Interface kickoff program.
 Initiating 1 compute processes on 1 nodes to run the following command:
 /afs/crc.nd.edu/x86_64_linux/g/gamess/nov-2017/gamess/gamess.00.x TS_vib 

          ******************************************************
          *         GAMESS VERSION = 11 NOV 2017 (R3)         *
          *             FROM IOWA STATE UNIVERSITY             *
          * M.W.SCHMIDT, K.K.BALDRIDGE, J.A.BOATZ, S.T.ELBERT, *
          *   M.S.GORDON, J.H.JENSEN, S.KOSEKI, N.MATSUNAGA,   *
          *          K.A.NGUYEN, S.J.SU, T.L.WINDUS,           *
          *       TOGETHER WITH M.DUPUIS, J.A.MONTGOMERY       *
          *         J.COMPUT.CHEM.  14, 1347-1363(1993)        *
          **************** 64 BIT INTEL VERSION ****************

  SINCE 1993, STUDENTS AND POSTDOCS WORKING AT IOWA STATE UNIVERSITY
  AND ALSO IN THEIR VARIOUS JOBS AFTER LEAVING ISU HAVE MADE IMPORTANT
  CONTRIBUTIONS TO THE CODE:
     IVANA ADAMOVIC, CHRISTINE AIKENS, YURI ALEXEEV, POOJA ARORA,
     ANDREY ASADCHEV, ROB BELL, PRADIPTA BANDYOPADHYAY, JONATHAN BENTZ,
     BRETT BODE, KURT BRORSEN, CALEB CARLIN, GALINA CHABAN, WEI CHEN,
     CHEOL HO CHOI, PAUL DAY, ALBERT DEFUSCO, NUWAN DESILVA, TIM DUDLEY,
     DMITRI FEDOROV, ALEX FINDLATER, GRAHAM FLETCHER, MARK FREITAG,
     KURT GLAESEMANN, ANASTASIA GUININA,
     DAN KEMP, GRANT MERRILL, NORIYUKI MINEZAWA, JONATHAN MULLIN,
     TAKESHI NAGATA, SEAN NEDD, HEATHER NETZLOFF, BOSILJKA NJEGIC, RYAN OLSON,
     MIKE PAK, BUU PHAM,
     SPENCER PRUITT, LUKE ROSKOP, JIM SHOEMAKER, LYUDMILA SLIPCHENKO,
     TONY SMITH, SAROM SOK LEANG, JIE SONG, TETSUYA TAKETSUGU, SIMON WEBB,
     PENG XU, SOOHAENG YOO, FEDERICO ZAHARIEV

  ADDITIONAL CODE HAS BEEN PROVIDED BY COLLABORATORS IN OTHER GROUPS:
     IOWA STATE UNIVERSITY:
          JOE IVANIC, AARON WEST, LAIMUTIS BYTAUTAS, KLAUS RUEDENBERG
     UNIVERSITY OF TOKYO: KIMIHIKO HIRAO, TAKAHITO NAKAJIMA,
          TAKAO TSUNEDA, MUNEAKI KAMIYA, SUSUMU YANAGISAWA,
          KIYOSHI YAGI, MAHITO CHIBA, SEIKEN TOKURA, NAOAKI KAWAKAMI
     UNIVERSITY OF AARHUS: FRANK JENSEN
     UNIVERSITY OF IOWA: VISVALDAS KAIRYS, HUI LI
     NATIONAL INST. OF STANDARDS AND TECHNOLOGY: WALT STEVENS, DAVID GARMER
     UNIVERSITY OF PISA: BENEDETTA MENNUCCI, JACOPO TOMASI
     UNIVERSITY OF MEMPHIS: HENRY KURTZ, PRAKASHAN KORAMBATH
     UNIVERSITY OF ALBERTA: TOBY ZENG, MARIUSZ KLOBUKOWSKI
     UNIVERSITY OF NEW ENGLAND: MARK SPACKMAN
     MIE UNIVERSITY: HIROAKI UMEDA
     NAT. INST. OF ADVANCED INDUSTRIAL SCIENCE AND TECHNOLOGY: KAZUO KITAURA
     MICHIGAN STATE UNIVERSITY:
          KAROL KOWALSKI, MARTA WLOCH, JEFFREY GOUR, JESSE LUTZ,
          WEI LI, PIOTR PIECUCH
     UNIVERSITY OF SILESIA: MONIKA MUSIAL, STANISLAW KUCHARSKI
     FACULTES UNIVERSITAIRES NOTRE-DAME DE LA PAIX:
          OLIVIER QUINET, BENOIT CHAMPAGNE
     UNIVERSITY OF CALIFORNIA - SANTA BARBARA: BERNARD KIRTMAN
     INSTITUTE FOR MOLECULAR SCIENCE:
          KAZUYA ISHIMURA, MICHIO KATOUDA, AND SHIGERU NAGASE
     UNIVERSITY OF NOTRE DAME: ANNA POMOGAEVA, DAN CHIPMAN
     KYUSHU UNIVERSITY:
          HARUYUKI NAKANO,
          FENG LONG GU, JACEK KORCHOWIEC, MARCIN MAKOWSKI, AND YURIKO AOKI,
          HIROTOSHI MORI AND EISAKU MIYOSHI
     PENNSYLVANIA STATE UNIVERSITY:
          TZVETELIN IORDANOV, CHET SWALINA, JONATHAN SKONE,
          SHARON HAMMES-SCHIFFER
     WASEDA UNIVERSITY:
          MASATO KOBAYASHI, TOMOKO AKAMA, TSUGUKI TOUMA,
          TAKESHI YOSHIKAWA, YASUHIRO IKABATA, JUNJI SEINO,
          YUYA NAKAJIMA, HIROMI NAKAI
     NANJING UNIVERSITY: SHUHUA LI
     UNIVERSITY OF NEBRASKA:
          PEIFENG SU, DEJUN SI, NANDUN THELLAMUREGE, YALI WANG, HUI LI
     UNIVERSITY OF ZURICH: ROBERTO PEVERATI, KIM BALDRIDGE
     N. COPERNICUS UNIVERSITY AND JACKSON STATE UNIVERSITY:
          MARIA BARYSZ
     UNIVERSITY OF COPENHAGEN: Jimmy Kromann, CASPER STEINMANN
     TOKYO INSTITUTE OF TECHNOLOGY: HIROYA NAKATA
     NAGOYA UNIVERSITY: YOSHIO NISHIMOTO, STEPHAN IRLE
     MOSCOW STATE UNIVERSITY: VLADIMIR MIRONOV

 EXECUTION OF GAMESS BEGUN Thu Oct 17 15:35:43 2019

            ECHO OF THE FIRST FEW INPUT CARDS -
 INPUT CARD> $CONTRL SCFTYP= RHF RUNTYP=HESSIAN DFTTYP=B3LYP                                
 INPUT CARD>       ISPHER=1 MULT=1 COORD=CART $END                                          
 INPUT CARD> $SCF DIRSCF=.TRUE. $END                                                        
 INPUT CARD> $BASIS GBASIS=N31 NGAUSS=6 NDFUNC=1 $END                                       
 INPUT CARD> $FORCE METHOD=SEMINUM $END                                                     
 INPUT CARD> $DATA                                                                          
 INPUT CARD>C2H4O                                                                           
 INPUT CARD>C1 1                                                                            
 INPUT CARD>C 6 0.00000000 0.00000000 0.00000000                                            
 INPUT CARD>C 6 -1.25555454 0.64334424 0.06078816                                           
 INPUT CARD>O 8 -2.19054382 -0.20461074 0.30296743                                          
 INPUT CARD>H 1 -1.52708672 1.69094112 -0.10368764                                          
 INPUT CARD>H 1 0.82644838 0.40710331 -0.58149468                                           
 INPUT CARD>H 1 0.31439051 -0.39700950 0.97003873                                           
 INPUT CARD>H 1 -1.17617010 -0.96705205 0.06386890                                          
 INPUT CARD> $END                                                                           
    1000000 WORDS OF MEMORY AVAILABLE


                    * * * WARNING * * *
 OLD KEYWORD COORD=CART SELECTED, AUTOMATICALLY CHANGED TO COORD=PRINAXIS.
 YOUR MOLECULE'S COORDINATES WILL BE CHANGED TO PRINCIPAL AXES BY
   A) TRANSLATION TO THE CENTER OF MASS, THEN
   B) ROTATION TO HAVE A DIAGONAL MOMENT OF INERTIA TENSOR.

 HOWEVER, NOTHING ELSE IN YOUR INPUT WILL BE ROTATED IN THE SAME WAY,
 SO IF YOU HAVE A $VEC, $VIB, $GRAD, $HESS, EFP PARTICLE COORDINATES,
 OR ANYTHING ELSE THAT DEPENDS ON THE INITIAL ORIENTATION, THAT DATA
 WILL NOT BE USED CORRECTLY IN THIS RUN.

 THE PURPOSE OF COORD=PRINAXIS IS TO BE USED ONCE, ONLY AT THE VERY
 BEGINNING OF A SERIES OF COMPUTATIONS, PERHAPS TO FIND THE SYMMETRY
 UNIQUE ATOMS FROM AN ARBITRARY INITIAL ORIENTATION.

 AFTER THE FIRST RUN, YOU SHOULD USE ONLY COORD=UNIQUE, TO ENSURE THAT
 THE COORDINATES WHICH YOU READ IN ARE THE COORDINATES THAT ARE USED.


     BASIS OPTIONS
     -------------
     GBASIS=N31          IGAUSS=       6      POLAR=POPN31  
     NDFUNC=       1     NFFUNC=       0     DIFFSP=       F
     NPFUNC=       0      DIFFS=       F     BASNAM=        


     RUN TITLE
     ---------
 C2H4O                                                                           

 THE POINT GROUP OF THE MOLECULE IS C1      
 THE ORDER OF THE PRINCIPAL AXIS IS     1

 THE MOMENTS OF INERTIA ARE (AMU-ANGSTROM**2)
 IXX=    10.411   IYY=    41.367   IZZ=    49.688

 ATOM      ATOMIC                      COORDINATES (BOHR)
           CHARGE         X                   Y                   Z
 C           6.0     2.2067818826        0.4008885296        0.0639896775
 C           6.0    -0.0537716638       -1.0110907535       -0.0661235397
 O           8.0    -1.9894998743        0.4529948825        0.0254810441
 H           1.0    -0.3597964368       -3.0553888654       -0.1448037837
 H           1.0     3.9514412967       -0.4086064398        0.7983792114
 H           1.0     2.5035895503        1.5753094278       -1.6119432786
 H           1.0    -0.1559604210        1.9649037814        0.5793728250

          INTERNUCLEAR DISTANCES (ANGS.)
          ------------------------------

                1 C          2 C          3 O          4 H          5 H     

   1 C       0.0000000    1.4120921 *  2.2208415 *  2.2807952 *  1.0894430 *
   2 C       1.4120921 *  0.0000000    1.2852562 *  1.0946421 *  2.1915915 *
   3 O       2.2208415 *  1.2852562 *  0.0000000    2.0490633 *  3.2029220  
   4 H       2.2807952 *  1.0946421 *  2.0490633 *  0.0000000    2.7231721 *
   5 H       1.0894430 *  2.1915915 *  3.2029220    2.7231721 *  0.0000000  
   6 H       1.0942729 *  2.0913632 *  2.5993648 *  2.9838674 *  1.8210043 *
   7 H       1.5240226 *  1.6123547 *  1.2912935 *  2.6862884 *  2.5130217 *

                6 H          7 H     

   1 C       1.0942729 *  1.5240226 *
   2 C       2.0913632 *  1.6123547 *
   3 O       2.5993648 *  1.2912935 *
   4 H       2.9838674 *  2.6862884 *
   5 H       1.8210043 *  2.5130217 *
   6 H       0.0000000    1.8351739 *
   7 H       1.8351739 *  0.0000000  

  * ... LESS THAN  3.000


     ATOMIC BASIS SET
     ----------------
 THE CONTRACTED PRIMITIVE FUNCTIONS HAVE BEEN UNNORMALIZED
 THE CONTRACTED BASIS FUNCTIONS ARE NOW NORMALIZED TO UNITY

  SHELL TYPE  PRIMITIVE        EXPONENT          CONTRACTION COEFFICIENT(S)

 C         

      1   S       1          3047.5248800    0.001834737132
      1   S       2           457.3695180    0.014037322813
      1   S       3           103.9486850    0.068842622264
      1   S       4            29.2101553    0.232184443216
      1   S       5             9.2866630    0.467941348435
      1   S       6             3.1639270    0.362311985337

      2   L       7             7.8682723   -0.119332419775    0.068999066591
      2   L       8             1.8812885   -0.160854151696    0.316423960957
      2   L       9             0.5442493    1.143456437840    0.744308290898

      3   L      10             0.1687145    1.000000000000    1.000000000000

      4   D      11             0.8000000    1.000000000000

 C         

      5   S      12          3047.5248800    0.001834737132
      5   S      13           457.3695180    0.014037322813
      5   S      14           103.9486850    0.068842622264
      5   S      15            29.2101553    0.232184443216
      5   S      16             9.2866630    0.467941348435
      5   S      17             3.1639270    0.362311985337

      6   L      18             7.8682723   -0.119332419775    0.068999066591
      6   L      19             1.8812885   -0.160854151696    0.316423960957
      6   L      20             0.5442493    1.143456437840    0.744308290898

      7   L      21             0.1687145    1.000000000000    1.000000000000

      8   D      22             0.8000000    1.000000000000

 O         

      9   S      23          5484.6716600    0.001831074430
      9   S      24           825.2349460    0.013950172200
      9   S      25           188.0469580    0.068445078098
      9   S      26            52.9645000    0.232714335992
      9   S      27            16.8975704    0.470192897984
      9   S      28             5.7996353    0.358520852987

     10   L      29            15.5396162   -0.110777549525    0.070874268231
     10   L      30             3.5999336   -0.148026262701    0.339752839147
     10   L      31             1.0137618    1.130767015354    0.727158577316

     11   L      32             0.2700058    1.000000000000    1.000000000000

     12   D      33             0.8000000    1.000000000000

 H         

     13   S      34            18.7311370    0.033494604338
     13   S      35             2.8253944    0.234726953484
     13   S      36             0.6401217    0.813757326146

     14   S      37             0.1612778    1.000000000000

 H         

     15   S      38            18.7311370    0.033494604338
     15   S      39             2.8253944    0.234726953484
     15   S      40             0.6401217    0.813757326146

     16   S      41             0.1612778    1.000000000000

 H         

     17   S      42            18.7311370    0.033494604338
     17   S      43             2.8253944    0.234726953484
     17   S      44             0.6401217    0.813757326146

     18   S      45             0.1612778    1.000000000000

 H         

     19   S      46            18.7311370    0.033494604338
     19   S      47             2.8253944    0.234726953484
     19   S      48             0.6401217    0.813757326146

     20   S      49             0.1612778    1.000000000000

 TOTAL NUMBER OF BASIS SET SHELLS             =   20
 NUMBER OF CARTESIAN GAUSSIAN BASIS FUNCTIONS =   53
 NOTE: THIS RUN WILL RESTRICT THE MO VARIATION SPACE TO SPHERICAL HARMONICS.
 THE NUMBER OF ORBITALS KEPT IN THE VARIATIONAL SPACE WILL BE PRINTED LATER.
 NUMBER OF ELECTRONS                          =   24
 CHARGE OF MOLECULE                           =    0
 SPIN MULTIPLICITY                            =    1
 NUMBER OF OCCUPIED ORBITALS (ALPHA)          =   12
 NUMBER OF OCCUPIED ORBITALS (BETA )          =   12
 TOTAL NUMBER OF ATOMS                        =    7
 THE NUCLEAR REPULSION ENERGY IS       71.4722683551

     LEBEDEV GRID-BASED DFT OPTIONS
     ------------------------------
     DFTTYP=B3LYP   
     NRAD  =      96     NLEB  =     302
     NRAD0 =      96     NLEB0 =     302
     SWOFF =    5.00E-03 (PURE SCF -> DFT)
     SWITCH=    3.00E-04 (COARSE -> TIGHT GRID)
     THRESH=    0.00E+00 GTHRE=    1.00E+00

 GRIMME'S EMPIRICAL DISPERSION CORRECTION= F

     $CONTRL OPTIONS
     ---------------
 SCFTYP=RHF          RUNTYP=HESSIAN      EXETYP=RUN     
 MPLEVL=       0     CITYP =NONE         CCTYP =NONE         VBTYP =NONE    
 DFTTYP=B3LYP        TDDFT =NONE    
 MULT  =       1     ICHARG=       0     NZVAR =       0     COORD =PRINAXIS
 PP    =NONE         RELWFN=NONE         LOCAL =NONE         NUMGRD=       F
 ISPHER=       1     NOSYM =       0     MAXIT =      30     UNITS =ANGS    
 PLTORB=       F     MOLPLT=       F     AIMPAC=       F     FRIEND=        
 NPRINT=       7     IREST =       0     GEOM  =INPUT   
 NORMF =       0     NORMP =       0     ITOL  =      20     ICUT  =       9
 INTTYP=BEST         GRDTYP=BEST         QMTTOL= 1.0E-06

     $SYSTEM OPTIONS
     ---------------
  REPLICATED MEMORY=     1000000 WORDS (ON EVERY NODE).
 DISTRIBUTED MEMDDI=           0 MILLION WORDS IN AGGREGATE,
 MEMDDI DISTRIBUTED OVER   1 PROCESSORS IS           0 WORDS/PROCESSOR.
 TOTAL MEMORY REQUESTED ON EACH PROCESSOR=     1000000 WORDS.
 TIMLIM=      525600.00 MINUTES, OR     365.0 DAYS.
 PARALL= F  BALTYP=  DLB     KDIAG=    0  COREFL= F
 MXSEQ2=     300 MXSEQ3=     150  mem10=         0

          ----------------
          PROPERTIES INPUT
          ----------------

     MOMENTS            FIELD           POTENTIAL          DENSITY
 IEMOM =       1   IEFLD =       0   IEPOT =       0   IEDEN =       0
 WHERE =COMASS     WHERE =NUCLEI     WHERE =NUCLEI     WHERE =NUCLEI  
 OUTPUT=BOTH       OUTPUT=BOTH       OUTPUT=BOTH       OUTPUT=BOTH    
 IEMINT=       0   IEFINT=       0                     IEDINT=       0
                                                       MORB  =       0
          EXTRAPOLATION IN EFFECT
          DIIS IN EFFECT
 ORBITAL PRINTING OPTION: NPREO=     1    53     2     1

     -------------------------------
     INTEGRAL TRANSFORMATION OPTIONS
     -------------------------------
     NWORD  =            0
     CUTOFF = 1.0E-09     MPTRAN =       0
     DIRTRF =       T     AOINTS =DUP     

          ----------------------
          INTEGRAL INPUT OPTIONS
          ----------------------
 NOPK  =       1 NORDER=       0 SCHWRZ=       T

     ------------------------------------------
     THE POINT GROUP IS C1 , NAXIS= 1, ORDER= 1
     ------------------------------------------

 -- VARIATIONAL SPACE WILL BE RESTRICTED TO PURE SPHERICAL HARMONICS ONLY --
 AFTER EXCLUDING CONTAMINANT COMBINATIONS FROM THE CARTESIAN GAUSSIAN BASIS
 SET, THE NUMBER OF SPHERICAL HARMONICS KEPT IN THE VARIATION SPACE IS   50

     DIMENSIONS OF THE SYMMETRY SUBSPACES ARE
 A   =   50

 ..... DONE SETTING UP THE RUN .....
 STEP CPU TIME =     0.02 TOTAL CPU TIME =          0.0 (      0.0 MIN)
 TOTAL WALL CLOCK TIME=          0.0 SECONDS, CPU UTILIZATION IS   100.00%

     ---------------------------------
     HESSIAN MATRIX CONTROL PARAMETERS
     ---------------------------------
     METHOD=SEMINUM    NVIB  =       2   VIBSIZ= 0.01000
     RDHESS=       F   PURIFY=       F   PRTIFC=       F
     VIBANL=       T   DECOMP=       F   PROJCT=       F
     SCLFAC= 1.00000   PRTSCN=       F   NPRT  =       0
     PULCOR=       F   NPUN  =       0   REDOVB=       T
     HSSTYP=GENERAL 
     THERMOCHEMISTRY WILL BE PRINTED FOR    1 TEMPERATURES:
      298.15000

               * * * EFFICIENCY NOTE * * *
 THIS CALCULATION CAN BE RUN WITH DIFFERENTIATION METHOD=ANALYTIC
 THIS MIGHT BE MORE ACCURATE AND/OR FASTER THAN YOUR CHOICE,
 BUT THE REQUESTED CALCULATION METHOD=SEMINUM  IS PROCEEDING.

1   ATOM  0
                                        -------------------
   COORD  0                             NUCLEAR COORDINATES
                                        -------------------
     VIB  0

                       ATOM             X              Y              Z

                 1  C                2.206782       0.400889       0.063990
                 2  C               -0.053772      -1.011091      -0.066124
                 3  O               -1.989500       0.452995       0.025481
                 4  H               -0.359796      -3.055389      -0.144804
                 5  H                3.951441      -0.408606       0.798379
                 6  H                2.503590       1.575309      -1.611943
                 7  H               -0.155960       1.964904       0.579373

          ********************
          1 ELECTRON INTEGRALS
          ********************
 ...... END OF ONE-ELECTRON INTEGRALS ......
 STEP CPU TIME =     0.00 TOTAL CPU TIME =          0.0 (      0.0 MIN)
 TOTAL WALL CLOCK TIME=          0.0 SECONDS, CPU UTILIZATION IS   100.00%

          -------------
          GUESS OPTIONS
          -------------
          GUESS =HUCKEL            NORB  =       0          NORDER=       0
          MIX   =       F          PRTMO =       F          PUNMO =       F
          TOLZ  = 1.0E-08          TOLE  = 1.0E-05
          SYMDEN=       F          PURIFY=       F

 INITIAL GUESS ORBITALS GENERATED BY HUCKEL   ROUTINE.
 HUCKEL GUESS REQUIRES     27154 WORDS.

 STATISTICS FOR GENERATION OF SYMMETRY ORBITAL -Q- MATRIX
 NUMBER OF CARTESIAN ATOMIC ORBITALS=         53
 NUMBER OF SPHERICAL CONTAMINANTS DROPPED=     3
 NUMBER OF LINEARLY DEPENDENT MOS DROPPED=     0
 TOTAL NUMBER OF MOS IN VARIATION SPACE=      50

 SYMMETRIES FOR INITIAL GUESS ORBITALS FOLLOW.   BOTH SET(S).
    12 ORBITALS ARE OCCUPIED (    3 CORE ORBITALS).
     4=A        5=A        6=A        7=A        8=A        9=A       10=A   
    11=A       12=A       13=A       14=A       15=A       16=A       17=A   
    18=A       19=A       20=A       21=A       22=A   
 ...... END OF INITIAL ORBITAL SELECTION ......
 STEP CPU TIME =     0.00 TOTAL CPU TIME =          0.0 (      0.0 MIN)
 TOTAL WALL CLOCK TIME=          0.0 SECONDS, CPU UTILIZATION IS    66.67%

                    ----------------------
                    AO INTEGRAL TECHNOLOGY
                    ----------------------
     S,P,L SHELL ROTATED AXIS INTEGRALS, REPROGRAMMED BY
        KAZUYA ISHIMURA (IMS) AND JOSE SIERRA (SYNSTAR).
     S,P,D,L SHELL ROTATED AXIS INTEGRALS PROGRAMMED BY
        KAZUYA ISHIMURA (INSTITUTE FOR MOLECULAR SCIENCE).
     S,P,D,F,G SHELL TO TOTAL QUARTET ANGULAR MOMENTUM SUM 5,
        ERIC PROGRAM BY GRAHAM FLETCHER (ELORET AND NASA ADVANCED
        SUPERCOMPUTING DIVISION, AMES RESEARCH CENTER).
     S,P,D,F,G,L SHELL GENERAL RYS QUADRATURE PROGRAMMED BY
        MICHEL DUPUIS (PACIFIC NORTHWEST NATIONAL LABORATORY).

          --------------------
          2 ELECTRON INTEGRALS
          --------------------

 DIRECT SCF METHOD SKIPS INTEGRAL STORAGE ON DISK.
 DIRECT TRANSFORMATION SKIPS AO INTEGRAL STORAGE ON DISK.
  ...... END OF TWO-ELECTRON INTEGRALS .....
 STEP CPU TIME =     0.01 TOTAL CPU TIME =          0.0 (      0.0 MIN)
 TOTAL WALL CLOCK TIME=          0.0 SECONDS, CPU UTILIZATION IS    75.00%

          --------------------------
             R-B3LYP SCF CALCULATION
          --------------------------

     NUCLEAR ENERGY =        71.4722683551
     MAXIT =   30     NPUNCH=    2
     EXTRAP=T  DAMP=F  SHIFT=F  RSTRCT=F  DIIS=T  DEM=F  SOSCF=F
         DENSITY MATRIX CONVERGENCE THRESHOLD=  2.00E-05
     COARSE -> FINE DFT GRID SWITCH THRESHOLD=  3.00E-04 (SWITCH IN $DFT)
                   HF -> DFT SWITCH THRESHOLD=  5.00E-03 (SWOFF IN $DFT)
     MEMORY REQUIRED FOR RHF ITERS=    323263 WORDS.

 DIRECT SCF CALCULATION, SCHWRZ=T   FDIFF=T,  DIRTHR=  0.00E+00 NITDIR=10
 SCHWARZ INEQUALITY OVERHEAD:      1431 INTEGRALS, T=        0.00

     EXCHANGE FUNCTIONAL   =B88&HFX   
     CORRELATION FUNCTIONAL=LYP88&VWN5
     DFT THRESHOLD         =.493E-08
 FOR AN EULER-MACLAURIN QUADRATURE USING  96 RADIAL POINTS:
 SMALLEST GAUSSIAN PRIMITIVE EXPONENT=        0.1612777588 OF TYPE -S-
 ON ATOM NUMBER   4 HAS RADIAL NORMALIZATION=  1.000000
  LARGEST GAUSSIAN PRIMITIVE EXPONENT=     5484.6716600000 OF TYPE -S-
 ON ATOM NUMBER   3 HAS RADIAL NORMALIZATION=  1.000000
 DFT IS SWITCHED OFF, PERFORMING PURE SCF UNTIL SWOFF THRESHOLD IS REACHED.

                                                                                   NONZERO     BLOCKS
 ITER EX DEM     TOTAL ENERGY        E CHANGE  DENSITY CHANGE    DIIS ERROR      INTEGRALS    SKIPPED
          * * *   INITIATING DIIS PROCEDURE   * * *
   1  0  0     -152.2739222121  -152.2739222121   0.324739025   0.415044634        1000115        461
   2  1  0     -152.7235324954    -0.4496102833   0.118204138   0.062242441        1000060        523
   3  2  0     -152.7570314860    -0.0334989906   0.042362253   0.054304956         999905        580
   4  3  0     -152.7662773388    -0.0092458528   0.012107618   0.011265826         999656        647
   5  4  0     -152.7672559905    -0.0009786517   0.007906465   0.005692338         999082        758
   6  5  0     -152.7674917434    -0.0002357529   0.002701939   0.001489127         998521        819
 CONVERGED TO SWOFF, SO DFT CALCULATION IS NOW SWITCHED ON.
          * * *   INITIATING DIIS PROCEDURE   * * *
   7  6  0     -153.6044999649    -0.8370082215   0.099742992   0.043465415        1000110        469
   8  7  0     -153.6180793095    -0.0135793446   0.050488468   0.031008249         999864        591
   9  8  0     -153.6158346725     0.0022446369   0.045680912   0.044717642         999730        623
  10  9  0     -153.6223307996    -0.0064961271   0.011470506   0.012384027         999489        664
  11 10  0     -153.6228265656    -0.0004957660   0.001659066   0.001589227         998684        785
  12 11  0     -153.6228405709    -0.0000140053   0.000633420   0.000515466         995789       1073
  13 12  0     -153.6228416110    -0.0000010401   0.000103425   0.000094473         990104       1464
  14 13  0     -153.6228416798    -0.0000000688   0.000031258   0.000027237         982409       1912
  15 14  0     -153.6228416857    -0.0000000060   0.000008315   0.000004790         974744       2397
  16 15  0     -153.6228416860    -0.0000000003   0.000001916   0.000001151         960880       3046

          -----------------
          DENSITY CONVERGED
          -----------------
     TIME TO FORM FOCK OPERATORS=       7.3 SECONDS (       0.5 SEC/ITER)
     FOCK TIME ON FIRST ITERATION=       0.1, LAST ITERATION=       0.6
     TIME TO SOLVE SCF EQUATIONS=       0.0 SECONDS (       0.0 SEC/ITER)

 FINAL R-B3LYP ENERGY IS     -153.6228416860 AFTER  16 ITERATIONS
 DFT EXCHANGE + CORRELATION ENERGY =       -16.7841454266
 TOTAL ELECTRON NUMBER             =        24.0000328284

          ------------
          EIGENVECTORS
          ------------

                      1          2          3          4          5
                  -19.1708   -10.2826   -10.1604    -1.0659    -0.7338
                     A          A          A          A          A   
    1  C  1  S    0.000034   0.001614   0.995159  -0.027468  -0.167986
    2  C  1  S    0.000017  -0.001203   0.036284   0.049838   0.312584
    3  C  1  X    0.000314   0.001145  -0.000781  -0.040960  -0.066867
    4  C  1  Y    0.000292   0.000868  -0.000531  -0.007275  -0.056338
    5  C  1  Z    0.000080  -0.000034  -0.000715  -0.002666  -0.032252
    6  C  1  S   -0.003866   0.004481  -0.027730   0.042979   0.283041
    7  C  1  X    0.003098  -0.001227   0.002826  -0.019718  -0.027064
    8  C  1  Y   -0.000983  -0.002697   0.000677   0.007338   0.004043
    9  C  1  Z    0.000040   0.000546   0.002434  -0.001869  -0.018963
   10  C  1 XX   -0.000202  -0.000784   0.000456   0.005326   0.007995
   11  C  1 YY    0.000276   0.000140  -0.000203  -0.002245  -0.002674
   12  C  1 ZZ   -0.000074   0.000643  -0.000252  -0.003081  -0.005321
   13  C  1 XY   -0.000148  -0.000955   0.000321   0.002461   0.001594
   14  C  1 XZ    0.000102  -0.000017   0.000150   0.000294   0.002746
   15  C  1 YZ    0.000012  -0.000111  -0.000116  -0.000665  -0.008436
   16  C  2  S    0.000107   0.995053  -0.001586  -0.106495  -0.102799
   17  C  2  S   -0.000037   0.035328  -0.001457   0.202782   0.209271
   18  C  2  X   -0.000335  -0.001511  -0.000997  -0.112002   0.202610
   19  C  2  Y    0.000294   0.001771  -0.000549   0.109564   0.020123
   20  C  2  Z    0.000071   0.000285  -0.000029   0.008045   0.002927
   21  C  2  S    0.010553  -0.016448   0.007184   0.056323   0.148640
   22  C  2  X   -0.002701  -0.003325   0.003676   0.004044   0.039535
   23  C  2  Y    0.006204   0.001659   0.000652  -0.024011  -0.003089
   24  C  2  Z    0.000300  -0.000274  -0.000480  -0.000509   0.003747
   25  C  2 XX   -0.000232   0.000862  -0.000838   0.009593  -0.002561
   26  C  2 YY    0.000288   0.000445   0.000110   0.006056   0.007618
   27  C  2 ZZ   -0.000056  -0.001307   0.000728  -0.015649  -0.005057
   28  C  2 XY    0.000620  -0.000698  -0.000983  -0.019907   0.020236
   29  C  2 XZ    0.000020  -0.000064  -0.000196  -0.001041   0.001753
   30  C  2 YZ    0.000019   0.000095  -0.000092   0.001807   0.001142
   31  O  3  S    0.995131   0.000076  -0.000011  -0.191840   0.082502
   32  O  3  S    0.029486   0.000809  -0.000172   0.418421  -0.192045
   33  O  3  X    0.001869  -0.000578  -0.000040   0.134256   0.049331
   34  O  3  Y   -0.000689   0.000542   0.000226  -0.061079   0.012451
   35  O  3  Z   -0.000078   0.000044   0.000014  -0.001881   0.002564
   36  O  3  S   -0.019361  -0.004156   0.000195   0.412529  -0.217572
   37  O  3  X   -0.005551  -0.003334   0.000180   0.068635   0.025255
   38  O  3  Y    0.002128   0.002019  -0.001023  -0.013059  -0.001570
   39  O  3  Z   -0.000093   0.000086  -0.000127   0.002077  -0.001085
   40  O  3 XX   -0.000401  -0.001109   0.000193   0.011093   0.006658
   41  O  3 YY    0.000080  -0.000215  -0.000044  -0.001255  -0.004041
   42  O  3 ZZ    0.000321   0.001324  -0.000150  -0.009838  -0.002617
   43  O  3 XY    0.000205   0.001676  -0.000014  -0.003246  -0.003203
   44  O  3 XZ   -0.000066   0.000059  -0.000043   0.000692  -0.000447
   45  O  3 YZ   -0.000086  -0.000154  -0.000059   0.001555  -0.000494
   46  H  4  S   -0.000292  -0.001348  -0.000305   0.025835   0.057998
   47  H  4  S    0.001373   0.004741  -0.000350  -0.011204   0.015982
   48  H  5  S   -0.000191  -0.000430  -0.001165   0.005732   0.094151
   49  H  5  S   -0.000662  -0.000216   0.004039   0.003344   0.033798
   50  H  6  S    0.000275  -0.000250  -0.000610   0.009265   0.103573
   51  H  6  S   -0.000107   0.001264   0.005913  -0.000161   0.015863
   52  H  7  S    0.000916   0.000544   0.000348   0.068274   0.044657
   53  H  7  S    0.002096   0.000850   0.003092  -0.007971   0.002888

                      6          7          8          9         10
                   -0.6029    -0.5044    -0.4499    -0.4258    -0.3797
                     A          A          A          A          A   
    1  C  1  S    0.066783  -0.063271   0.012765   0.022425   0.006821
    2  C  1  S   -0.125536   0.130389  -0.017965  -0.043947  -0.018143
    3  C  1  X   -0.020851   0.299026  -0.072815  -0.154121   0.030210
    4  C  1  Y   -0.082665   0.004966  -0.165128   0.075176   0.280684
    5  C  1  Z    0.028033  -0.023850   0.174377  -0.212983  -0.118738
    6  C  1  S   -0.147188   0.135542  -0.060982  -0.060925  -0.008506
    7  C  1  X    0.009763   0.124895   0.007278  -0.073947   0.009664
    8  C  1  Y   -0.025330  -0.026828  -0.077041   0.021424   0.134935
    9  C  1  Z    0.013565  -0.008062   0.080585  -0.096489  -0.050726
   10  C  1 XX   -0.003079  -0.005960   0.004259  -0.012567  -0.011410
   11  C  1 YY    0.004546   0.000840   0.006068   0.004323   0.001277
   12  C  1 ZZ   -0.001466   0.005120  -0.010327   0.008244   0.010133
   13  C  1 XY    0.009629  -0.007512   0.001858   0.009330  -0.003726
   14  C  1 XZ    0.000232   0.004584  -0.001932   0.001995  -0.011585
   15  C  1 YZ    0.007013  -0.009813   0.007599   0.001692  -0.010301
   16  C  2  S   -0.125025   0.050290  -0.002575  -0.007339   0.014186
   17  C  2  S    0.266447  -0.112947  -0.003393   0.008961  -0.034147
   18  C  2  X   -0.099345  -0.060528   0.264268   0.165132  -0.145330
   19  C  2  Y   -0.247345  -0.215447  -0.153758  -0.146005  -0.184406
   20  C  2  Z   -0.008421  -0.041142   0.150775  -0.222038   0.159555
   21  C  2  S    0.267278  -0.063869   0.036933   0.024943  -0.034399
   22  C  2  X   -0.011888  -0.040297   0.079796   0.029503  -0.051197
   23  C  2  Y   -0.073828  -0.049860  -0.047887  -0.044394  -0.055275
   24  C  2  Z   -0.002529  -0.015738   0.074408  -0.122257   0.103686
   25  C  2 XX   -0.000882   0.011978  -0.011959  -0.014099  -0.016335
   26  C  2 YY    0.007793  -0.012638   0.007210   0.013028   0.016546
   27  C  2 ZZ   -0.006911   0.000660   0.004749   0.001071  -0.000211
   28  C  2 XY    0.002723   0.000654   0.013592   0.013975   0.005854
   29  C  2 XZ    0.000771   0.000147  -0.000593   0.004558  -0.018043
   30  C  2 YZ   -0.000629  -0.004872   0.009911  -0.012074   0.010210
   31  O  3  S    0.041280  -0.066727  -0.039609  -0.024559   0.017743
   32  O  3  S   -0.091011   0.161147   0.079282   0.048619  -0.040673
   33  O  3  X    0.002541  -0.291044  -0.197613  -0.181544   0.031651
   34  O  3  Y   -0.220758  -0.041791   0.308963   0.241842   0.038358
   35  O  3  Z   -0.022829  -0.043822   0.196317  -0.229549   0.356227
   36  O  3  S   -0.144276   0.208950   0.184646   0.112929  -0.084560
   37  O  3  X   -0.010942  -0.177110  -0.091504  -0.094087   0.017807
   38  O  3  Y   -0.112583  -0.028656   0.167215   0.142438   0.021808
   39  O  3  Z   -0.010936  -0.027699   0.120753  -0.148369   0.234714
   40  O  3 XX   -0.007534  -0.022259  -0.003364  -0.005153  -0.001923
   41  O  3 YY    0.007697   0.012390   0.000572   0.001179   0.004671
   42  O  3 ZZ   -0.000163   0.009868   0.002792   0.003974  -0.002748
   43  O  3 XY   -0.018123  -0.001472   0.016843   0.013057   0.003625
   44  O  3 XZ   -0.002083  -0.003699   0.014235  -0.015633   0.020192
   45  O  3 YZ   -0.000239   0.000128  -0.003642   0.005984  -0.007038
   46  H  4  S    0.223422   0.057458   0.072872   0.098603   0.130534
   47  H  4  S    0.105592   0.046878   0.059228   0.084736   0.131283
   48  H  5  S   -0.044241   0.185229   0.023836  -0.171357  -0.094355
   49  H  5  S   -0.025052   0.102959   0.003505  -0.123000  -0.080912
   50  H  6  S   -0.087225   0.100575  -0.159574   0.098786   0.180319
   51  H  6  S   -0.038486   0.070427  -0.115058   0.093017   0.151788
   52  H  7  S   -0.111530  -0.109649   0.069539   0.024674   0.109573
   53  H  7  S   -0.064333  -0.023471   0.100113   0.049316   0.128152

                     11         12         13         14         15
                   -0.3277    -0.2236    -0.0458     0.0822     0.1223
                     A          A          A          A          A   
    1  C  1  S    0.028844  -0.040984   0.015473   0.066260  -0.030821
    2  C  1  S   -0.054589   0.066267  -0.010952  -0.128201   0.023149
    3  C  1  X    0.223592  -0.154772   0.042476   0.002626  -0.122168
    4  C  1  Y    0.057871   0.254926  -0.051026  -0.251152  -0.012525
    5  C  1  Z    0.132819   0.298135  -0.090963  -0.168087  -0.131919
    6  C  1  S   -0.139273   0.241075  -0.221900  -0.514179   0.374919
    7  C  1  X    0.083719  -0.154230   0.065137  -0.169754  -0.354007
    8  C  1  Y    0.053887   0.212444  -0.083363  -0.490730  -0.059133
    9  C  1  Z    0.065429   0.249728  -0.065534  -0.241112  -0.405689
   10  C  1 XX    0.005631   0.005097  -0.008234  -0.002779   0.012391
   11  C  1 YY   -0.000444   0.001727   0.001827   0.007599  -0.008206
   12  C  1 ZZ   -0.005187  -0.006824   0.006407  -0.004820  -0.004185
   13  C  1 XY   -0.016731  -0.006226   0.012476  -0.018987  -0.012810
   14  C  1 XZ    0.003724  -0.007402  -0.019407  -0.007226   0.001577
   15  C  1 YZ    0.001411  -0.005988  -0.019535   0.007734  -0.001059
   16  C  2  S    0.012280   0.012904  -0.008419   0.017124   0.103693
   17  C  2  S   -0.026555  -0.031089   0.014200  -0.038860  -0.170614
   18  C  2  X   -0.172581  -0.037517   0.025184  -0.043836   0.014097
   19  C  2  Y   -0.140085  -0.031439  -0.021202  -0.070021   0.302109
   20  C  2  Z   -0.098074   0.127299   0.505448   0.119191   0.062983
   21  C  2  S   -0.069341  -0.056236   0.092742  -0.261832  -1.648013
   22  C  2  X    0.001704  -0.097380   0.082513  -0.188061  -0.049184
   23  C  2  Y   -0.056876  -0.021024   0.024518  -0.343934   0.756916
   24  C  2  Z   -0.066281   0.086703   0.528548   0.127891   0.174586
   25  C  2 XX   -0.024140  -0.002882  -0.001292   0.012830   0.001617
   26  C  2 YY    0.027581   0.002298   0.001286  -0.014447   0.010015
   27  C  2 ZZ   -0.003440   0.000584   0.000006   0.001617  -0.011632
   28  C  2 XY   -0.010692   0.016422  -0.009116  -0.001738   0.005412
   29  C  2 XZ    0.011942   0.023000   0.007995  -0.003894  -0.004744
   30  C  2 YZ   -0.002122   0.000451  -0.017091  -0.007367  -0.002850
   31  O  3  S    0.025061   0.016365  -0.019762   0.040138  -0.006634
   32  O  3  S   -0.065487  -0.032069   0.043823  -0.095577   0.009770
   33  O  3  X    0.332085  -0.227007   0.114119  -0.099256  -0.009538
   34  O  3  Y    0.282642  -0.149083   0.139844  -0.232270  -0.080354
   35  O  3  Z   -0.194756  -0.285805  -0.300953  -0.123280  -0.029973
   36  O  3  S   -0.063259  -0.140384   0.149839  -0.309431   0.062123
   37  O  3  X    0.247681  -0.194336   0.117152  -0.133445  -0.021611
   38  O  3  Y    0.192501  -0.121608   0.142942  -0.259275  -0.135560
   39  O  3  Z   -0.140506  -0.236936  -0.310946  -0.158822  -0.038480
   40  O  3 XX    0.014673  -0.011121   0.005186  -0.012135   0.008355
   41  O  3 YY   -0.006005   0.007235  -0.004327   0.012640  -0.001758
   42  O  3 ZZ   -0.008668   0.003886  -0.000859  -0.000505  -0.006596
   43  O  3 XY    0.013709  -0.003238  -0.001274   0.006937   0.007556
   44  O  3 XZ   -0.008755  -0.008250  -0.000621   0.001652   0.000396
   45  O  3 YZ    0.007267   0.002361  -0.009574   0.000997  -0.001455
   46  H  4  S    0.138005   0.020421   0.002783  -0.068019   0.099944
   47  H  4  S    0.156027   0.032780   0.004741  -0.332043   1.852227
   48  H  5  S    0.135451  -0.048187  -0.053720   0.048619   0.036513
   49  H  5  S    0.168708  -0.040741  -0.108449   0.390638   0.438112
   50  H  6  S   -0.063446  -0.039155   0.131084  -0.016428  -0.024510
   51  H  6  S   -0.040425  -0.044146   0.347764   0.314269  -0.519088
   52  H  7  S    0.142019   0.093418  -0.127846   0.258863   0.047194
   53  H  7  S    0.167421   0.153871  -0.340514   1.192527  -0.200323

                     16         17         18         19         20
                    0.1479     0.1866     0.2443     0.3246     0.5209
                     A          A          A          A          A   
    1  C  1  S   -0.116147   0.018605   0.029022   0.087650   0.001203
    2  C  1  S    0.134131  -0.045815  -0.046460  -0.019075  -0.192850
    3  C  1  X    0.215290  -0.144932   0.006990   0.156463   0.236204
    4  C  1  Y   -0.035125   0.247498   0.112907   0.020417   0.332927
    5  C  1  Z   -0.186454  -0.266453  -0.028555  -0.079739  -0.291668
    6  C  1  S    2.097069  -0.067790  -0.802939  -2.382754  -0.277091
    7  C  1  X    0.472323  -0.762866   0.130904   2.549889  -0.007514
    8  C  1  Y   -0.041520   0.921652   0.781189   0.770698  -0.514412
    9  C  1  Z   -0.545318  -0.948228  -0.137272   0.031350   0.424537
   10  C  1 XX    0.002740   0.014248  -0.016237   0.019730  -0.063496
   11  C  1 YY    0.001936  -0.010596   0.026063  -0.008645   0.004971
   12  C  1 ZZ   -0.004677  -0.003652  -0.009825  -0.011085   0.058525
   13  C  1 XY   -0.007196   0.001486   0.003808   0.027658   0.010156
   14  C  1 XZ   -0.008652   0.005165  -0.006782  -0.008999   0.008560
   15  C  1 YZ    0.001759  -0.003283   0.006029   0.022132  -0.007008
   16  C  2  S    0.016452  -0.059436   0.040572  -0.095782  -0.033655
   17  C  2  S    0.024384   0.133131  -0.017022   0.086163  -0.296086
   18  C  2  X   -0.057273  -0.026420   0.265066   0.226950  -0.307276
   19  C  2  Y   -0.116912  -0.069419  -0.124685   0.333522   0.143469
   20  C  2  Z    0.060932   0.052844  -0.030517   0.041972  -0.598211
   21  C  2  S   -0.297013   0.647463  -0.716763   2.907786   0.647781
   22  C  2  X   -0.249428  -0.122732   1.877534   1.058939   0.342028
   23  C  2  Y   -0.346178  -0.475830  -0.810706   2.004559   0.275799
   24  C  2  Z    0.162183   0.318679   0.017226   0.168872   0.595522
   25  C  2 XX    0.011876  -0.019169   0.003353  -0.000325  -0.019758
   26  C  2 YY   -0.001989   0.017623   0.006207  -0.007743  -0.051008
   27  C  2 ZZ   -0.009887   0.001546  -0.009559   0.008068   0.070766
   28  C  2 XY    0.000362   0.019538  -0.022416  -0.013598  -0.044387
   29  C  2 XZ   -0.006436  -0.011047  -0.000792  -0.007597  -0.001021
   30  C  2 YZ   -0.001225  -0.012679   0.001289  -0.002660  -0.030233
   31  O  3  S    0.002101   0.011990  -0.084205   0.046131   0.024396
   32  O  3  S   -0.000288  -0.048913   0.129526  -0.056883  -0.062376
   33  O  3  X    0.032617  -0.099629   0.113311  -0.101450   0.012730
   34  O  3  Y   -0.032175   0.089861  -0.256637  -0.026321   0.079179
   35  O  3  Z   -0.089258  -0.025660  -0.031819  -0.043448  -0.053574
   36  O  3  S   -0.006091   0.001987   1.567744  -0.999374  -0.303836
   37  O  3  X    0.065174  -0.046737   0.536453  -0.592866  -0.288042
   38  O  3  Y   -0.033663   0.168820  -0.664132  -0.030289   0.050176
   39  O  3  Z   -0.085081  -0.052465  -0.067221  -0.032539  -0.049308
   40  O  3 XX   -0.001776   0.006546   0.015735  -0.012119  -0.023983
   41  O  3 YY    0.006666  -0.001916   0.001286  -0.008501  -0.003330
   42  O  3 ZZ   -0.004891  -0.004631  -0.017021   0.020621   0.027313
   43  O  3 XY    0.002994   0.000373  -0.022399  -0.003753  -0.034823
   44  O  3 XZ    0.003553  -0.002910  -0.002223   0.000816  -0.030543
   45  O  3 YZ    0.002738  -0.003817   0.003501  -0.002374   0.020232
   46  H  4  S    0.015242   0.007622   0.019679  -0.079902  -0.305874
   47  H  4  S   -0.317869  -0.836070  -0.088372   1.061822   0.304537
   48  H  5  S   -0.037224   0.069453  -0.092410  -0.028557  -0.195124
   49  H  5  S   -1.237586   1.720395   0.375000  -0.768645  -0.086161
   50  H  6  S   -0.062087  -0.035251  -0.005159  -0.115899   0.202499
   51  H  6  S   -1.499547  -1.321471  -0.320227  -0.228479   0.071027
   52  H  7  S    0.092958   0.016860   0.039970  -0.060617  -0.219738
   53  H  7  S    0.367090  -0.424421   0.277346   0.699829   0.323164

                     21         22         23         24         25
                    0.5354     0.5843     0.5932     0.6369     0.7010
                     A          A          A          A          A   
    1  C  1  S    0.000259  -0.027641   0.003238   0.035374  -0.037077
    2  C  1  S    0.173652   0.211539   0.065543  -0.040223  -0.392551
    3  C  1  X   -0.265490  -0.447260   0.079925   0.523075  -0.291879
    4  C  1  Y   -0.540473  -0.246619   0.047853  -0.394050  -0.300742
    5  C  1  Z   -0.212719  -0.139520   0.477293  -0.603509  -0.191775
    6  C  1  S    0.280355  -0.115736  -0.464039  -0.637067   0.021594
    7  C  1  X    0.040618   0.527662  -0.035231  -0.919354   1.197812
    8  C  1  Y    0.430688   0.138567   0.231577   0.550967   0.517008
    9  C  1  Z    0.080543   0.208403  -0.864063   1.015028   0.286782
   10  C  1 XX    0.000982  -0.032498   0.078743   0.021832  -0.040890
   11  C  1 YY    0.008434   0.001169  -0.041816  -0.029882   0.002202
   12  C  1 ZZ   -0.009416   0.031329  -0.036926   0.008050   0.038688
   13  C  1 XY    0.027144  -0.003068  -0.075975  -0.021920  -0.063757
   14  C  1 XZ    0.026679  -0.013866   0.013855   0.037709  -0.058591
   15  C  1 YZ    0.006499   0.008893   0.006041  -0.044363   0.074397
   16  C  2  S    0.044644   0.017750  -0.032908  -0.031371  -0.006497
   17  C  2  S    0.215098   0.410396   0.428954   0.247029  -0.617956
   18  C  2  X    0.293511  -0.667802  -0.427019  -0.157570  -0.400362
   19  C  2  Y   -0.020946   0.337603   0.121367   0.053615  -0.383559
   20  C  2  Z   -0.665318   0.218814  -0.411653   0.198884  -0.003742
   21  C  2  S   -0.500251  -0.496280  -0.487190  -0.396826   1.563295
   22  C  2  X   -0.613340   0.632921   0.958669   0.619162   0.728941
   23  C  2  Y   -0.469475  -0.834691   0.186269   0.263931   1.292940
   24  C  2  Z    0.771454  -0.386515   0.808389  -0.459729   0.025421
   25  C  2 XX    0.059593   0.032173  -0.070219  -0.043922   0.024945
   26  C  2 YY    0.017110  -0.011729   0.063442   0.014402  -0.036782
   27  C  2 ZZ   -0.076703  -0.020444   0.006776   0.029521   0.011837
   28  C  2 XY    0.030037   0.098409   0.078631   0.016328   0.065421
   29  C  2 XZ    0.000095   0.003935   0.008104  -0.011781  -0.004912
   30  C  2 YZ   -0.022084   0.007414  -0.010744  -0.008893   0.013319
   31  O  3  S   -0.022559   0.008350   0.007933   0.001096  -0.001419
   32  O  3  S    0.108733  -0.018358  -0.108171  -0.035381  -0.036217
   33  O  3  X    0.125057  -0.045320  -0.378824  -0.259957  -0.172715
   34  O  3  Y    0.000287   0.153179  -0.013712  -0.012168   0.101619
   35  O  3  Z   -0.050458   0.015817  -0.033371   0.046476  -0.033063
   36  O  3  S    0.042708   0.320852   0.560719   0.357845  -0.020380
   37  O  3  X    0.173900  -0.037843   0.135476   0.065511   0.093090
   38  O  3  Y    0.017670  -0.021371  -0.077924  -0.046825  -0.052143
   39  O  3  Z   -0.083243   0.019027  -0.093324   0.044227   0.061905
   40  O  3 XX   -0.002365   0.005033   0.063604   0.046992  -0.009387
   41  O  3 YY    0.001846   0.032831   0.001706  -0.019067   0.026870
   42  O  3 ZZ    0.000519  -0.037863  -0.065310  -0.027925  -0.017483
   43  O  3 XY    0.028205  -0.125518  -0.049507  -0.020757   0.038577
   44  O  3 XZ   -0.032311  -0.005398  -0.030443   0.022211   0.026045
   45  O  3 YZ    0.022119  -0.005209   0.012822   0.001994   0.015412
   46  H  4  S    0.222368   0.100953   0.253628   0.182764  -0.203231
   47  H  4  S   -0.337132  -0.338687   0.151330   0.251786   0.649105
   48  H  5  S   -0.005133  -0.181475   0.252433   0.281709  -0.413436
   49  H  5  S    0.080078  -0.105108  -0.080075   0.195161  -0.392095
   50  H  6  S    0.028695  -0.034026  -0.138961   0.216871  -0.297286
   51  H  6  S    0.114309  -0.076844  -0.017485   0.356587  -0.007232
   52  H  7  S   -0.025092  -0.453378   0.282277   0.169386   0.553215
   53  H  7  S   -0.051331   1.030745  -0.357340  -0.707061  -1.122448

                     26         27         28         29         30
                    0.7621     0.8300     0.8458     0.8851     0.9336
                     A          A          A          A          A   
    1  C  1  S   -0.000595  -0.018910  -0.046282   0.000007   0.035301
    2  C  1  S    0.386903   0.277953   0.194097  -0.150416  -0.569535
    3  C  1  X   -0.304368   0.334487   0.292142   0.208720  -0.374071
    4  C  1  Y    0.240989  -0.552387  -0.062152  -0.357017  -0.249649
    5  C  1  Z   -0.205573   0.424752  -0.134305   0.402200   0.171185
    6  C  1  S   -2.551661  -1.057550  -0.722282  -0.238503   0.170002
    7  C  1  X    1.909971  -0.885573  -0.658276   0.070062   0.666097
    8  C  1  Y   -0.551613   1.446317   0.602496   0.683636   0.935365
    9  C  1  Z    0.648965  -1.179772  -0.293124  -0.555555  -0.444065
   10  C  1 XX   -0.044380  -0.102423   0.006140  -0.078668  -0.021564
   11  C  1 YY   -0.035295   0.081964  -0.002180  -0.010115  -0.016832
   12  C  1 ZZ    0.079676   0.020460  -0.003959   0.088783   0.038396
   13  C  1 XY   -0.040106   0.018850  -0.060985   0.040310  -0.103524
   14  C  1 XZ    0.008081   0.047477   0.080841  -0.096658   0.086694
   15  C  1 YZ   -0.020685  -0.013146   0.102505  -0.061696  -0.072012
   16  C  2  S    0.011768  -0.023337   0.027195   0.014687  -0.007189
   17  C  2  S    0.077568   0.154138  -0.996318  -0.417775  -0.936115
   18  C  2  X   -0.188054  -0.196358  -0.079832  -0.142511  -0.140686
   19  C  2  Y   -0.774519  -0.477117   0.191404   0.262614   0.005672
   20  C  2  Z   -0.023499  -0.047583  -0.014177   0.005957   0.031756
   21  C  2  S    1.197370  -0.164528   1.825200   1.896038   2.174045
   22  C  2  X    0.961257   0.717257   0.203995   0.106872   0.764018
   23  C  2  Y    3.645454   0.790267  -0.395141   0.403490   0.079841
   24  C  2  Z    0.011682   0.450796   0.340710   0.047054  -0.051222
   25  C  2 XX    0.031835   0.100158  -0.045283   0.001964  -0.039973
   26  C  2 YY    0.040641  -0.153621   0.065899   0.062079  -0.001682
   27  C  2 ZZ   -0.072476   0.053464  -0.020616  -0.064043   0.041655
   28  C  2 XY   -0.034085  -0.039307  -0.030810  -0.082589  -0.011205
   29  C  2 XZ    0.000624  -0.023948  -0.093043   0.061009  -0.017745
   30  C  2 YZ    0.004566  -0.057210  -0.082890   0.059942  -0.020993
   31  O  3  S    0.007564   0.003032  -0.003662   0.041380  -0.010983
   32  O  3  S    0.093563   0.009950   0.046012  -0.204791   0.088292
   33  O  3  X    0.174128   0.117322   0.126911   0.233855   0.075980
   34  O  3  Y   -0.306627   0.061550  -0.088737  -0.300180   0.120185
   35  O  3  Z   -0.013936   0.173916   0.192178   0.001849  -0.389601
   36  O  3  S   -1.087186  -0.055746  -0.242212  -0.400212  -0.181610
   37  O  3  X   -0.632147  -0.250398  -0.225297  -0.708224  -0.125418
   38  O  3  Y    0.083250  -0.097221   0.141387   0.536896  -0.191870
   39  O  3  Z    0.031482  -0.231848  -0.268972   0.044401   0.473409
   40  O  3 XX   -0.084290  -0.071487  -0.002056   0.031532  -0.022562
   41  O  3 YY    0.001644   0.039984  -0.063543  -0.048176  -0.039895
   42  O  3 ZZ    0.082645   0.031503   0.065599   0.016644   0.062457
   43  O  3 XY   -0.005148  -0.034239   0.014529   0.047305  -0.002258
   44  O  3 XZ   -0.000995  -0.041285  -0.034892   0.009075  -0.020178
   45  O  3 YZ   -0.003975  -0.044596  -0.068013   0.017018  -0.019070
   46  H  4  S    0.331274  -0.587671   0.438280   0.494098  -0.012449
   47  H  4  S    1.838335   1.230686  -1.056588  -0.573145  -0.383052
   48  H  5  S    0.136012  -0.055667   0.012019  -0.510366   0.727167
   49  H  5  S   -0.813209   1.389827   0.540507   0.790767  -0.716709
   50  H  6  S    0.080829   0.029578  -0.755335   0.560687   0.351937
   51  H  6  S    0.404703  -0.958249   0.427732  -1.093651  -1.044373
   52  H  7  S   -0.261038  -0.318006  -0.343800   0.207289  -0.220150
   53  H  7  S    0.409391  -0.077531  -0.096072  -0.449984   0.091806

                     31         32         33         34         35
                    0.9652     0.9902     1.0440     1.1775     1.4583
                     A          A          A          A          A   
    1  C  1  S   -0.025127   0.009740  -0.023256  -0.039755  -0.015072
    2  C  1  S    0.388230   0.040473  -1.448878  -1.343967  -0.257427
    3  C  1  X    0.407693   0.073639   0.109929   0.030033   0.002728
    4  C  1  Y   -0.025065  -0.059100  -0.002576  -0.040414   0.000841
    5  C  1  Z    0.033059   0.188123   0.097018   0.032222  -0.069843
    6  C  1  S   -0.802922  -0.393360   3.190246   4.589377   0.841608
    7  C  1  X   -0.759468   0.540083  -0.417219  -1.396497  -0.168671
    8  C  1  Y   -0.078244  -0.118936  -0.568764  -0.426231  -0.007535
    9  C  1  Z    0.035565  -0.251510  -0.406514  -0.264157  -0.071038
   10  C  1 XX   -0.024129  -0.035697  -0.026647  -0.063266   0.015926
   11  C  1 YY   -0.005365  -0.055015  -0.018065   0.018219   0.101239
   12  C  1 ZZ    0.029494   0.090712   0.044711   0.045048  -0.117165
   13  C  1 XY    0.054342   0.049297  -0.001109   0.039050  -0.036594
   14  C  1 XZ   -0.038452  -0.064877  -0.031345   0.101694  -0.049651
   15  C  1 YZ    0.080860  -0.058936   0.078582   0.125992  -0.148961
   16  C  2  S    0.001003  -0.016467   0.007859   0.021469   0.002774
   17  C  2  S    0.214080  -0.515500   0.681905   0.482031   0.033777
   18  C  2  X    0.054492   0.181596   0.072024   0.122835   0.001985
   19  C  2  Y   -0.093989  -0.055020  -0.186216   0.028777  -0.030573
   20  C  2  Z    0.070570  -0.013094  -0.007777   0.021746   0.157819
   21  C  2  S   -0.765678   0.450808  -2.755614  -2.157914  -0.375622
   22  C  2  X   -0.091290  -0.010601  -0.402791  -2.015009  -0.199828
   23  C  2  Y    0.427271   0.383159   0.665243  -1.122022  -0.144585
   24  C  2  Z   -0.410737   0.056006   0.141910  -0.039549  -0.107256
   25  C  2 XX   -0.017081  -0.059346  -0.127569   0.085980   0.003485
   26  C  2 YY    0.007477  -0.041022   0.121998  -0.091949   0.051894
   27  C  2 ZZ    0.009605   0.100368   0.005571   0.005969  -0.055378
   28  C  2 XY    0.002296   0.096075  -0.043772  -0.089873  -0.045000
   29  C  2 XZ    0.001061   0.053574  -0.037697  -0.139576   0.480010
   30  C  2 YZ    0.005140   0.012714  -0.001869  -0.104448  -0.426312
   31  O  3  S   -0.009274  -0.044790  -0.003871  -0.005191   0.002277
   32  O  3  S    0.112647   0.367713   0.070556   0.180027  -0.062210
   33  O  3  X   -0.031450  -0.608553   0.183766  -0.202442  -0.014147
   34  O  3  Y    0.162581   0.053866   0.449103  -0.603368  -0.031334
   35  O  3  Z   -0.771580   0.173804   0.162843  -0.149614   0.053833
   36  O  3  S   -0.155574  -0.490254  -0.046748  -0.276878   0.127078
   37  O  3  X   -0.004329   0.939533  -0.332064   0.386697   0.058948
   38  O  3  Y   -0.277870  -0.310396  -0.846859   1.347806   0.068823
   39  O  3  Z    1.022148  -0.226529  -0.257036   0.257903   0.186153
   40  O  3 XX    0.004371  -0.083674   0.109598  -0.053975   0.013031
   41  O  3 YY   -0.027515  -0.018132  -0.092784   0.076853  -0.032634
   42  O  3 ZZ    0.023144   0.101805  -0.016815  -0.022878   0.019603
   43  O  3 XY   -0.012332  -0.032548   0.004228  -0.078398   0.029191
   44  O  3 XZ   -0.029748  -0.018377  -0.005377  -0.052892  -0.459171
   45  O  3 YZ    0.007490  -0.011499  -0.034113  -0.084604   0.274100
   46  H  4  S    0.157343   0.290703   0.323122  -0.083247  -0.017683
   47  H  4  S    0.305136  -0.082975   0.685191  -0.267589  -0.022269
   48  H  5  S   -0.409554  -0.288026  -0.138116  -0.041624  -0.018745
   49  H  5  S    0.962920   0.133588  -0.412667  -0.190734  -0.094497
   50  H  6  S   -0.227668   0.330835  -0.049731  -0.188297  -0.177744
   51  H  6  S    0.439560  -0.579541  -0.694250  -0.439047  -0.095819
   52  H  7  S   -0.146929  -0.474588  -0.225868  -0.202717  -0.032954
   53  H  7  S    0.003043   0.788325   0.364665  -0.883053  -0.152050

                     36         37         38         39         40
                    1.4946     1.6233     1.7265     1.8042     1.8120
                     A          A          A          A          A   
    1  C  1  S    0.018867  -0.014776   0.009220  -0.000298   0.011911
    2  C  1  S    0.194535  -0.399318  -0.052356  -0.515341  -0.024423
    3  C  1  X   -0.040641   0.053600   0.017125   0.281101   0.052089
    4  C  1  Y    0.100716  -0.023315   0.149901   0.069458   0.167395
    5  C  1  Z    0.091963  -0.069042   0.039664  -0.000207  -0.054328
    6  C  1  S   -0.747636   1.454573  -0.668167   0.282640  -1.143984
    7  C  1  X    0.658160  -0.831648   0.468957  -0.717916   0.884992
    8  C  1  Y   -0.271244   0.098611  -0.130978   0.531593  -0.202733
    9  C  1  Z    0.408190  -0.055205  -0.104264  -0.441765   0.238256
   10  C  1 XX   -0.091457  -0.015450  -0.365079   0.184430  -0.119083
   11  C  1 YY   -0.083143   0.384277   0.455441  -0.421318   0.405720
   12  C  1 ZZ    0.174600  -0.368827  -0.090362   0.236887  -0.286637
   13  C  1 XY    0.163277  -0.090054   0.135627   0.232951   0.106272
   14  C  1 XZ    0.433005  -0.135894   0.216534  -0.144627  -0.087587
   15  C  1 YZ    0.016176  -0.048289   0.007185   0.068876  -0.286277
   16  C  2  S   -0.001864   0.008181  -0.002492   0.003464  -0.017765
   17  C  2  S    0.030368   0.142259  -0.039139  -0.197509  -0.301303
   18  C  2  X    0.023872   0.103153  -0.062581   0.003020  -0.130087
   19  C  2  Y    0.015745  -0.050792   0.167138   0.012360   0.036085
   20  C  2  Z    0.105182  -0.065140   0.028039  -0.019052  -0.044317
   21  C  2  S   -0.508976  -2.324940   0.832099  -0.336997   1.783589
   22  C  2  X    0.784710   0.277222   0.050576   0.762985   0.161384
   23  C  2  Y    0.099462  -0.917915   1.313240   0.041260   1.673038
   24  C  2  Z   -0.203707  -0.027657   0.145623   0.205011  -0.037051
   25  C  2 XX    0.055901   0.049155   0.306146   0.226137   0.288763
   26  C  2 YY    0.019981  -0.059294  -0.406082  -0.254101  -0.173404
   27  C  2 ZZ   -0.075882   0.010138   0.099936   0.027964  -0.115359
   28  C  2 XY    0.174936   0.076097  -0.128364   0.279807  -0.047884
   29  C  2 XZ   -0.295920   0.084374   0.004197   0.195161  -0.039965
   30  C  2 YZ   -0.454052   0.243056  -0.090593   0.177191   0.049499
   31  O  3  S    0.021279   0.029999   0.006186  -0.005834   0.003142
   32  O  3  S   -0.729317  -1.285236   0.354510  -0.212036   0.508612
   33  O  3  X   -0.070655  -0.165239   0.019412   0.171127   0.015633
   34  O  3  Y    0.145477   0.006479   0.172765   0.025642   0.126958
   35  O  3  Z    0.001991  -0.055389   0.026554   0.004498  -0.009223
   36  O  3  S    1.417227   2.696809  -1.168838   0.777895  -1.638807
   37  O  3  X    0.417648   0.929491  -0.496459  -0.030923  -0.608421
   38  O  3  Y   -0.555842  -0.266749  -0.084373  -0.236098  -0.000373
   39  O  3  Z   -0.002437   0.075797  -0.050831  -0.024214   0.033908
   40  O  3 XX   -0.096425  -0.249853  -0.185853  -0.371266   0.068055
   41  O  3 YY    0.108660  -0.070280  -0.007837   0.591274   0.312977
   42  O  3 ZZ   -0.012235   0.320133   0.193689  -0.220008  -0.381033
   43  O  3 XY    0.141751  -0.030955  -0.208275   0.069375   0.088082
   44  O  3 XZ   -0.118662  -0.000918   0.299282   0.014444  -0.282879
   45  O  3 YZ   -0.131587  -0.134589   0.395983   0.184882  -0.537779
   46  H  4  S    0.160447   0.129740   0.583845   0.258751   0.331124
   47  H  4  S    0.120665  -0.077256   0.340630   0.041429   0.430371
   48  H  5  S   -0.169623   0.056968   0.120312   0.275844   0.030290
   49  H  5  S   -0.305492   0.074812  -0.125200   0.310286  -0.331034
   50  H  6  S    0.267660  -0.112315  -0.035219  -0.191003  -0.017869
   51  H  6  S    0.161376  -0.052532   0.005676  -0.304132   0.102538
   52  H  7  S    0.091547  -0.298235   0.285890  -0.160847   0.140828
   53  H  7  S    0.245020  -0.480861  -0.020822  -0.307698   0.150791

                     41         42         43         44         45
                    1.9090     2.0547     2.0622     2.1262     2.1965
                     A          A          A          A          A   
    1  C  1  S   -0.028061   0.025130  -0.042051   0.006129   0.009093
    2  C  1  S   -0.413054  -0.112813  -0.430317  -0.014582   0.221116
    3  C  1  X    0.152816   0.206479   0.066740  -0.058508  -0.008166
    4  C  1  Y   -0.023726   0.053498   0.011512   0.047087   0.006274
    5  C  1  Z    0.034645   0.091053  -0.026054  -0.043849  -0.018659
    6  C  1  S    0.831771  -1.008057   1.864565   0.081997  -0.826452
    7  C  1  X   -0.007723   0.272145  -0.639730  -0.398768   0.561532
    8  C  1  Y   -0.029806  -0.092508  -0.141713   0.096191   0.306770
    9  C  1  Z   -0.202747   0.335851  -0.320731  -0.333700  -0.103284
   10  C  1 XX    0.107014   0.496542   0.251401  -0.283210  -0.182266
   11  C  1 YY    0.167403  -0.056783  -0.337974   0.015434  -0.251887
   12  C  1 ZZ   -0.274417  -0.439759   0.086573   0.267776   0.434153
   13  C  1 XY    0.040497   0.002649   0.233610   0.648373  -0.323697
   14  C  1 XZ    0.388613  -0.187469   0.273275   0.072478   0.120447
   15  C  1 YZ   -0.371776   0.283321  -0.622509   0.313869  -0.168900
   16  C  2  S   -0.017638  -0.031456   0.032489  -0.011275  -0.045622
   17  C  2  S   -0.276269  -0.526387   0.165812  -0.267700  -0.152661
   18  C  2  X   -0.102409  -0.101116  -0.038043  -0.269408   0.276593
   19  C  2  Y   -0.208731  -0.123282  -0.036344  -0.091796   0.098376
   20  C  2  Z   -0.028727   0.015439  -0.048653   0.020952   0.007883
   21  C  2  S    0.254988   1.627356  -1.257816   0.242633   0.983938
   22  C  2  X   -0.222900   0.219360  -0.432487  -0.180474   0.113097
   23  C  2  Y    0.282482   0.927990  -0.849662  -0.300774   0.505106
   24  C  2  Z    0.078580  -0.116051   0.007862   0.230621   0.101499
   25  C  2 XX    0.026861   0.371798  -0.022699   0.288058   0.281802
   26  C  2 YY    0.352313   0.268408  -0.040413   0.055325   0.201330
   27  C  2 ZZ   -0.379174  -0.640205   0.063113  -0.343383  -0.483132
   28  C  2 XY    0.100269   0.066150   0.158725  -0.095211  -0.625683
   29  C  2 XZ    0.052838  -0.224580   0.154384   0.211447   0.083039
   30  C  2 YZ    0.142624  -0.186263   0.058614   0.331448   0.149856
   31  O  3  S    0.003574   0.006187  -0.014393   0.015750   0.033662
   32  O  3  S   -0.058091   0.277800   0.212870  -0.130226  -0.367943
   33  O  3  X   -0.118720  -0.005329   0.170492  -0.192531  -0.303467
   34  O  3  Y   -0.089398   0.115989  -0.027814   0.032329   0.278420
   35  O  3  Z   -0.055345   0.020111  -0.016553   0.032888   0.018091
   36  O  3  S   -0.194438  -1.048419   0.115682  -0.066627  -0.105781
   37  O  3  X    0.129016  -0.413872  -0.075165   0.161116   0.050320
   38  O  3  Y    0.230352  -0.016533  -0.013877   0.185562  -0.250902
   39  O  3  Z    0.090220  -0.005981   0.032525  -0.090232  -0.021533
   40  O  3 XX    0.239799  -0.155452  -0.134216   0.354757  -0.204173
   41  O  3 YY    0.106627  -0.054595  -0.309461  -0.451539   0.300222
   42  O  3 ZZ   -0.346426   0.210047   0.443677   0.096781  -0.096048
   43  O  3 XY    0.243647  -0.337676  -0.354477   0.110069  -0.265916
   44  O  3 XZ    0.326320  -0.011999   0.023516  -0.184469  -0.029257
   45  O  3 YZ    0.315666   0.050648  -0.263721  -0.044987  -0.031747
   46  H  4  S   -0.278189  -0.155057  -0.076399  -0.168249   0.030912
   47  H  4  S    0.173384   0.218812  -0.253767  -0.170704   0.076620
   48  H  5  S   -0.318644  -0.085367  -0.244553   0.517208  -0.093073
   49  H  5  S   -0.023951   0.001301   0.048082   0.061731   0.017862
   50  H  6  S   -0.150268   0.519282  -0.472085  -0.086583  -0.193464
   51  H  6  S   -0.272396  -0.016219  -0.128395  -0.072099  -0.012031
   52  H  7  S   -0.481413   0.110030   0.323916  -0.037550   0.062660
   53  H  7  S    0.002408   0.038049  -0.126992  -0.040782   0.008727

                     46         47         48         49         50
                    2.3669     2.4972     2.6574     2.8104     2.8701
                     A          A          A          A          A   
    1  C  1  S    0.013192   0.012307   0.071705   0.016069   0.013204
    2  C  1  S    0.088882   0.047323  -0.033640  -0.066156   0.135575
    3  C  1  X    0.061504   0.034222   0.467102   0.100594  -0.007049
    4  C  1  Y    0.003553   0.000614   0.290746   0.157918  -0.032525
    5  C  1  Z    0.022260  -0.005813   0.012601   0.020279  -0.022480
    6  C  1  S   -0.714157  -0.446185  -2.196678   0.141121  -0.466614
    7  C  1  X    0.666092   0.179610   1.130961  -0.018432   0.160094
    8  C  1  Y   -0.202489  -0.003308   0.527924   0.102811   0.005598
    9  C  1  Z    0.066389   0.068537   0.023544   0.079950   0.038498
   10  C  1 XX    0.189819   0.010553  -0.779237   0.197583  -0.336273
   11  C  1 YY    0.025530   0.029917   0.235744  -0.293732   0.266726
   12  C  1 ZZ   -0.215349  -0.040470   0.543494   0.096149   0.069548
   13  C  1 XY   -0.315660  -0.081811  -0.615708  -0.469182   0.243963
   14  C  1 XZ    0.723238   0.199409  -0.112015   0.016409  -0.042774
   15  C  1 YZ    0.400474   0.367878  -0.077961  -0.032268   0.045993
   16  C  2  S   -0.002507  -0.006634  -0.069821  -0.004783   0.005677
   17  C  2  S   -0.007269  -0.023763   0.249079  -0.429920  -0.850671
   18  C  2  X    0.060457  -0.009199   0.269255   0.602383   0.779146
   19  C  2  Y    0.010229   0.021179   0.366239  -0.328144  -0.549241
   20  C  2  Z    0.154623  -0.118147   0.034071  -0.022888  -0.035247
   21  C  2  S    0.679848   0.387300   2.484014  -0.796407  -1.026516
   22  C  2  X    0.177948   0.123743   0.845920   0.309070   0.774034
   23  C  2  Y    0.645089   0.278011   1.016310  -0.812588  -0.192329
   24  C  2  Z    0.239276  -0.204639   0.105955  -0.090575  -0.013201
   25  C  2 XX   -0.088701  -0.021647   0.366125   0.639531  -0.747501
   26  C  2 YY   -0.055859   0.094164   0.235879  -0.832772   0.422515
   27  C  2 ZZ    0.144560  -0.072516  -0.602005   0.193241   0.324985
   28  C  2 XY    0.106954   0.005350   0.819313   0.462122   0.641212
   29  C  2 XZ    0.179184   0.843203   0.030579   0.059658   0.027387
   30  C  2 YZ    0.566189  -0.373321   0.077918  -0.084392  -0.004896
   31  O  3  S   -0.007142  -0.000650  -0.003261  -0.026710  -0.050909
   32  O  3  S    0.278488   0.072611   0.442218  -0.612158  -0.536403
   33  O  3  X    0.114612   0.018283   0.145783   0.004167   0.154253
   34  O  3  Y    0.002662  -0.008454  -0.070835  -0.039488  -0.101477
   35  O  3  Z    0.052508  -0.026022   0.007385  -0.015552   0.001736
   36  O  3  S   -0.590063  -0.206254  -0.996036   1.893046   2.183482
   37  O  3  X   -0.299052  -0.096879  -0.533611   1.090074   0.968286
   38  O  3  Y   -0.095186  -0.017038   0.143230  -0.252498  -1.033715
   39  O  3  Z   -0.245780   0.368805  -0.037188   0.033909  -0.088343
   40  O  3 XX   -0.123243  -0.043010  -0.137823   0.910493   0.260695
   41  O  3 YY    0.095761   0.105255  -0.080435  -0.484068   0.307858
   42  O  3 ZZ    0.027482  -0.062245   0.218259  -0.426425  -0.568553
   43  O  3 XY   -0.082234  -0.018033   0.094012  -0.312453  -1.079090
   44  O  3 XZ   -0.461204   0.645409  -0.040332   0.036652  -0.079063
   45  O  3 YZ    0.044691  -0.572827  -0.022073   0.004951   0.056744
   46  H  4  S    0.070093  -0.025202  -0.253201   0.300356  -0.171424
   47  H  4  S    0.206709   0.096060   0.301117  -0.403793   0.206621
   48  H  5  S   -0.422192  -0.031048   0.115106  -0.193555   0.196576
   49  H  5  S   -0.078373   0.012323  -0.124765   0.034279  -0.123659
   50  H  6  S    0.452447   0.238135  -0.112650   0.048127  -0.016822
   51  H  6  S   -0.079450  -0.043279   0.050322  -0.002062   0.103415
   52  H  7  S    0.174600  -0.018293   0.158280  -0.292745   0.041346
   53  H  7  S    0.221235   0.059745   0.080743   0.047778   0.158345
 ...... END OF RHF CALCULATION ......
 STEP CPU TIME =     7.44 TOTAL CPU TIME =          7.5 (      0.1 MIN)
 TOTAL WALL CLOCK TIME=          7.5 SECONDS, CPU UTILIZATION IS    99.20%

     ---------------------------------------------------------------------
     PROPERTIES FOR THE B3LYP    DFT FUNCTIONAL (RHF  TYPE) DENSITY MATRIX
     ---------------------------------------------------------------------

          -----------------
          ENERGY COMPONENTS
          -----------------

         WAVEFUNCTION NORMALIZATION =       1.0000000000

                ONE ELECTRON ENERGY =    -349.4949457932
                TWO ELECTRON ENERGY =     124.3998357521
           NUCLEAR REPULSION ENERGY =      71.4722683551
                                      ------------------
                       TOTAL ENERGY =    -153.6228416860

 ELECTRON-ELECTRON POTENTIAL ENERGY =     124.3998357521
  NUCLEUS-ELECTRON POTENTIAL ENERGY =    -502.2477277074
   NUCLEUS-NUCLEUS POTENTIAL ENERGY =      71.4722683551
                                      ------------------
             TOTAL POTENTIAL ENERGY =    -306.3756236002
               TOTAL KINETIC ENERGY =     152.7527819141
                 VIRIAL RATIO (V/T) =       2.0056958686

          ---------------------------------------
          MULLIKEN AND LOWDIN POPULATION ANALYSES
          ---------------------------------------

     ATOMIC MULLIKEN POPULATION IN EACH MOLECULAR ORBITAL

                      1          2          3          4          5

                  2.000000   2.000000   2.000000   2.000000   2.000000

    1            -0.000204   0.000965   1.996246   0.067239   0.972094
    2             0.002129   2.000046   0.001570   0.407498   0.582611
    3             1.997825  -0.001974   0.000006   1.494608   0.226591
    4             0.000032   0.000843  -0.000008  -0.001116   0.029368
    5            -0.000001  -0.000006   0.000721   0.000744   0.090606
    6            -0.000001   0.000044   0.001131   0.000776   0.085117
    7             0.000219   0.000081   0.000333   0.030251   0.013613

                      6          7          8          9         10

                  2.000000   2.000000   2.000000   2.000000   2.000000

    1             0.195783   0.657811   0.362846   0.445612   0.474409
    2             0.863601   0.252562   0.477703   0.459461   0.351063
    3             0.345831   0.628289   0.850950   0.694031   0.622030
    4             0.399579   0.029639   0.044776   0.075940   0.122927
    5             0.018659   0.279653   0.003382   0.225884   0.064056
    6             0.066145   0.089327   0.203204   0.084741   0.242645
    7             0.110402   0.062719   0.057139   0.014331   0.122871

                     11         12

                  2.000000   2.000000

    1             0.291990   1.154420
    2             0.214997   0.130028
    3             1.036561   0.572423
    4             0.132175   0.003601
    5             0.155774   0.012180
    6             0.019416   0.008423
    7             0.149087   0.118926

               ----- POPULATIONS IN EACH AO -----
                             MULLIKEN      LOWDIN
              1  C  1  S      1.99654     1.98025
              2  C  1  S      0.65929     0.36529
              3  C  1  X      0.72278     0.64610
              4  C  1  Y      0.67703     0.62571
              5  C  1  Z      0.69537     0.63833
              6  C  1  S      0.67140     0.35438
              7  C  1  X      0.31098     0.41173
              8  C  1  Y      0.39746     0.51937
              9  C  1  Z      0.46012     0.55726
             10  C  1 XX      0.00538     0.17424
             11  C  1 YY      0.00464     0.14132
             12  C  1 ZZ      0.00945     0.14413
             13  C  1 XY      0.00401     0.01854
             14  C  1 XZ      0.00479     0.00829
             15  C  1 YZ      0.00000     0.00785
             16  C  2  S      1.99638     1.97721
             17  C  2  S      0.71811     0.37212
             18  C  2  X      0.74604     0.65480
             19  C  2  Y      0.75854     0.66443
             20  C  2  Z      0.43629     0.38561
             21  C  2  S      0.43640     0.30578
             22  C  2  X      0.12683     0.28430
             23  C  2  Y      0.14886     0.36435
             24  C  2  Z      0.29416     0.34534
             25  C  2 XX      0.00536     0.19272
             26  C  2 YY      0.02983     0.19576
             27  C  2 ZZ      0.02579     0.10741
             28  C  2 XY      0.01539     0.05187
             29  C  2 XZ      0.00530     0.03234
             30  C  2 YZ      0.00000     0.00856
             31  O  3  S      1.99736     1.97770
             32  O  3  S      0.92691     0.73702
             33  O  3  X      0.98690     0.93590
             34  O  3  Y      0.90729     0.85426
             35  O  3  Z      0.95572     0.91581
             36  O  3  S      0.97341     0.47239
             37  O  3  X      0.54991     0.60032
             38  O  3  Y      0.51116     0.59915
             39  O  3  Z      0.62904     0.65502
             40  O  3 XX      0.00317     0.18265
             41  O  3 YY      0.00653     0.18334
             42  O  3 ZZ      0.01088     0.17418
             43  O  3 XY      0.00703     0.01886
             44  O  3 XZ      0.00186     0.00990
             45  O  3 YZ      0.00000     0.00283
             46  H  4  S      0.52994     0.48766
             47  H  4  S      0.30781     0.35531
             48  H  5  S      0.52063     0.47425
             49  H  5  S      0.33102     0.36104
             50  H  6  S      0.50667     0.46227
             51  H  6  S      0.29430     0.34244
             52  H  7  S      0.37396     0.32878
             53  H  7  S      0.30601     0.33353

          ----- MULLIKEN ATOMIC OVERLAP POPULATIONS -----
          (OFF-DIAGONAL ELEMENTS NEED TO BE MULTIPLIED BY 2)

             1           2           3           4           5

    1    5.5059419
    2    0.4827294   4.6549454
    3   -0.1825573   0.3943852   8.2066343
    4   -0.0556876   0.3561388  -0.0420171   0.5595884
    5    0.3497580  -0.0195712   0.0051217   0.0016915   0.5404731
    6    0.3624698  -0.0305792  -0.0070065   0.0023520  -0.0273222
    7    0.1565567  -0.0947787   0.0926104   0.0156905   0.0015016

             6           7

    6    0.5018706
    7   -0.0008158   0.5092069

          TOTAL MULLIKEN AND LOWDIN ATOMIC POPULATIONS
       ATOM         MULL.POP.    CHARGE          LOW.POP.     CHARGE
    1 C             6.619211   -0.619211         6.592776   -0.592776
    2 C             5.743270    0.256730         5.942595    0.057405
    3 O             8.467171   -0.467171         8.319347   -0.319347
    4 H             0.837756    0.162244         0.842967    0.157033
    5 H             0.851652    0.148348         0.835286    0.164714
    6 H             0.800969    0.199031         0.804714    0.195286
    7 H             0.679972    0.320028         0.662316    0.337684

          MULLIKEN SPHERICAL HARMONIC POPULATIONS
       ATOM           S       P       D      F      G      H      I    TOTAL
    1 C             3.33    3.26    0.03   0.00   0.00   0.00   0.00    6.62
    2 C             3.15    2.51    0.08   0.00   0.00   0.00   0.00    5.74
    3 O             3.90    4.54    0.03   0.00   0.00   0.00   0.00    8.47
    4 H             0.84    0.00    0.00   0.00   0.00   0.00   0.00    0.84
    5 H             0.85    0.00    0.00   0.00   0.00   0.00   0.00    0.85
    6 H             0.80    0.00    0.00   0.00   0.00   0.00   0.00    0.80
    7 H             0.68    0.00    0.00   0.00   0.00   0.00   0.00    0.68

          -------------------------------
          BOND ORDER AND VALENCE ANALYSIS     BOND ORDER THRESHOLD=0.050
          -------------------------------

                   BOND                       BOND                       BOND
  ATOM PAIR DIST  ORDER      ATOM PAIR DIST  ORDER      ATOM PAIR DIST  ORDER
    1   2  1.412  1.321        1   3  2.221  0.120        1   5  1.089  0.932
    1   6  1.094  0.891        1   7  1.524  0.427        2   3  1.285  1.479
    2   4  1.095  0.912        3   7  1.291  0.407

                       TOTAL       BONDED        FREE
      ATOM            VALENCE     VALENCE     VALENCE
    1 C                 3.683       3.683      -0.000
    2 C                 3.751       3.751       0.000
    3 O                 2.054       2.054       0.000
    4 H                 0.931       0.931       0.000
    5 H                 0.950       0.950       0.000
    6 H                 0.926       0.926      -0.000
    7 H                 0.882       0.882       0.000

          ---------------------
          ELECTROSTATIC MOMENTS
          ---------------------

 POINT   1           X           Y           Z (BOHR)    CHARGE
                 0.000000    0.000000    0.000000       -0.00 (A.U.)
         DX          DY          DZ         /D/  (DEBYE)
     1.047823   -1.020213   -0.397315    1.515463
 ...... END OF PROPERTY EVALUATION ......
 STEP CPU TIME =     0.01 TOTAL CPU TIME =          7.5 (      0.1 MIN)
 TOTAL WALL CLOCK TIME=          7.5 SECONDS, CPU UTILIZATION IS    99.34%

 BEGINNING ONE ELECTRON GRADIENT...
 ..... END OF 1-ELECTRON GRADIENT ......
 STEP CPU TIME =     0.00 TOTAL CPU TIME =          7.5 (      0.1 MIN)
 TOTAL WALL CLOCK TIME=          7.5 SECONDS, CPU UTILIZATION IS    99.20%

          ----------------------
          GRADIENT OF THE ENERGY
          ----------------------
 MEMORY FOR GRID POINT CONTRIBUTIONS TO THE DFT GRADIENT=    269593 WORDS.
 STEP CPU TIME =     1.20 TOTAL CPU TIME =          8.7 (      0.1 MIN)
 TOTAL WALL CLOCK TIME=          8.8 SECONDS, CPU UTILIZATION IS    99.20%

 THE MINIMUM MEMORY REQUIRED FOR THIS RUN IS      88877 WORDS.
 USING     991233 WORDS FOR 2E- DERIVATIVE INTEGRAL CONTRIBUTIONS.
 THE COARSE/FINE SCHWARZ SCREENINGS SKIPPED          517/         970 BLOCKS.
 THE NUMBER OF GRADIENT INTEGRAL BLOCKS COMPUTED WAS     20479
 ...... END OF 2-ELECTRON GRADIENT ......
 STEP CPU TIME =     0.22 TOTAL CPU TIME =          8.9 (      0.1 MIN)
 TOTAL WALL CLOCK TIME=          9.0 SECONDS, CPU UTILIZATION IS    99.33%
 THE VIB 0 GRADIENT RMS = 1.17473704E-04

 THE VIB 0 GEOMETRY GRADIENT IS

 UNITS ARE HARTREE/BOHR    E'X               E'Y               E'Z 
    1 C               -0.000141621       0.000017016      -0.000019664
    2 C                0.000075430      -0.000104025      -0.000019654
    3 O               -0.000139420      -0.000136946      -0.000124081
    4 H                0.000032854      -0.000029766       0.000005184
    5 H               -0.000051639       0.000000163       0.000006120
    6 H                0.000038196      -0.000051456      -0.000082869
    7 H                0.000186201       0.000305014       0.000234965
  $VIB   
          IVIB=   0 IATOM=   0 ICOORD=   0 E=     -153.6228416860
 -1.416214187E-04 1.701614925E-05-1.966443534E-05 7.543021529E-05-1.040254134E-04
 -1.965379522E-05-1.394202905E-04-1.369460230E-04-1.240808709E-04 3.285375290E-05
 -2.976587935E-05 5.183559927E-06-5.163855449E-05 1.631875868E-07 6.120168519E-06
  3.819564267E-05-5.145638041E-05-8.286923829E-05 1.862006528E-04 3.050143594E-04
  2.349646114E-04
  1.047823101E+00-1.020213109E+00-3.973145679E-01
1   ATOM  1
                                        -------------------
   COORD  1                             NUCLEAR COORDINATES
                                        -------------------
     VIB  1

                       ATOM             X              Y              Z

                 1  C                2.216782       0.400889       0.063990
                 2  C               -0.053772      -1.011091      -0.066124
                 3  O               -1.989500       0.452995       0.025481
                 4  H               -0.359796      -3.055389      -0.144804
                 5  H                3.951441      -0.408606       0.798379
                 6  H                2.503590       1.575309      -1.611943
                 7  H               -0.155960       1.964904       0.579373
 ...... END OF ONE-ELECTRON INTEGRALS ......
 STEP CPU TIME =     0.01 TOTAL CPU TIME =          8.9 (      0.1 MIN)
 TOTAL WALL CLOCK TIME=          9.0 SECONDS, CPU UTILIZATION IS    99.33%
  ...... END OF TWO-ELECTRON INTEGRALS .....
 STEP CPU TIME =     0.00 TOTAL CPU TIME =          8.9 (      0.1 MIN)
 TOTAL WALL CLOCK TIME=          9.0 SECONDS, CPU UTILIZATION IS    99.33%

          --------------------------
             R-B3LYP SCF CALCULATION
          --------------------------
         DENSITY MATRIX CONVERGENCE THRESHOLD=  2.00E-05
     COARSE -> FINE DFT GRID SWITCH THRESHOLD=  3.00E-04 (SWITCH IN $DFT)
                   HF -> DFT SWITCH THRESHOLD=  5.00E-03 (SWOFF IN $DFT)

 DIRECT SCF CALCULATION, SCHWRZ=T   FDIFF=T,  DIRTHR=  0.00E+00 NITDIR=10

                                                                                   NONZERO     BLOCKS
 ITER EX DEM     TOTAL ENERGY        E CHANGE  DENSITY CHANGE    DIIS ERROR      INTEGRALS    SKIPPED
          * * *   INITIATING DIIS PROCEDURE   * * *
   1  0  0     -153.6227959767  -153.6227959767   0.002030034   0.000807667        1000019        464
   2  1  0     -153.6228071770    -0.0000112003   0.001453593   0.000774139         997079        993
   3  2  0     -153.6228060034     0.0000011736   0.000990934   0.001067623         994268       1246
   4  3  0     -153.6228090969    -0.0000030934   0.000127138   0.000119053         992370       1395
   5  4  0     -153.6228091871    -0.0000000903   0.000043407   0.000043100         983924       1838
   6  5  0     -153.6228091982    -0.0000000111   0.000009183   0.000007598         973674       2434
   7  6  0     -153.6228091986    -0.0000000004   0.000002320   0.000001777         960055       3044

          -----------------
          DENSITY CONVERGED
          -----------------
     TIME TO FORM FOCK OPERATORS=       4.2 SECONDS (       0.6 SEC/ITER)
     FOCK TIME ON FIRST ITERATION=       0.6, LAST ITERATION=       0.6
     TIME TO SOLVE SCF EQUATIONS=       0.0 SECONDS (       0.0 SEC/ITER)

 FINAL R-B3LYP ENERGY IS     -153.6228091986 AFTER   7 ITERATIONS
 DFT EXCHANGE + CORRELATION ENERGY =       -16.7832541415
 TOTAL ELECTRON NUMBER             =        24.0000400441
 ...... END OF RHF CALCULATION ......
 STEP CPU TIME =     4.30 TOTAL CPU TIME =         13.2 (      0.2 MIN)
 TOTAL WALL CLOCK TIME=         13.3 SECONDS, CPU UTILIZATION IS    99.32%
 ..... END OF 1-ELECTRON GRADIENT ......
 STEP CPU TIME =     0.00 TOTAL CPU TIME =         13.2 (      0.2 MIN)
 TOTAL WALL CLOCK TIME=         13.3 SECONDS, CPU UTILIZATION IS    99.25%
 MEMORY FOR GRID POINT CONTRIBUTIONS TO THE DFT GRADIENT=    269593 WORDS.
 STEP CPU TIME =     1.05 TOTAL CPU TIME =         14.3 (      0.2 MIN)
 TOTAL WALL CLOCK TIME=         14.4 SECONDS, CPU UTILIZATION IS    99.23%
 ...... END OF 2-ELECTRON GRADIENT ......
 STEP CPU TIME =     0.18 TOTAL CPU TIME =         14.4 (      0.2 MIN)
 TOTAL WALL CLOCK TIME=         14.5 SECONDS, CPU UTILIZATION IS    99.31%

 UNITS ARE HARTREE/BOHR    E'X               E'Y               E'Z 
    1 C                0.006630043       0.000690828       0.000822944
    2 C               -0.002761776      -0.001312165      -0.000183842
    3 O               -0.001322222      -0.000463554      -0.000225952
    4 H                0.000102206      -0.000000847      -0.000026320
    5 H               -0.002609353       0.001016167      -0.000840791
    6 H               -0.000448975      -0.000310289       0.000201687
    7 H                0.000410078       0.000379861       0.000252274
  $VIB   
          IVIB=   1 IATOM=   1 ICOORD=   1 E=     -153.6228091986
[...]
                   Y-0.098282 0.085029-0.055785 0.015780-0.006034 0.004482
                   Z 0.098786-0.055785 0.072086-0.021049 0.009386-0.006937
  6   H            X 0.006213 0.015780-0.021049 0.054485 0.029907-0.030604
                   Y-0.002640-0.006034 0.009386 0.029907 0.125163-0.154434
                   Z 0.002316 0.004482-0.006937-0.030604-0.154434 0.227310
  7   H            X 0.001098-0.015545-0.018519-0.014719 0.028966 0.023291
                   Y-0.003641-0.003636-0.001189-0.002328 0.008564 0.006808
                   Z-0.000006 0.003104 0.000115 0.004068-0.002148-0.004909

                                   7
                               H         
                          X        Y        Z
  7   H            X-0.138867-0.028949-0.043906
                   Y-0.028949 0.106317 0.022685
                   Z-0.043906 0.022685 0.048223

          ------------------------          ----------------
          DIPOLE DERIVATIVE TENSOR          (DEBYE/ANGSTROM)
          ------------------------          ----------------

        ATOM                 MU-X           MU-Y           MU-Z
     C          D/DX    -2.140247222   -0.407214937    0.609625948
                D/DY    -1.770141134   -3.084793468   -0.910363665
                D/DZ     0.473298707   -1.160885740   -1.660863570
     C          D/DX     4.986859752    1.762477574    0.197728567
                D/DY     0.191233331    2.798265461    0.228226811
                D/DZ    -0.189557814    0.348756876    0.905751241
     O          D/DX    -6.259876268    0.062898203   -0.191398005
                D/DY     0.296583658   -0.802055370    0.191946521
                D/DZ    -0.487048970    0.058852067   -1.545514531
     H          D/DX     0.329504879   -0.308124168   -0.098638083
                D/DY    -0.148558163   -0.543073041   -0.055956978
                D/DZ     0.199268266    0.243646976    0.635303920
     H          D/DX    -0.196991121    0.178982335   -0.308146877
                D/DY     0.536592274    0.204686469    0.357957425
                D/DZ    -0.153896090    0.101496501    0.585423798
     H          D/DX     0.071797160   -0.169064638   -0.105491490
                D/DY     0.436973564    1.141523394    0.380663135
                D/DZ     0.135195393    0.799182209    0.225012201
     H          D/DX     3.212649670   -1.118749873   -0.103131080
                D/DY     0.448050623    0.280695643   -0.194384190
                D/DZ     0.025272726   -0.391970899    0.853671918

          --------------------------------------------------------
          NORMAL COORDINATE ANALYSIS IN THE HARMONIC APPROXIMATION
          --------------------------------------------------------

          ATOMIC WEIGHTS (AMU)

    1     C                12.00000
    2     C                12.00000
    3     O                15.99491
    4     H                 1.00782
    5     H                 1.00782
    6     H                 1.00782
    7     H                 1.00782

 MODE(S)     1 TO     1 TREATED AS IMAGINARY.

 MODES    2 TO    7 ARE TAKEN AS ROTATIONS AND TRANSLATIONS.

 ANALYZING SYMMETRY OF NORMAL MODES...

     FREQUENCIES IN CM**-1, IR INTENSITIES IN DEBYE**2/AMU-ANGSTROM**2,
     REDUCED MASSES IN AMU.

                            1           2           3           4           5
       FREQUENCY:      2195.34 I      4.45        0.08        0.12        0.22  
        SYMMETRY:         A           A           A           A           A   
    REDUCED MASS:      1.10147     3.90656     6.29175     6.31665     6.38678
    IR INTENSITY:      8.95608     0.03213     0.00000     0.00002     0.00005

  1   C            X -0.01577974 -0.01836808 -0.07255998  0.12272546 -0.04750294
                   Y  0.04388152  0.10022689 -0.00582729  0.05408539  0.13941020
                   Z  0.00679193 -0.14565620  0.13179879  0.06618056 -0.01307484
  2   C            X -0.05415499  0.03549517 -0.07186524  0.12452942 -0.04860608
                   Y  0.00976569  0.00174144 -0.00699876  0.05084786  0.14165133
                   Z -0.00760877 -0.00898360  0.13247358  0.07033656 -0.01831462
  3   O            X -0.00723326 -0.02335070 -0.07258556  0.12258240 -0.04729599
                   Y -0.04126975 -0.08486603 -0.00791522  0.04807279  0.14367946
                   Z -0.00500415  0.13267144  0.13184279  0.07373869 -0.02416573
  4   H            X  0.01253929  0.12066927 -0.07085633  0.12730806 -0.05044823
                   Y -0.01013215 -0.01110269 -0.00718491  0.05040876  0.14193679
                   Z -0.05949054 -0.00709795  0.13339435  0.07100526 -0.01815182
  5   H            X -0.02551478  0.06618120 -0.07214516  0.12523340 -0.05023450
                   Y  0.07784248  0.17057138 -0.00463497  0.05664061  0.13800635
                   Z  0.09635845 -0.26903204  0.13212050  0.06303734 -0.00807660
  6   H            X  0.06733974 -0.18160347 -0.07317328  0.11798009 -0.04183709
                   Y -0.15420546  0.13028854 -0.00644726  0.05445282  0.13813123
                   Z -0.12064842 -0.15345933  0.13125558  0.06559574 -0.01298264
  7   H            X  0.89324611 -0.05306744 -0.07330976  0.12146774 -0.04716631
                   Y  0.10184680 -0.00934466 -0.00675575  0.05072873  0.14213042
                   Z  0.17281429  0.02632184  0.13114619  0.07042389 -0.02007915

 TRANS. SAYVETZ    X  0.00011319 -0.21616189 -3.18585192  5.42359214 -2.10097371
                   Y -0.00086764  0.14880215 -0.30573448  2.24201066  6.23546673
                   Z -0.00011255 -0.14003293  5.81212947  3.08982464 -0.82295629
               TOTAL  0.00088220  0.29745128  6.63505652  6.63241885  6.63116829

   ROT. SAYVETZ    X -0.00030729  0.34797353 -0.01677005 -0.00190362 -0.01906389
                   Y -0.00001501  9.78127952  0.00248307  0.26643919 -0.38920955
                   Z  0.00116778  7.84758965  0.08750978  0.25447746 -0.18220346
               TOTAL  0.00120762 12.54508581  0.08913676  0.36844571  0.43016927

                            6           7           8           9          10
       FREQUENCY:         8.54       25.27      596.47      654.82      798.39  
        SYMMETRY:         A           A           A           A           A   
    REDUCED MASS:      4.05225     1.76954     1.25032     1.80016     1.35528
    IR INTENSITY:      0.05106     0.10775     1.09748     3.00679     0.75959

  1   C            X  0.02686072  0.00109304  0.03183349 -0.07891928 -0.04874442
                   Y -0.13314407  0.00700422  0.03963152  0.06519236 -0.02159046
                   Z -0.10128826 -0.08146969 -0.00317117  0.07061547 -0.06967381
  2   C            X -0.06504938 -0.00183607  0.00359834 -0.01444960 -0.00978293
                   Y  0.00504466 -0.01069580  0.03829604 -0.09486335 -0.08287043
                   Z -0.00756321  0.16513860 -0.07067469 -0.01070424 -0.03654178
  3   O            X  0.02841778  0.00063855 -0.03169821  0.09894086  0.05123005
                   Y  0.12157499  0.00686440 -0.03241720  0.03572616  0.04109788
                   Z  0.10159405 -0.06067551  0.06506807  0.01108079  0.03257205
  4   H            X -0.19254553 -0.00495190 -0.02191033 -0.15695276 -0.10436020
                   Y  0.02447993 -0.02324404  0.04160914 -0.05607950 -0.07098163
                   Z -0.01543890  0.50239496 -0.08026036 -0.33760018  0.08622759
  5   H            X  0.01340893  0.00482201 -0.20307662  0.05967609 -0.10725530
                   Y -0.24655241  0.12371485 -0.13716737  0.17279515  0.46943000
                   Z -0.19429023  0.03834015  0.38659001 -0.13204061  0.57533798
  6   H            X  0.01694533 -0.00812288  0.49973553 -0.25269588  0.05087073
                   Y -0.13383794 -0.26671274 -0.40692543 -0.38323906  0.28032915
                   Z -0.10354502 -0.27505339 -0.23193561 -0.29252188  0.17691893
  7   H            X  0.14631505  0.00697196 -0.19331679 -0.10836932  0.04458871
                   Y  0.00494221  0.09394527  0.08926961  0.05201962 -0.08703099
                   Z  0.02937787 -0.31909317 -0.22764200 -0.12718490 -0.09058550

 TRANS. SAYVETZ    X -0.01972462  0.00000632  0.00024095  0.00019520  0.00002700
                   Y  0.05367367 -0.00736582  0.00017292 -0.00079746  0.00020308
                   Z  0.03265230 -0.02030174  0.00016039 -0.00013566  0.00015127
               TOTAL  0.06584904  0.02159666  0.00033717  0.00083213  0.00025467

   ROT. SAYVETZ    X  0.40028060 -6.07433075 -0.00096327 -0.01254462 -0.00453019
                   Y  7.12491960  1.03094915  0.01349002  0.00657280  0.00094555
                   Z-10.75545210 -0.25901495  0.01276552  0.02854231  0.00011167
               TOTAL 12.90753476  6.16663919  0.01859750  0.03186272  0.00462916

                           11          12          13          14          15
       FREQUENCY:       970.05     1067.77     1169.33     1212.83     1304.55  
        SYMMETRY:         A           A           A           A           A   
    REDUCED MASS:      1.53038     1.68466     1.30565     1.27860     1.84569
    IR INTENSITY:      0.16937     0.01382     2.24290     0.55410     1.00920

  1   C            X -0.09756186  0.11079919  0.05866955 -0.04178324  0.04868053
                   Y  0.07305248 -0.00070665  0.07614378 -0.07162460  0.03669562
                   Z  0.02617439  0.07054193 -0.05231464  0.00312207  0.01130348
  2   C            X  0.01332970 -0.02290283 -0.00960967  0.06865265 -0.02418929
                   Y -0.05283687 -0.01438658 -0.05592269  0.05487448 -0.13151640
                   Z -0.08464878 -0.11608988  0.05560079 -0.04782234  0.01056093
  3   O            X  0.05866127 -0.05785191 -0.01238429 -0.02179961 -0.08285423
                   Y  0.01963838 -0.00018308  0.01568879  0.03547407  0.08589107
                   Z  0.01120164  0.01962982 -0.03751429  0.00197625  0.00560542
  4   H            X  0.05992568 -0.32551427 -0.32236566  0.49078979  0.53556247
                   Y -0.08813249  0.00536620 -0.01512988 -0.00874853 -0.22386848
                   Z  0.59206381  0.42627973 -0.05800310  0.13286476 -0.11732197
  5   H            X -0.20032418  0.33547310 -0.05404222 -0.06281881  0.15665340
                   Y -0.36329453  0.33131607 -0.04081001  0.12853700  0.08412619
                   Z -0.18488356 -0.09104778  0.09990161  0.23423937 -0.14416000
  6   H            X  0.16087062 -0.13907396  0.14276363 -0.34991975  0.28266452
                   Y  0.03746176 -0.11334057 -0.08253909 -0.32312973  0.00284030
                   Z  0.04333383 -0.07245985 -0.14103215 -0.22064896  0.01552298
  7   H            X  0.05151409  0.00055278 -0.15397343 -0.05209016  0.04846163
                   Y -0.13844349 -0.04033777 -0.35131945 -0.16043377 -0.09702930
                   Z  0.06804305 -0.03202710  0.65537156  0.35430825 -0.10330208

 TRANS. SAYVETZ    X  0.00004539 -0.00014803 -0.00001782 -0.00008568 -0.00000128
                   Y -0.00003002  0.00038879 -0.00003729 -0.00021847  0.00020871
                   Z  0.00009139 -0.00004758 -0.00001332 -0.00011140  0.00003703
               TOTAL  0.00010637  0.00041873  0.00004342  0.00025978  0.00021197

   ROT. SAYVETZ    X  0.00579509 -0.00067381  0.00572859  0.00341671  0.00093740
                   Y -0.00175827  0.00002189 -0.00319335 -0.00243178  0.00179543
                   Z -0.00418533 -0.00199700 -0.00260683  0.00001979  0.00359828
               TOTAL  0.00736149  0.00210773  0.00705761  0.00419379  0.00412916

                           16          17          18          19          20
       FREQUENCY:      1498.78     1571.21     1850.05     3106.37     3141.76  
        SYMMETRY:         A           A           A           A           A   
    REDUCED MASS:      1.28959     3.56952     1.11383     1.06001     1.09455
    IR INTENSITY:      0.10319     5.39033     0.27754     0.02104     0.72235

  1   C            X -0.10053330 -0.07248360 -0.00022776  0.04170284  0.00257997
                   Y -0.06213112 -0.01996152 -0.00863659  0.02935481  0.01527283
                   Z  0.00035438  0.00567726 -0.01622852 -0.04164593 -0.01592949
  2   C            X -0.00845292  0.20834470  0.04171908 -0.00049159 -0.01504504
                   Y  0.05886744 -0.03024086 -0.07355567  0.01189901 -0.08045894
                   Z  0.00748760  0.01215408 -0.01553443 -0.00102479 -0.00340589
  3   O            X  0.03439529 -0.09603426 -0.02176331 -0.00025405 -0.00136801
                   Y -0.02153984  0.04305235  0.01296290  0.00013298  0.00029186
                   Z -0.00723487  0.00486705 -0.00625472  0.00029397 -0.00031057
  4   H            X  0.02715167 -0.34175629 -0.02861398 -0.02303452  0.14124003
                   Y  0.06614742  0.06822317 -0.07781087 -0.16786302  0.91454285
                   Z  0.02941674 -0.09625952  0.07944288 -0.00580282  0.03797454
  5   H            X  0.25968879 -0.03258559 -0.01897119 -0.34968548  0.05209398
                   Y  0.43070111  0.00140398 -0.02967224  0.16703331 -0.02870821
                   Z -0.30183115 -0.08421779  0.03832118 -0.17071173  0.02109898
  6   H            X  0.56959526  0.07409173  0.00652469 -0.11603663 -0.03077736
                   Y -0.12578806 -0.04235010  0.02033208 -0.49599592 -0.12073958
                   Z  0.07040993  0.02135330  0.01067425  0.68652071  0.17027028
  7   H            X -0.10450710  0.20639898 -0.10764191  0.00207218  0.00759085
                   Y  0.00914996 -0.11241838  0.85998966  0.00363264  0.00634338
                   Z  0.22345690 -0.13055244  0.34893561 -0.00661521  0.00580765

 TRANS. SAYVETZ    X  0.00012741 -0.00031167 -0.00007235 -0.00002139  0.00001695
                   Y -0.00050639  0.00038236 -0.00008058  0.00012060 -0.00009011
                   Z  0.00000295 -0.00011912 -0.00008965 -0.00001669 -0.00000056
               TOTAL  0.00052218  0.00050747  0.00014059  0.00012361  0.00009169

   ROT. SAYVETZ    X  0.00304622  0.00102743 -0.00100078 -0.00071197 -0.00032991
                   Y -0.00249008  0.00215218 -0.00188552  0.00003401 -0.00011155
                   Z -0.00041832 -0.00719676  0.00427141 -0.00010932  0.00064157
               TOTAL  0.00395663  0.00758161  0.00477512  0.00072112  0.00073000

                           21
       FREQUENCY:      3192.71  
        SYMMETRY:         A   
    REDUCED MASS:      1.10568
    IR INTENSITY:      0.21451

  1   C            X -0.05800358
                   Y  0.04318204
                   Z -0.05081947
  2   C            X  0.00384299
                   Y  0.01493225
                   Z  0.00029069
  3   O            X  0.00106340
                   Y  0.00015083
                   Z  0.00006426
  4   H            X -0.02522278
                   Y -0.14264371
                   Z -0.00609448
  5   H            X  0.72756589
                   Y -0.32794428
                   Z  0.30758053
  6   H            X -0.06955178
                   Y -0.21259964
                   Z  0.30596697
  7   H            X -0.00476962
                   Y -0.01121991
                   Z -0.00681187

 TRANS. SAYVETZ    X  0.00001784
                   Y -0.00005726
                   Z  0.00002367
               TOTAL  0.00006448

   ROT. SAYVETZ    X -0.00030248
                   Y -0.00003472
                   Z -0.00007469
               TOTAL  0.00031350

 REFERENCE ON SAYVETZ CONDITIONS - A. SAYVETZ, J.CHEM.PHYS., 7, 383-389(1939).

 NOTE - THE MODES J,K ARE ORTHONORMALIZED ACCORDING TO
 SUM ON I   M(I) * (X(I,J)*X(I,K) + Y(I,J)*Y(I,K) + Z(I,J)*Z(I,K)) = DELTA(J,K)

  MODE FREQ(CM**-1)  SYMMETRY  RED. MASS  IR INTENS.
     1    2195.339    A        1.101470    8.956085
     2       4.447    A        3.906557    0.032131
     3       0.076    A        6.291752    0.000002
     4       0.119    A        6.316651    0.000023
     5       0.222    A        6.386776    0.000048
     6       8.544    A        4.052250    0.051056
     7      25.271    A        1.769536    0.107749
     8     596.469    A        1.250317    1.097482
     9     654.825    A        1.800163    3.006785
    10     798.394    A        1.355276    0.759588
    11     970.049    A        1.530385    0.169368
    12    1067.770    A        1.684665    0.013824
    13    1169.326    A        1.305648    2.242897
    14    1212.827    A        1.278602    0.554099
    15    1304.547    A        1.845693    1.009199
    16    1498.776    A        1.289592    0.103194
    17    1571.207    A        3.569521    5.390326
    18    1850.046    A        1.113835    0.277536
    19    3106.371    A        1.060005    0.021044
    20    3141.759    A        1.094549    0.722353
    21    3192.707    A        1.105677    0.214506

     -------------------------------
     THERMOCHEMISTRY AT T=  298.15 K
     -------------------------------

 USING IDEAL GAS, RIGID ROTOR, HARMONIC NORMAL MODE APPROXIMATIONS.
 P=  1.01325E+05 PASCAL.
 ALL FREQUENCIES ARE SCALED BY   1.00000
 THE MOMENTS OF INERTIA ARE (IN AMU*BOHR**2)
     37.17972   147.72351   177.43821
 THE ROTATIONAL SYMMETRY NUMBER IS  1.0
 THE ROTATIONAL CONSTANTS ARE (IN GHZ)
     48.49655    12.20583    10.16178
   1 IMAGINARY FREQUENCY VIBRATION(S) IS(ARE) EXCLUDED
     FROM THE FOLLOWING THERMOCHEMICAL ANALYSIS.
      8 -     21 VIBRATIONAL MODES ARE USED IN THERMOCHEMISTRY.
 THE HARMONIC ZERO POINT ENERGY IS (SCALED BY   1.000)
        0.050427 HARTREE/MOLECULE    11067.536706 CM**-1/MOLECULE 
       31.643707 KCAL/MOL              132.397271 KJ/MOL

               Q               LN Q
 ELEC.     1.00000E+00       0.000000
 TRANS.    1.14821E+07      16.256298
 ROT.      1.11749E+04       9.321424
 VIB.      1.15884E+00       0.147417
 TOT.      1.48691E+11      25.725139

              E         H         G         CV        CP        S
           KJ/MOL    KJ/MOL    KJ/MOL   J/MOL-K   J/MOL-K   J/MOL-K
 ELEC.      0.000     0.000     0.000     0.000     0.000     0.000
 TRANS.     3.718     6.197   -40.298    12.472    20.786   155.948
 ROT.       3.718     3.718   -23.107    12.472    12.472    89.974
 VIB.     133.705   133.705   132.032    16.961    16.961     5.613
 TOTAL    141.142   143.621    68.626    41.904    50.218   251.534
 VIB. THERMAL CORRECTION E(T)-E(0) = H(T)-H(0) =  1307.953 J/MOL

              E         H         G         CV        CP        S
         KCAL/MOL  KCAL/MOL  KCAL/MOL CAL/MOL-K CAL/MOL-K CAL/MOL-K
 ELEC.      0.000     0.000     0.000     0.000     0.000     0.000
 TRANS.     0.889     1.481    -9.632     2.981     4.968    37.272
 ROT.       0.889     0.889    -5.523     2.981     2.981    21.504
 VIB.      31.956    31.956    31.556     4.054     4.054     1.341
 TOTAL     33.734    34.326    16.402    10.015    12.003    60.118
 VIB. THERMAL CORRECTION E(T)-E(0) = H(T)-H(0) =   312.608 CAL/MOL
 ......END OF NORMAL COORDINATE ANALYSIS......
 STEP CPU TIME =     0.00 TOTAL CPU TIME =        235.9 (      3.9 MIN)
 TOTAL WALL CLOCK TIME=        238.3 SECONDS, CPU UTILIZATION IS    98.97%
                994878  WORDS OF DYNAMIC MEMORY USED
 EXECUTION OF GAMESS TERMINATED NORMALLY Thu Oct 17 15:39:41 2019
 DDI: 263640 bytes (0.3 MB / 0 MWords) used by master data server.

 ----------------------------------------
 CPU timing information for all processes
 ========================================
 0: 234.695 + 1.191 = 235.886
 ----------------------------------------
 ddikick.x: exited gracefully.
----- accounting info -----
Files used on the master node crcfe02.crc.nd.edu were:
-rw-r--r-- 1 cdrisko campus     476 Oct 17 15:35 /afs/crc.nd.edu/user/c/cdrisko/TS_vib.F05
-rw-r--r-- 1 cdrisko campus   66747 Oct 17 15:39 /afs/crc.nd.edu/user/c/cdrisko/TS_vib.F07
-rw-r--r-- 1 cdrisko campus 1799600 Oct 17 15:39 /afs/crc.nd.edu/user/c/cdrisko/TS_vib.F10
-rw-r--r-- 1 cdrisko campus 2039576 Oct 17 15:39 /afs/crc.nd.edu/user/c/cdrisko/TS_vib.F22
Thu Oct 17 15:39:45 EDT 2019
0.445u 0.250s 4:01.99 0.2%	0+0k 0+152io 0pf+0w
