----- GAMESS execution script 'rungms' -----
This job is running on host crcfe02.crc.nd.edu
under operating system Linux at Sun Sep 29 10:44:43 EDT 2019
Available scratch disk space (Kbyte units) at beginning of the job is
Filesystem      1K-blocks  Used  Available Use% Mounted on
AFS            2147483647     0 2147483647   0% /afs
GAMESS temporary binary files will be written to /afs/crc.nd.edu/user/c/cdrisko
GAMESS supplementary output files will be written to /afs/crc.nd.edu/user/c/cdrisko/scr
Copying input file SO2.inp to your run's scratch directory...

 Distributed Data Interface kickoff program.
 Initiating 1 compute processes on 1 nodes to run the following command:
 /afs/crc.nd.edu/x86_64_linux/g/gamess/nov-2017/gamess/gamess.00.x SO2 

          ******************************************************
          *         GAMESS VERSION = 11 NOV 2017 (R3)         *
          *             FROM IOWA STATE UNIVERSITY             *
          * M.W.SCHMIDT, K.K.BALDRIDGE, J.A.BOATZ, S.T.ELBERT, *
          *   M.S.GORDON, J.H.JENSEN, S.KOSEKI, N.MATSUNAGA,   *
          *          K.A.NGUYEN, S.J.SU, T.L.WINDUS,           *
          *       TOGETHER WITH M.DUPUIS, J.A.MONTGOMERY       *
          *         J.COMPUT.CHEM.  14, 1347-1363(1993)        *
          **************** 64 BIT INTEL VERSION ****************

  SINCE 1993, STUDENTS AND POSTDOCS WORKING AT IOWA STATE UNIVERSITY
  AND ALSO IN THEIR VARIOUS JOBS AFTER LEAVING ISU HAVE MADE IMPORTANT
  CONTRIBUTIONS TO THE CODE:
     IVANA ADAMOVIC, CHRISTINE AIKENS, YURI ALEXEEV, POOJA ARORA,
     ANDREY ASADCHEV, ROB BELL, PRADIPTA BANDYOPADHYAY, JONATHAN BENTZ,
     BRETT BODE, KURT BRORSEN, CALEB CARLIN, GALINA CHABAN, WEI CHEN,
     CHEOL HO CHOI, PAUL DAY, ALBERT DEFUSCO, NUWAN DESILVA, TIM DUDLEY,
     DMITRI FEDOROV, ALEX FINDLATER, GRAHAM FLETCHER, MARK FREITAG,
     KURT GLAESEMANN, ANASTASIA GUININA,
     DAN KEMP, GRANT MERRILL, NORIYUKI MINEZAWA, JONATHAN MULLIN,
     TAKESHI NAGATA, SEAN NEDD, HEATHER NETZLOFF, BOSILJKA NJEGIC, RYAN OLSON,
     MIKE PAK, BUU PHAM,
     SPENCER PRUITT, LUKE ROSKOP, JIM SHOEMAKER, LYUDMILA SLIPCHENKO,
     TONY SMITH, SAROM SOK LEANG, JIE SONG, TETSUYA TAKETSUGU, SIMON WEBB,
     PENG XU, SOOHAENG YOO, FEDERICO ZAHARIEV

  ADDITIONAL CODE HAS BEEN PROVIDED BY COLLABORATORS IN OTHER GROUPS:
     IOWA STATE UNIVERSITY:
          JOE IVANIC, AARON WEST, LAIMUTIS BYTAUTAS, KLAUS RUEDENBERG
     UNIVERSITY OF TOKYO: KIMIHIKO HIRAO, TAKAHITO NAKAJIMA,
          TAKAO TSUNEDA, MUNEAKI KAMIYA, SUSUMU YANAGISAWA,
          KIYOSHI YAGI, MAHITO CHIBA, SEIKEN TOKURA, NAOAKI KAWAKAMI
     UNIVERSITY OF AARHUS: FRANK JENSEN
     UNIVERSITY OF IOWA: VISVALDAS KAIRYS, HUI LI
     NATIONAL INST. OF STANDARDS AND TECHNOLOGY: WALT STEVENS, DAVID GARMER
     UNIVERSITY OF PISA: BENEDETTA MENNUCCI, JACOPO TOMASI
     UNIVERSITY OF MEMPHIS: HENRY KURTZ, PRAKASHAN KORAMBATH
     UNIVERSITY OF ALBERTA: TOBY ZENG, MARIUSZ KLOBUKOWSKI
     UNIVERSITY OF NEW ENGLAND: MARK SPACKMAN
     MIE UNIVERSITY: HIROAKI UMEDA
     NAT. INST. OF ADVANCED INDUSTRIAL SCIENCE AND TECHNOLOGY: KAZUO KITAURA
     MICHIGAN STATE UNIVERSITY:
          KAROL KOWALSKI, MARTA WLOCH, JEFFREY GOUR, JESSE LUTZ,
          WEI LI, PIOTR PIECUCH
     UNIVERSITY OF SILESIA: MONIKA MUSIAL, STANISLAW KUCHARSKI
     FACULTES UNIVERSITAIRES NOTRE-DAME DE LA PAIX:
          OLIVIER QUINET, BENOIT CHAMPAGNE
     UNIVERSITY OF CALIFORNIA - SANTA BARBARA: BERNARD KIRTMAN
     INSTITUTE FOR MOLECULAR SCIENCE:
          KAZUYA ISHIMURA, MICHIO KATOUDA, AND SHIGERU NAGASE
     UNIVERSITY OF NOTRE DAME: ANNA POMOGAEVA, DAN CHIPMAN
     KYUSHU UNIVERSITY:
          HARUYUKI NAKANO,
          FENG LONG GU, JACEK KORCHOWIEC, MARCIN MAKOWSKI, AND YURIKO AOKI,
          HIROTOSHI MORI AND EISAKU MIYOSHI
     PENNSYLVANIA STATE UNIVERSITY:
          TZVETELIN IORDANOV, CHET SWALINA, JONATHAN SKONE,
          SHARON HAMMES-SCHIFFER
     WASEDA UNIVERSITY:
          MASATO KOBAYASHI, TOMOKO AKAMA, TSUGUKI TOUMA,
          TAKESHI YOSHIKAWA, YASUHIRO IKABATA, JUNJI SEINO,
          YUYA NAKAJIMA, HIROMI NAKAI
     NANJING UNIVERSITY: SHUHUA LI
     UNIVERSITY OF NEBRASKA:
          PEIFENG SU, DEJUN SI, NANDUN THELLAMUREGE, YALI WANG, HUI LI
     UNIVERSITY OF ZURICH: ROBERTO PEVERATI, KIM BALDRIDGE
     N. COPERNICUS UNIVERSITY AND JACKSON STATE UNIVERSITY:
          MARIA BARYSZ
     UNIVERSITY OF COPENHAGEN: Jimmy Kromann, CASPER STEINMANN
     TOKYO INSTITUTE OF TECHNOLOGY: HIROYA NAKATA
     NAGOYA UNIVERSITY: YOSHIO NISHIMOTO, STEPHAN IRLE
     MOSCOW STATE UNIVERSITY: VLADIMIR MIRONOV

 EXECUTION OF GAMESS BEGUN Sun Sep 29 10:44:43 2019

            ECHO OF THE FIRST FEW INPUT CARDS -
 INPUT CARD> $BASIS GBASIS=PCSEG-1 $END                                                     
 INPUT CARD> $CONTRL COORD=ZMT ISPHER=1 RUNTYP=ENERGY DFTTYP=PBE MULT=1 $END                
 INPUT CARD>                                                                                
 INPUT CARD> $DATA                                                                          
 INPUT CARD>Title SO2 single-point calculation template with Z-Matrix                       
 INPUT CARD>C1                                                                              
 INPUT CARD>S                                                                               
 INPUT CARD>O 1 1.35                                                                        
 INPUT CARD>O 1 1.35 2 130                                                                  
 INPUT CARD> $END                                                                           
    1000000 WORDS OF MEMORY AVAILABLE

     BASIS OPTIONS
     -------------
     GBASIS=PCSEG-1      IGAUSS=       0      POLAR=NONE    
     NDFUNC=       0     NFFUNC=       0     DIFFSP=       F
     NPFUNC=       0      DIFFS=       F     BASNAM=        


     RUN TITLE
     ---------
 Title SO2 single-point calculation template with Z-Matrix                       

 THE POINT GROUP OF THE MOLECULE IS C1      
 THE ORDER OF THE PRINCIPAL AXIS IS     0

 YOUR FULLY SUBSTITUTED Z-MATRIX IS
 S   
 O      1   1.3500000
 O      1   1.3500000  2  130.0000

 THE MOMENTS OF INERTIA ARE (AMU-ANGSTROM**2)
 IXX=     5.205   IYY=    47.888   IZZ=    53.094

 ATOM      ATOMIC                      COORDINATES (BOHR)
           CHARGE         X                   Y                   Z
 S          16.0     0.0000000000       -0.5392266794        0.0000000000
 O           8.0     2.3121090604        0.5389274819        0.0000000000
 O           8.0    -2.3121090604        0.5389274819        0.0000000000

          INTERNUCLEAR DISTANCES (ANGS.)
          ------------------------------

                1 S          2 O          3 O     

   1 S       0.0000000    1.3500000 *  1.3500000 *
   2 O       1.3500000 *  0.0000000    2.4470310 *
   3 O       1.3500000 *  2.4470310 *  0.0000000  

  * ... LESS THAN  3.000


     ATOMIC BASIS SET
     ----------------
 THE CONTRACTED PRIMITIVE FUNCTIONS HAVE BEEN UNNORMALIZED
 THE CONTRACTED BASIS FUNCTIONS ARE NOW NORMALIZED TO UNITY

  SHELL TYPE  PRIMITIVE        EXPONENT          CONTRACTION COEFFICIENT(S)

 S         

      1   S       1         49299.4000000    0.000677492991
      1   S       2          7395.8400000    0.005232317766
      1   S       3          1683.3000000    0.026769459077
      1   S       4           476.1440000    0.102869580705
      1   S       5           154.3290000    0.286438127414
      1   S       6            55.0288000    0.454278639081
      1   S       7            20.5029000    0.271743121997

      2   S       8            45.9596000   -0.088421914560
      2   S       9             4.9274000    0.564350486135
      2   S      10             1.9179900    0.505415953466

      3   S      11             0.3684980    1.000000000000

      4   S      12             0.1291650    1.000000000000

      5   P      13           451.6620000    0.003707705453
      5   P      14           106.0980000    0.029219352245
      5   P      15            33.6996000    0.124444551509
      5   P      16            12.3054000    0.321808587656
      5   P      17             4.7141200    0.462822172957
      5   P      18             1.7810500    0.266513371364

      6   P      19             0.8722350    0.349265132972
      6   P      20             0.3102780    0.717115018770

      7   P      21             0.1001940    1.000000000000

      8   D      22             0.5500000    1.000000000000

 O         

      9   S      23          2288.6400000    0.005451138222
      9   S      24           344.4160000    0.040718922842
      9   S      25            78.2538000    0.181369420873
      9   S      26            21.7195000    0.465536820246
      9   S      27             6.5590700    0.451211321214

     10   S      28            10.4656000   -0.150211201174
     10   S      29             0.9643510    1.052867983385

     11   S      30             0.2851270    1.000000000000

     12   P      31            17.0590000    0.068749256972
     12   P      32             3.6899900    0.351671941499
     12   P      33             0.9929960    0.724532099722

     13   P      34             0.2449240    1.000000000000

     14   D      35             1.0000000    1.000000000000

 O         

     15   S      36          2288.6400000    0.005451138222
     15   S      37           344.4160000    0.040718922842
     15   S      38            78.2538000    0.181369420873
     15   S      39            21.7195000    0.465536820246
     15   S      40             6.5590700    0.451211321214

     16   S      41            10.4656000   -0.150211201174
     16   S      42             0.9643510    1.052867983385

     17   S      43             0.2851270    1.000000000000

     18   P      44            17.0590000    0.068749256972
     18   P      45             3.6899900    0.351671941499
     18   P      46             0.9929960    0.724532099722

     19   P      47             0.2449240    1.000000000000

     20   D      48             1.0000000    1.000000000000

 TOTAL NUMBER OF BASIS SET SHELLS             =   20
 NUMBER OF CARTESIAN GAUSSIAN BASIS FUNCTIONS =   49
 NOTE: THIS RUN WILL RESTRICT THE MO VARIATION SPACE TO SPHERICAL HARMONICS.
 THE NUMBER OF ORBITALS KEPT IN THE VARIATIONAL SPACE WILL BE PRINTED LATER.
 NUMBER OF ELECTRONS                          =   32
 CHARGE OF MOLECULE                           =    0
 SPIN MULTIPLICITY                            =    1
 NUMBER OF OCCUPIED ORBITALS (ALPHA)          =   16
 NUMBER OF OCCUPIED ORBITALS (BETA )          =   16
 TOTAL NUMBER OF ATOMS                        =    3
 THE NUCLEAR REPULSION ENERGY IS      114.1878633706

     LEBEDEV GRID-BASED DFT OPTIONS
     ------------------------------
     DFTTYP=PBE     
     NRAD  =      96     NLEB  =     302
     NRAD0 =      24     NLEB0 =     110
     SWOFF =    5.00E-03 (PURE SCF -> DFT)
     SWITCH=    3.00E-04 (COARSE -> TIGHT GRID)
     THRESH=    0.00E+00 GTHRE=    1.00E+00

 GRIMME'S EMPIRICAL DISPERSION CORRECTION= F

     $CONTRL OPTIONS
     ---------------
 SCFTYP=RHF          RUNTYP=ENERGY       EXETYP=RUN     
 MPLEVL=       0     CITYP =NONE         CCTYP =NONE         VBTYP =NONE    
 DFTTYP=PBE          TDDFT =NONE    
 MULT  =       1     ICHARG=       0     NZVAR =       0     COORD =ZMT     
 PP    =NONE         RELWFN=NONE         LOCAL =NONE         NUMGRD=       F
 ISPHER=       1     NOSYM =       0     MAXIT =      30     UNITS =ANGS    
 PLTORB=       F     MOLPLT=       F     AIMPAC=       F     FRIEND=        
 NPRINT=       7     IREST =       0     GEOM  =INPUT   
 NORMF =       0     NORMP =       0     ITOL  =      20     ICUT  =       9
 INTTYP=BEST         GRDTYP=BEST         QMTTOL= 1.0E-06

     $SYSTEM OPTIONS
     ---------------
  REPLICATED MEMORY=     1000000 WORDS (ON EVERY NODE).
 DISTRIBUTED MEMDDI=           0 MILLION WORDS IN AGGREGATE,
 MEMDDI DISTRIBUTED OVER   1 PROCESSORS IS           0 WORDS/PROCESSOR.
 TOTAL MEMORY REQUESTED ON EACH PROCESSOR=     1000000 WORDS.
 TIMLIM=      525600.00 MINUTES, OR     365.0 DAYS.
 PARALL= F  BALTYP=  DLB     KDIAG=    0  COREFL= F
 MXSEQ2=     300 MXSEQ3=     150  mem10=         0

          ----------------
          PROPERTIES INPUT
          ----------------

     MOMENTS            FIELD           POTENTIAL          DENSITY
 IEMOM =       1   IEFLD =       0   IEPOT =       0   IEDEN =       0
 WHERE =COMASS     WHERE =NUCLEI     WHERE =NUCLEI     WHERE =NUCLEI  
 OUTPUT=BOTH       OUTPUT=BOTH       OUTPUT=BOTH       OUTPUT=BOTH    
 IEMINT=       0   IEFINT=       0                     IEDINT=       0
                                                       MORB  =       0
          EXTRAPOLATION IN EFFECT
          DIIS IN EFFECT
 ORBITAL PRINTING OPTION: NPREO=     1    49     2     1

     -------------------------------
     INTEGRAL TRANSFORMATION OPTIONS
     -------------------------------
     NWORD  =            0
     CUTOFF = 1.0E-09     MPTRAN =       0
     DIRTRF =       F     AOINTS =DUP     

          ----------------------
          INTEGRAL INPUT OPTIONS
          ----------------------
 NOPK  =       1 NORDER=       0 SCHWRZ=       F

   --- ENCODED Z MATRIX ---
 COORD  TYPE   I   J   K   L   M   N
    1      1    2   1
    2      1    3   1
    3      2    3   1   2

 THE DETERMINANT OF THE G MATRIX IS 10**(    -4)

 THE DETERMINANT OF THE G MATRIX IS 10**(    -4)
 * * * WARNING * * *
 YOUR B MATRIX HAS A SMALL DETERMINANT.
 THIS SUGGESTS YOU MAY HAVE BADLY CHOSEN COORDINATES.

     ------------------------------------------
     THE POINT GROUP IS C1 , NAXIS= 0, ORDER= 1
     ------------------------------------------

 -- VARIATIONAL SPACE WILL BE RESTRICTED TO PURE SPHERICAL HARMONICS ONLY --
 AFTER EXCLUDING CONTAMINANT COMBINATIONS FROM THE CARTESIAN GAUSSIAN BASIS
 SET, THE NUMBER OF SPHERICAL HARMONICS KEPT IN THE VARIATION SPACE IS   46

     DIMENSIONS OF THE SYMMETRY SUBSPACES ARE
 A   =   46

 ..... DONE SETTING UP THE RUN .....
 STEP CPU TIME =     0.03 TOTAL CPU TIME =          0.0 (      0.0 MIN)
 TOTAL WALL CLOCK TIME=          0.0 SECONDS, CPU UTILIZATION IS    75.00%

          ********************
          1 ELECTRON INTEGRALS
          ********************
 ...... END OF ONE-ELECTRON INTEGRALS ......
 STEP CPU TIME =     0.00 TOTAL CPU TIME =          0.0 (      0.0 MIN)
 TOTAL WALL CLOCK TIME=          0.0 SECONDS, CPU UTILIZATION IS    75.00%

          -------------
          GUESS OPTIONS
          -------------
          GUESS =HUCKEL            NORB  =       0          NORDER=       0
          MIX   =       F          PRTMO =       F          PUNMO =       F
          TOLZ  = 1.0E-08          TOLE  = 1.0E-05
          SYMDEN=       F          PURIFY=       F

 INITIAL GUESS ORBITALS GENERATED BY HUCKEL   ROUTINE.
 HUCKEL GUESS REQUIRES     21634 WORDS.

 STATISTICS FOR GENERATION OF SYMMETRY ORBITAL -Q- MATRIX
 NUMBER OF CARTESIAN ATOMIC ORBITALS=         49
 NUMBER OF SPHERICAL CONTAMINANTS DROPPED=     3
 NUMBER OF LINEARLY DEPENDENT MOS DROPPED=     0
 TOTAL NUMBER OF MOS IN VARIATION SPACE=      46

 SYMMETRIES FOR INITIAL GUESS ORBITALS FOLLOW.   BOTH SET(S).
    16 ORBITALS ARE OCCUPIED (    7 CORE ORBITALS).
     8=A        9=A       10=A       11=A       12=A       13=A       14=A   
    15=A       16=A       17=A       18=A       19=A       20=A       21=A   
    22=A       23=A       24=A       25=A       26=A   
 ...... END OF INITIAL ORBITAL SELECTION ......
 STEP CPU TIME =     0.01 TOTAL CPU TIME =          0.0 (      0.0 MIN)
 TOTAL WALL CLOCK TIME=          0.0 SECONDS, CPU UTILIZATION IS    80.00%

                    ----------------------
                    AO INTEGRAL TECHNOLOGY
                    ----------------------
     S,P,L SHELL ROTATED AXIS INTEGRALS, REPROGRAMMED BY
        KAZUYA ISHIMURA (IMS) AND JOSE SIERRA (SYNSTAR).
     S,P,D,L SHELL ROTATED AXIS INTEGRALS PROGRAMMED BY
        KAZUYA ISHIMURA (INSTITUTE FOR MOLECULAR SCIENCE).
     S,P,D,F,G SHELL TO TOTAL QUARTET ANGULAR MOMENTUM SUM 5,
        ERIC PROGRAM BY GRAHAM FLETCHER (ELORET AND NASA ADVANCED
        SUPERCOMPUTING DIVISION, AMES RESEARCH CENTER).
     S,P,D,F,G,L SHELL GENERAL RYS QUADRATURE PROGRAMMED BY
        MICHEL DUPUIS (PACIFIC NORTHWEST NATIONAL LABORATORY).

          --------------------
          2 ELECTRON INTEGRALS
          --------------------

 THE -PK- OPTION IS OFF, THE INTEGRALS ARE NOT IN SUPERMATRIX FORM.
 STORING   15000 INTEGRALS/RECORD ON DISK, USING 12 BYTES/INTEGRAL.
 TWO ELECTRON INTEGRAL EVALUATION REQUIRES   90606 WORDS OF MEMORY.
 II,JST,KST,LST =  1  1  1  1 NREC =         1 INTLOC =    1
 II,JST,KST,LST =  2  1  1  1 NREC =         1 INTLOC =    2
 II,JST,KST,LST =  3  1  1  1 NREC =         1 INTLOC =    7
 II,JST,KST,LST =  4  1  1  1 NREC =         1 INTLOC =   22
 II,JST,KST,LST =  5  1  1  1 NREC =         1 INTLOC =   56
 II,JST,KST,LST =  6  1  1  1 NREC =         1 INTLOC =  125
 II,JST,KST,LST =  7  1  1  1 NREC =         1 INTLOC =  329
 II,JST,KST,LST =  8  1  1  1 NREC =         1 INTLOC =  776
 II,JST,KST,LST =  9  1  1  1 NREC =         1 INTLOC = 2864
 II,JST,KST,LST = 10  1  1  1 NREC =         1 INTLOC = 5001
 II,JST,KST,LST = 11  1  1  1 NREC =         1 INTLOC = 7671
 II,JST,KST,LST = 12  1  1  1 NREC =         1 INTLOC =10789
 II,JST,KST,LST = 13  1  1  1 NREC =         2 INTLOC = 6727
 II,JST,KST,LST = 14  1  1  1 NREC =         3 INTLOC = 7002
 II,JST,KST,LST = 15  1  1  1 NREC =         6 INTLOC = 9055
 II,JST,KST,LST = 16  1  1  1 NREC =         7 INTLOC = 2041
 II,JST,KST,LST = 17  1  1  1 NREC =         7 INTLOC =14002
 II,JST,KST,LST = 18  1  1  1 NREC =         8 INTLOC =12495
 II,JST,KST,LST = 19  1  1  1 NREC =        11 INTLOC = 8868
 II,JST,KST,LST = 20  1  1  1 NREC =        15 INTLOC = 1321
 TOTAL NUMBER OF NONZERO TWO-ELECTRON INTEGRALS =              346274
         24 INTEGRAL RECORDS WERE STORED ON DISK FILE  8.
  ...... END OF TWO-ELECTRON INTEGRALS .....
 STEP CPU TIME =     0.10 TOTAL CPU TIME =          0.1 (      0.0 MIN)
 TOTAL WALL CLOCK TIME=          0.2 SECONDS, CPU UTILIZATION IS    93.33%

          --------------------------
               R-PBE SCF CALCULATION
          --------------------------

     NUCLEAR ENERGY =       114.1878633706
     MAXIT =   30     NPUNCH=    2
     EXTRAP=T  DAMP=F  SHIFT=F  RSTRCT=F  DIIS=T  DEM=F  SOSCF=F
         DENSITY MATRIX CONVERGENCE THRESHOLD=  1.00E-05
     COARSE -> FINE DFT GRID SWITCH THRESHOLD=  3.00E-04 (SWITCH IN $DFT)
                   HF -> DFT SWITCH THRESHOLD=  5.00E-03 (SWOFF IN $DFT)
     MEMORY REQUIRED FOR RHF ITERS=    183108 WORDS.

 DFT CODE IS SWITCHING FROM THE FINE GRID NRAD= 96,  NLEB=  302
                      TO THE COARSE GRID NRAD0= 24, NLEB0=  110

     EXCHANGE FUNCTIONAL   =PBE       
     CORRELATION FUNCTIONAL=PBE       
     DFT THRESHOLD         =.460E-07
     GRID CHANGE THRESHOLD =.300E-03
 FOR AN EULER-MACLAURIN QUADRATURE USING  96 RADIAL POINTS:
 SMALLEST GAUSSIAN PRIMITIVE EXPONENT=        0.1001940000 OF TYPE -P-
 ON ATOM NUMBER   1 HAS RADIAL NORMALIZATION=  1.000000
  LARGEST GAUSSIAN PRIMITIVE EXPONENT=    49299.4000000000 OF TYPE -S-
 ON ATOM NUMBER   1 HAS RADIAL NORMALIZATION=  1.000000
 DFT IS SWITCHED OFF, PERFORMING PURE SCF UNTIL SWOFF THRESHOLD IS REACHED.

 ITER EX DEM     TOTAL ENERGY        E CHANGE  DENSITY CHANGE    DIIS ERROR
   1  0  0     -545.9890462880  -545.9890462880   0.609854729   1.015277188
          * * *   INITIATING DIIS PROCEDURE   * * *
   2  1  0     -546.9211700593    -0.9321237713   0.413804318   0.213474271
   3  2  0     -547.0192267439    -0.0980566846   0.132025092   0.141783655
   4  3  0     -547.0801176267    -0.0608908828   0.044777761   0.014154581
   5  4  0     -547.0819547317    -0.0018371050   0.026262506   0.005052239
   6  5  0     -547.0822603796    -0.0003056479   0.006958364   0.001723180
   7  6  0     -547.0822969333    -0.0000365536   0.000481203   0.000241133
 CONVERGED TO SWOFF, SO DFT CALCULATION IS NOW SWITCHED ON.
          * * *   INITIATING DIIS PROCEDURE   * * *
   8  7  0     -548.1694032524    -1.0871063191   0.240043454   0.091548458
   9  8  0     -548.1862457297    -0.0168424774   0.187065735   0.060242264
  10  9  0     -548.1828855348     0.0033601949   0.079057326   0.060888541
  11 10  0     -548.1970078624    -0.0141223276   0.017433851   0.009264888
  12 11  0     -548.1972709175    -0.0002630551   0.000786291   0.000599454
  13 12  0     -548.1972717085    -0.0000007910   0.000196288   0.000051746
 DFT CODE IS SWITCHING BACK TO THE FINE GRID
          * * *   INITIATING DIIS PROCEDURE   * * *
  14 13  0     -548.1917745301     0.0054971784   0.011825028   0.008076200
  15 14  0     -548.1919261792    -0.0001516491   0.002777742   0.000618970
  16 15  0     -548.1919242425     0.0000019366   0.001228046   0.001102054
  17 16  0     -548.1919274299    -0.0000031874   0.000469391   0.000149019
  18 17  0     -548.1919275200    -0.0000000901   0.000080665   0.000026795
  19 18  0     -548.1919275220    -0.0000000020   0.000019629   0.000022537
  20 19  0     -548.1919275233    -0.0000000013   0.000003587   0.000004998
  21 20  0     -548.1919275233    -0.0000000001   0.000000627   0.000000432

          -----------------
          DENSITY CONVERGED
          -----------------
     TIME TO FORM FOCK OPERATORS=       2.3 SECONDS (       0.1 SEC/ITER)
     TIME TO SOLVE SCF EQUATIONS=       0.0 SECONDS (       0.0 SEC/ITER)

 FINAL R-PBE ENERGY IS     -548.1919275233 AFTER  21 ITERATIONS
 DFT EXCHANGE + CORRELATION ENERGY =       -42.6981438625
 TOTAL ELECTRON NUMBER             =        31.9999848822

          ------------
          EIGENVECTORS
          ------------

                      1          2          3          4          5
                  -88.2084   -18.7950   -18.7950    -7.8306    -5.8572
                     A          A          A          A          A   
    1  S  1  S    0.997740  -0.000000  -0.000051  -0.308306  -0.000000
    2  S  1  S    0.008422   0.000001   0.000370   1.031283   0.000000
    3  S  1  S   -0.003835   0.000002   0.000841   0.028733  -0.000000
    4  S  1  S    0.000263   0.000016   0.008314  -0.005191  -0.000000
    5  S  1  X   -0.000000   0.000242  -0.000000  -0.000000   0.993875
    6  S  1  Y    0.000187  -0.000000  -0.000076   0.014047  -0.000000
    7  S  1  Z    0.000000   0.000000   0.000000   0.000000   0.000000
    8  S  1  X    0.000000   0.000306  -0.000001   0.000000   0.018940
    9  S  1  Y   -0.000695   0.000002   0.001281   0.001695  -0.000000
   10  S  1  Z    0.000000   0.000000   0.000000   0.000000   0.000000
   11  S  1  X    0.000000   0.004475  -0.000008   0.000000  -0.002267
   12  S  1  Y   -0.000056   0.000006   0.002972  -0.000261  -0.000000
   13  S  1  Z    0.000000   0.000000   0.000000   0.000000   0.000000
   14  S  1 XX   -0.000583  -0.000001  -0.000813   0.001124  -0.000000
   15  S  1 YY    0.000199   0.000001   0.000612  -0.000539   0.000000
   16  S  1 ZZ    0.000384   0.000000   0.000201  -0.000584   0.000000
   17  S  1 XY    0.000000  -0.001292   0.000002   0.000000   0.002023
   18  S  1 XZ    0.000000   0.000000   0.000000   0.000000   0.000000
   19  S  1 YZ    0.000000   0.000000   0.000000   0.000000   0.000000
   20  O  2  S   -0.000031   0.703522   0.700970  -0.000388  -0.001029
   21  O  2  S   -0.000168   0.024246   0.024424  -0.000058   0.000959
   22  O  2  S    0.001086  -0.011206  -0.012825  -0.000797  -0.001856
   23  O  2  X   -0.000199  -0.001293  -0.001231  -0.000299  -0.001725
   24  O  2  Y   -0.000104  -0.000581  -0.000376  -0.000119  -0.000945
   25  O  2  Z    0.000000   0.000000   0.000000   0.000000   0.000000
   26  O  2  X   -0.000755   0.001219   0.003176   0.001095   0.001331
   27  O  2  Y   -0.000362   0.001420   0.000275   0.000575   0.000713
   28  O  2  Z    0.000000   0.000000   0.000000   0.000000   0.000000
   29  O  2 XX    0.000241   0.000237  -0.000272   0.000682   0.001099
   30  O  2 YY   -0.000052  -0.000246   0.000235  -0.000255  -0.000192
   31  O  2 ZZ   -0.000189   0.000009   0.000036  -0.000427  -0.000907
   32  O  2 XY    0.000263  -0.000058   0.000090   0.000537   0.001350
   33  O  2 XZ    0.000000   0.000000   0.000000   0.000000   0.000000
   34  O  2 YZ    0.000000   0.000000   0.000000   0.000000   0.000000
   35  O  3  S   -0.000031  -0.700940   0.703552  -0.000388   0.001029
   36  O  3  S   -0.000168  -0.024156   0.024513  -0.000058  -0.000959
   37  O  3  S    0.001086   0.011159  -0.012867  -0.000797   0.001856
   38  O  3  X    0.000199  -0.001288   0.001236   0.000299  -0.001725
   39  O  3  Y   -0.000104   0.000580  -0.000378  -0.000119   0.000945
   40  O  3  Z    0.000000   0.000000   0.000000   0.000000   0.000000
   41  O  3  X    0.000755   0.001207  -0.003180  -0.001095   0.001331
   42  O  3  Y   -0.000362  -0.001419   0.000280   0.000575  -0.000713
   43  O  3  Z    0.000000   0.000000   0.000000   0.000000   0.000000
   44  O  3 XX    0.000241  -0.000238  -0.000271   0.000682  -0.001099
   45  O  3 YY   -0.000052   0.000246   0.000234  -0.000255   0.000192
   46  O  3 ZZ   -0.000189  -0.000009   0.000036  -0.000427   0.000907
   47  O  3 XY   -0.000263  -0.000058  -0.000089  -0.000537   0.001350
   48  O  3 XZ    0.000000   0.000000   0.000000   0.000000   0.000000
   49  O  3 YZ    0.000000   0.000000   0.000000   0.000000   0.000000

                      6          7          8          9         10
                   -5.8548    -5.8485    -1.1118    -1.0209    -0.5534
                     A          A          A          A          A   
    1  S  1  S    0.000000   0.004525   0.055623  -0.000000   0.059037
    2  S  1  S    0.000000  -0.015682  -0.336881   0.000000  -0.378349
    3  S  1  S    0.000000   0.000764   0.457083  -0.000001   0.593030
    4  S  1  S    0.000000   0.000968   0.047393  -0.000006   0.179900
    5  S  1  X    0.000000   0.000000  -0.000000  -0.167523   0.000000
    6  S  1  Y    0.000000   0.994645  -0.067157   0.000000   0.042897
    7  S  1  Z    0.994838   0.000000   0.000000   0.000000   0.000000
    8  S  1  X    0.000000   0.000000   0.000002   0.365009  -0.000001
    9  S  1  Y    0.000000   0.016458   0.137745  -0.000002  -0.101314
   10  S  1  Z    0.016320   0.000000   0.000000   0.000000   0.000000
   11  S  1  X    0.000000   0.000000   0.000002  -0.019745  -0.000001
   12  S  1  Y    0.000000  -0.002581  -0.019662  -0.000002  -0.049679
   13  S  1  Z   -0.003016   0.000000   0.000000   0.000000   0.000000
   14  S  1 XX    0.000000  -0.000559   0.065454  -0.000001  -0.010133
   15  S  1 YY    0.000000   0.001298  -0.021047   0.000000  -0.009843
   16  S  1 ZZ    0.000000  -0.000739  -0.044407   0.000001   0.019976
   17  S  1 XY    0.000000   0.000000   0.000001   0.089968  -0.000000
   18  S  1 XZ   -0.000000   0.000000   0.000000   0.000000   0.000000
   19  S  1 YZ    0.001054   0.000000   0.000000   0.000000   0.000000
   20  O  2  S    0.000000  -0.000478  -0.135305  -0.158438   0.112787
   21  O  2  S    0.000000   0.000650   0.271219   0.324341  -0.240787
   22  O  2  S    0.000000  -0.000754   0.206458   0.232413  -0.332064
   23  O  2  X    0.000000  -0.001051  -0.125726  -0.117016  -0.184537
   24  O  2  Y    0.000000  -0.000360  -0.048849  -0.057971  -0.129288
   25  O  2  Z    0.000129   0.000000   0.000000   0.000000   0.000000
   26  O  2  X    0.000000   0.000789  -0.026131  -0.001942  -0.089515
   27  O  2  Y    0.000000  -0.000243  -0.006128  -0.001739  -0.057184
   28  O  2  Z   -0.000380   0.000000   0.000000   0.000000   0.000000
   29  O  2 XX    0.000000   0.000744   0.014221   0.006467   0.006977
   30  O  2 YY    0.000000  -0.000332  -0.007648  -0.001368   0.000050
   31  O  2 ZZ    0.000000  -0.000411  -0.006574  -0.005100  -0.007027
   32  O  2 XY    0.000000   0.000531   0.008213   0.010177   0.010705
   33  O  2 XZ   -0.000200   0.000000   0.000000   0.000000   0.000000
   34  O  2 YZ   -0.000145   0.000000   0.000000   0.000000   0.000000
   35  O  3  S    0.000000  -0.000478  -0.135305   0.158437   0.112787
   36  O  3  S    0.000000   0.000650   0.271218  -0.324343  -0.240788
   37  O  3  S    0.000000  -0.000754   0.206465  -0.232404  -0.332066
   38  O  3  X    0.000000   0.001051   0.125726  -0.117016   0.184538
   39  O  3  Y    0.000000  -0.000360  -0.048848   0.057971  -0.129289
   40  O  3  Z    0.000129   0.000000   0.000000   0.000000   0.000000
   41  O  3  X    0.000000  -0.000789   0.026133  -0.001937   0.089515
   42  O  3  Y    0.000000  -0.000243  -0.006130   0.001738  -0.057184
   43  O  3  Z   -0.000380   0.000000   0.000000   0.000000   0.000000
   44  O  3 XX    0.000000   0.000744   0.014222  -0.006467   0.006977
   45  O  3 YY    0.000000  -0.000332  -0.007648   0.001367   0.000050
   46  O  3 ZZ    0.000000  -0.000411  -0.006574   0.005099  -0.007027
   47  O  3 XY    0.000000  -0.000531  -0.008213   0.010176  -0.010705
   48  O  3 XZ    0.000200   0.000000   0.000000   0.000000   0.000000
   49  O  3 YZ   -0.000145   0.000000   0.000000   0.000000   0.000000

                     11         12         13         14         15
                   -0.4798    -0.4665    -0.4491    -0.3616    -0.3395
                     A          A          A          A          A   
    1  S  1  S    0.000000  -0.005473   0.000000   0.000000   0.000000
    2  S  1  S    0.000000   0.034944  -0.000000   0.000000  -0.000000
    3  S  1  S    0.000000  -0.037406  -0.000000   0.000000   0.000000
    4  S  1  S    0.000000  -0.106898  -0.000000   0.000000   0.000004
    5  S  1  X    0.000000  -0.000000  -0.168075   0.000000  -0.009470
    6  S  1  Y    0.000000  -0.195038   0.000000   0.000000   0.000000
    7  S  1  Z   -0.211116   0.000000   0.000000  -0.000000   0.000000
    8  S  1  X    0.000000   0.000001   0.452694   0.000000   0.016098
    9  S  1  Y    0.000000   0.507461  -0.000001   0.000000   0.000000
   10  S  1  Z    0.552500   0.000000   0.000000   0.000000   0.000000
   11  S  1  X    0.000000   0.000000  -0.044930   0.000000   0.083791
   12  S  1  Y    0.000000   0.068728  -0.000000   0.000000   0.000001
   13  S  1  Z    0.093574   0.000000   0.000000  -0.000000   0.000000
   14  S  1 XX    0.000000  -0.070693  -0.000000   0.000000   0.000000
   15  S  1 YY    0.000000   0.082790  -0.000000   0.000000  -0.000000
   16  S  1 ZZ    0.000000  -0.012098   0.000000   0.000000  -0.000000
   17  S  1 XY    0.000000   0.000000   0.041083   0.000000  -0.147886
   18  S  1 XZ   -0.000000   0.000000   0.000000   0.155118   0.000000
   19  S  1 YZ    0.058184   0.000000   0.000000  -0.000000   0.000000
   20  O  2  S    0.000000   0.030398   0.076300   0.000000  -0.001600
   21  O  2  S    0.000000  -0.061954  -0.157907   0.000000   0.005701
   22  O  2  S    0.000000  -0.104021  -0.293991   0.000000   0.000565
   23  O  2  X    0.000000  -0.247013  -0.313639   0.000000   0.293577
   24  O  2  Y    0.000000   0.228128  -0.233166   0.000000  -0.363392
   25  O  2  Z    0.320756   0.000000   0.000000   0.460068   0.000000
   26  O  2  X    0.000000  -0.132424  -0.125157   0.000000   0.175071
   27  O  2  Y    0.000000   0.134182  -0.115221   0.000000  -0.253503
   28  O  2  Z    0.179022   0.000000   0.000000   0.312063   0.000000
   29  O  2 XX    0.000000   0.021534   0.008005   0.000000  -0.016129
   30  O  2 YY    0.000000  -0.015794   0.001779   0.000000   0.016208
   31  O  2 ZZ    0.000000  -0.005740  -0.009784   0.000000  -0.000079
   32  O  2 XY    0.000000  -0.008698   0.016669   0.000000   0.016220
   33  O  2 XZ   -0.024606   0.000000   0.000000  -0.020677   0.000000
   34  O  2 YZ   -0.010274   0.000000   0.000000  -0.009266   0.000000
   35  O  3  S    0.000000   0.030398  -0.076300   0.000000   0.001600
   36  O  3  S    0.000000  -0.061954   0.157906   0.000000  -0.005700
   37  O  3  S    0.000000  -0.104019   0.293992   0.000000  -0.000569
   38  O  3  X    0.000000   0.247013  -0.313639   0.000000   0.293577
   39  O  3  Y    0.000000   0.228129   0.233165   0.000000   0.363392
   40  O  3  Z    0.320757   0.000000   0.000000  -0.460068   0.000000
   41  O  3  X    0.000000   0.132424  -0.125156   0.000000   0.175068
   42  O  3  Y    0.000000   0.134183   0.115220   0.000000   0.253503
   43  O  3  Z    0.179022   0.000000   0.000000  -0.312063   0.000000
   44  O  3 XX    0.000000   0.021534  -0.008005   0.000000   0.016129
   45  O  3 YY    0.000000  -0.015794  -0.001779   0.000000  -0.016208
   46  O  3 ZZ    0.000000  -0.005740   0.009784   0.000000   0.000079
   47  O  3 XY    0.000000   0.008698   0.016669   0.000000   0.016220
   48  O  3 XZ    0.024606   0.000000   0.000000  -0.020677   0.000000
   49  O  3 YZ   -0.010274   0.000000   0.000000   0.009266   0.000000

                     16         17         18         19         20
                   -0.2647    -0.1219     0.0289     0.1051     0.2029
                     A          A          A          A          A   
    1  S  1  S    0.026280   0.000000   0.016296   0.000000   0.000000
    2  S  1  S   -0.171944   0.000000  -0.109718   0.000000   0.000000
    3  S  1  S    0.200517   0.000000   0.050039  -0.000005   0.000000
    4  S  1  S    0.619225   0.000000   1.049361  -0.000000   0.000000
    5  S  1  X    0.000000   0.000000   0.000000  -0.091307   0.000000
    6  S  1  Y    0.134299   0.000000  -0.152586  -0.000000   0.000000
    7  S  1  Z    0.000000  -0.230391   0.000000   0.000000   0.247457
    8  S  1  X   -0.000000   0.000000   0.000001   0.292169   0.000000
    9  S  1  Y   -0.367085   0.000000   0.509956  -0.000001   0.000000
   10  S  1  Z    0.000000   0.704350   0.000000   0.000000  -0.968620
   11  S  1  X   -0.000001   0.000000  -0.000012   1.436013   0.000000
   12  S  1  Y   -0.054960   0.000000   0.802098   0.000004   0.000000
   13  S  1  Z    0.000000   0.414332   0.000000   0.000000   1.292248
   14  S  1 XX   -0.187759   0.000000  -0.165430  -0.000003   0.000000
   15  S  1 YY    0.098141   0.000000  -0.043732  -0.000000   0.000000
   16  S  1 ZZ    0.089617   0.000000   0.209162   0.000003   0.000000
   17  S  1 XY    0.000000   0.000000   0.000001  -0.174807   0.000000
   18  S  1 XZ    0.000000  -0.000000   0.000000   0.000000   0.000000
   19  S  1 YZ    0.000000  -0.072886   0.000000   0.000000  -0.083491
   20  O  2  S    0.015783   0.000000   0.059386   0.064257   0.000000
   21  O  2  S   -0.035213   0.000000  -0.124367  -0.113892   0.000000
   22  O  2  S   -0.093684   0.000000  -0.532918  -0.729121   0.000000
   23  O  2  X    0.140402   0.000000   0.284955  -0.008937   0.000000
   24  O  2  Y    0.364086   0.000000  -0.147347   0.201647   0.000000
   25  O  2  Z    0.000000  -0.385492   0.000000   0.000000  -0.010685
   26  O  2  X    0.078420   0.000000   0.337428   0.007383   0.000000
   27  O  2  Y    0.262313   0.000000  -0.166304   0.225238   0.000000
   28  O  2  Z    0.000000  -0.356132   0.000000   0.000000  -0.091546
   29  O  2 XX   -0.003790   0.000000  -0.004192  -0.004749   0.000000
   30  O  2 YY   -0.000204   0.000000  -0.004192   0.003783   0.000000
   31  O  2 ZZ    0.003993   0.000000   0.008384   0.000966   0.000000
   32  O  2 XY   -0.009308   0.000000  -0.004810  -0.004360   0.000000
   33  O  2 XZ    0.000000   0.002517   0.000000   0.000000   0.024522
   34  O  2 YZ    0.000000  -0.001457   0.000000   0.000000   0.008600
   35  O  3  S    0.015783   0.000000   0.059388  -0.064256   0.000000
   36  O  3  S   -0.035213   0.000000  -0.124372   0.113882   0.000000
   37  O  3  S   -0.093685   0.000000  -0.532925   0.729132   0.000000
   38  O  3  X   -0.140402   0.000000  -0.284956  -0.008944   0.000000
   39  O  3  Y    0.364085   0.000000  -0.147345  -0.201649   0.000000
   40  O  3  Z    0.000000  -0.385492   0.000000   0.000000  -0.010685
   41  O  3  X   -0.078420   0.000000  -0.337424   0.007390   0.000000
   42  O  3  Y    0.262313   0.000000  -0.166302  -0.225244   0.000000
   43  O  3  Z    0.000000  -0.356132   0.000000   0.000000  -0.091546
   44  O  3 XX   -0.003790   0.000000  -0.004192   0.004749   0.000000
   45  O  3 YY   -0.000203   0.000000  -0.004192  -0.003783   0.000000
   46  O  3 ZZ    0.003993   0.000000   0.008384  -0.000967   0.000000
   47  O  3 XY    0.009308   0.000000   0.004810  -0.004360   0.000000
   48  O  3 XZ    0.000000  -0.002517   0.000000   0.000000  -0.024522
   49  O  3 YZ    0.000000  -0.001457   0.000000   0.000000   0.008600

                     21         22         23         24         25
                    0.2251     0.2963     0.3883     0.5340     0.5483
                     A          A          A          A          A   
    1  S  1  S    0.025297  -0.066131  -0.000000   0.000000   0.009415
    2  S  1  S   -0.184560   0.479243   0.000001   0.000000  -0.071427
    3  S  1  S    0.665311  -1.689419  -0.000007   0.000000   0.253496
    4  S  1  S   -0.788114   2.061157  -0.000004   0.000000   0.217629
    5  S  1  X    0.000000  -0.000001   0.269131   0.000000  -0.000000
    6  S  1  Y    0.251428   0.088606   0.000000   0.000000  -0.018869
    7  S  1  Z    0.000000   0.000000   0.000000   0.015038   0.000000
    8  S  1  X   -0.000000   0.000009  -0.988103   0.000000   0.000002
    9  S  1  Y   -0.984671  -0.290739  -0.000003   0.000000   0.091210
   10  S  1  Z    0.000000   0.000000   0.000000  -0.075004   0.000000
   11  S  1  X   -0.000000   0.000001   1.014277   0.000000   0.000001
   12  S  1  Y    1.104264   0.528758  -0.000001   0.000000   0.160600
   13  S  1  Z    0.000000   0.000000   0.000000   0.153489   0.000000
   14  S  1 XX    0.127731   0.310687  -0.000002   0.000000  -0.049960
   15  S  1 YY   -0.084577  -0.110506   0.000000   0.000000   0.847027
   16  S  1 ZZ   -0.043155  -0.200181   0.000002   0.000000  -0.797067
   17  S  1 XY    0.000000   0.000002   0.541346   0.000000   0.000001
   18  S  1 XZ    0.000000   0.000000   0.000000  -0.000000   0.000000
   19  S  1 YZ    0.000000   0.000000   0.000000   0.964764   0.000000
   20  O  2  S   -0.006578   0.008559  -0.008450   0.000000   0.022193
   21  O  2  S    0.034644   0.043970   0.086148   0.000000  -0.081320
   22  O  2  S    0.007678  -0.563235  -0.311074   0.000000  -0.158187
   23  O  2  X   -0.056602  -0.259131  -0.222474   0.000000   0.101352
   24  O  2  Y    0.020089  -0.095746  -0.216753   0.000000  -0.221458
   25  O  2  Z    0.000000   0.000000   0.000000  -0.223300   0.000000
   26  O  2  X   -0.066103   0.086771  -0.010222   0.000000   0.191455
   27  O  2  Y   -0.067136   0.057184  -0.091953   0.000000   0.090262
   28  O  2  Z    0.000000   0.000000   0.000000   0.003476   0.000000
   29  O  2 XX   -0.015241  -0.046148  -0.016709   0.000000   0.021166
   30  O  2 YY    0.015938   0.020047  -0.011676   0.000000   0.013101
   31  O  2 ZZ   -0.000697   0.026101   0.028385   0.000000  -0.034267
   32  O  2 XY    0.017101  -0.029495  -0.044080   0.000000  -0.037768
   33  O  2 XZ    0.000000   0.000000   0.000000  -0.035680   0.000000
   34  O  2 YZ    0.000000   0.000000   0.000000   0.031511   0.000000
   35  O  3  S   -0.006578   0.008559   0.008450   0.000000   0.022193
   36  O  3  S    0.034643   0.043964  -0.086152   0.000000  -0.081322
   37  O  3  S    0.007677  -0.563220   0.311086   0.000000  -0.158181
   38  O  3  X    0.056602   0.259129  -0.222476   0.000000  -0.101354
   39  O  3  Y    0.020090  -0.095747   0.216752   0.000000  -0.221457
   40  O  3  Z    0.000000   0.000000   0.000000  -0.223301   0.000000
   41  O  3  X    0.066103  -0.086758  -0.010211   0.000000  -0.191450
   42  O  3  Y   -0.067136   0.057179   0.091949   0.000000   0.090260
   43  O  3  Z    0.000000   0.000000   0.000000   0.003476   0.000000
   44  O  3 XX   -0.015241  -0.046148   0.016709   0.000000   0.021166
   45  O  3 YY    0.015938   0.020047   0.011676   0.000000   0.013101
   46  O  3 ZZ   -0.000697   0.026101  -0.028385   0.000000  -0.034267
   47  O  3 XY   -0.017101   0.029495  -0.044080   0.000000   0.037768
   48  O  3 XZ    0.000000   0.000000   0.000000   0.035680   0.000000
   49  O  3 YZ    0.000000   0.000000   0.000000   0.031511   0.000000

                     26         27         28         29         30
                    0.6165     0.6218     0.6520     0.7459     0.8054
                     A          A          A          A          A   
    1  S  1  S    0.000000   0.028979  -0.000000   0.000000   0.008170
    2  S  1  S    0.000000  -0.235563   0.000001   0.000000  -0.067511
    3  S  1  S    0.000000   1.239765  -0.000008   0.000000   0.374563
    4  S  1  S    0.000000   0.799253  -0.000015   0.000000   0.011654
    5  S  1  X    0.000000  -0.000002  -0.221427   0.000000  -0.000000
    6  S  1  Y    0.000000  -0.096167   0.000001   0.000000  -0.015273
    7  S  1  Z   -0.000000   0.000000   0.000000  -0.000000   0.000000
    8  S  1  X    0.000000   0.000012   1.324403   0.000000   0.000000
    9  S  1  Y    0.000000   0.605762  -0.000005   0.000000   0.046876
   10  S  1  Z    0.000000   0.000000   0.000000   0.000000   0.000000
   11  S  1  X    0.000000   0.000005  -0.094171   0.000000  -0.000000
   12  S  1  Y    0.000000   0.031779  -0.000003   0.000000  -0.659637
   13  S  1  Z    0.000000   0.000000   0.000000  -0.000000   0.000000
   14  S  1 XX    0.000000   0.470602  -0.000002   0.000000   0.303484
   15  S  1 YY    0.000000  -0.254624   0.000000   0.000000  -0.387894
   16  S  1 ZZ    0.000000  -0.215978   0.000002   0.000000   0.084410
   17  S  1 XY    0.000000   0.000004   0.366287   0.000000  -0.000000
   18  S  1 XZ    0.952878   0.000000   0.000000   0.394914   0.000000
   19  S  1 YZ    0.000000   0.000000   0.000000  -0.000000   0.000000
   20  O  2  S    0.000000   0.059955   0.059752   0.000000  -0.007104
   21  O  2  S    0.000000  -0.106164  -0.129716   0.000000   0.108409
   22  O  2  S    0.000000  -0.705514  -0.598512   0.000000  -0.147258
   23  O  2  X    0.000000  -0.339132  -0.164845   0.000000   0.238953
   24  O  2  Y    0.000000   0.025365  -0.230571   0.000000  -0.505272
   25  O  2  Z   -0.348367   0.000000   0.000000   0.563632   0.000000
   26  O  2  X    0.000000   1.127641   1.058872   0.000000  -0.166649
   27  O  2  Y    0.000000   0.407463   0.624210   0.000000   0.955778
   28  O  2  Z   -0.037900   0.000000   0.000000  -0.833239   0.000000
   29  O  2 XX    0.000000   0.001388   0.017264   0.000000  -0.016885
   30  O  2 YY    0.000000  -0.002337  -0.003259   0.000000   0.017553
   31  O  2 ZZ    0.000000   0.000949  -0.014005   0.000000  -0.000669
   32  O  2 XY    0.000000   0.008195   0.023678   0.000000   0.034753
   33  O  2 XZ   -0.046616   0.000000   0.000000  -0.038758   0.000000
   34  O  2 YZ   -0.046516   0.000000   0.000000  -0.021860   0.000000
   35  O  3  S    0.000000   0.059954  -0.059753   0.000000  -0.007104
   36  O  3  S    0.000000  -0.106166   0.129717   0.000000   0.108409
   37  O  3  S    0.000000  -0.705492   0.598530   0.000000  -0.147258
   38  O  3  X    0.000000   0.339121  -0.164857   0.000000  -0.238954
   39  O  3  Y    0.000000   0.025367   0.230576   0.000000  -0.505271
   40  O  3  Z    0.348367   0.000000   0.000000  -0.563633   0.000000
   41  O  3  X    0.000000  -1.127611   1.058898   0.000000   0.166650
   42  O  3  Y    0.000000   0.407453  -0.624220   0.000000   0.955777
   43  O  3  Z    0.037900   0.000000   0.000000   0.833239   0.000000
   44  O  3 XX    0.000000   0.001387  -0.017264   0.000000  -0.016885
   45  O  3 YY    0.000000  -0.002337   0.003259   0.000000   0.017553
   46  O  3 ZZ    0.000000   0.000949   0.014005   0.000000  -0.000668
   47  O  3 XY    0.000000  -0.008195   0.023679   0.000000  -0.034753
   48  O  3 XZ   -0.046616   0.000000   0.000000  -0.038757   0.000000
   49  O  3 YZ    0.046516   0.000000   0.000000   0.021860   0.000000

                     31         32         33         34         35
                    0.8288     0.8609     1.1510     1.1775     1.4428
                     A          A          A          A          A   
    1  S  1  S   -0.000000   0.000000   0.020771  -0.000000   0.000000
    2  S  1  S    0.000001   0.000000  -0.146318   0.000001  -0.000000
    3  S  1  S    0.000000   0.000000   0.044426  -0.000003  -0.000004
    4  S  1  S    0.000001   0.000000   0.648461  -0.000024   0.000002
    5  S  1  X    0.064574   0.000000  -0.000001  -0.200065   0.036879
    6  S  1  Y    0.000000   0.000000  -0.104586   0.000001  -0.000001
    7  S  1  Z    0.000000   0.005738   0.000000   0.000000   0.000000
    8  S  1  X   -0.358665   0.000000   0.000006   0.750751  -0.525705
    9  S  1  Y   -0.000000   0.000000   0.407154  -0.000006   0.000002
   10  S  1  Z    0.000000  -0.100456   0.000000   0.000000   0.000000
   11  S  1  X    0.375914   0.000000   0.000013   0.407103  -1.070133
   12  S  1  Y    0.000000   0.000000   0.067260  -0.000009  -0.000001
   13  S  1  Z    0.000000  -0.718505   0.000000   0.000000   0.000000
   14  S  1 XX   -0.000002   0.000000   1.037044  -0.000005   0.000009
   15  S  1 YY    0.000001   0.000000  -0.351686   0.000000  -0.000003
   16  S  1 ZZ    0.000001   0.000000  -0.685359   0.000005  -0.000006
   17  S  1 XY   -0.284081   0.000000   0.000002   0.913152  -0.015121
   18  S  1 XZ    0.000000  -0.000000   0.000000   0.000000   0.000000
   19  S  1 YZ    0.000000  -0.276621   0.000000   0.000000   0.000000
   20  O  2  S    0.003176   0.000000   0.042221   0.035969   0.080346
   21  O  2  S   -0.100933   0.000000  -0.204819  -0.094496  -1.282811
   22  O  2  S    0.197775   0.000000  -0.460701  -0.648782   2.085971
   23  O  2  X    0.218576   0.000000   0.484637   0.648548  -0.019066
   24  O  2  Y   -0.555860   0.000000   0.373796   0.117910   0.074498
   25  O  2  Z    0.000000  -0.603503   0.000000   0.000000   0.000000
   26  O  2  X   -0.640671   0.000000  -0.093449  -0.182783  -0.282151
   27  O  2  Y    0.651133   0.000000  -0.055518   0.018709  -0.412063
   28  O  2  Z    0.000000   1.004679   0.000000   0.000000   0.000000
   29  O  2 XX   -0.043211   0.000000  -0.043992   0.089686  -0.037855
   30  O  2 YY    0.028525   0.000000   0.087988  -0.105809  -0.041980
   31  O  2 ZZ    0.014687   0.000000  -0.043996   0.016123   0.079836
   32  O  2 XY    0.016959   0.000000   0.046132  -0.002468  -0.120416
   33  O  2 XZ    0.000000   0.047957   0.000000   0.000000   0.000000
   34  O  2 YZ    0.000000   0.010391   0.000000   0.000000   0.000000
   35  O  3  S   -0.003175   0.000000   0.042223  -0.035967  -0.080344
   36  O  3  S    0.100927   0.000000  -0.204846   0.094463   1.282794
   37  O  3  S   -0.197769   0.000000  -0.460655   0.648841  -2.085960
   38  O  3  X    0.218583   0.000000  -0.484629   0.648553  -0.019074
   39  O  3  Y    0.555857   0.000000   0.373799  -0.117915  -0.074492
   40  O  3  Z    0.000000  -0.603503   0.000000   0.000000   0.000000
   41  O  3  X   -0.640677   0.000000   0.093446  -0.182771  -0.282145
   42  O  3  Y   -0.651130   0.000000  -0.055528  -0.018707   0.412062
   43  O  3  Z    0.000000   1.004678   0.000000   0.000000   0.000000
   44  O  3 XX    0.043212   0.000000  -0.043991  -0.089687   0.037853
   45  O  3 YY   -0.028525   0.000000   0.087987   0.105809   0.041984
   46  O  3 ZZ   -0.014687   0.000000  -0.043996  -0.016123  -0.079837
   47  O  3 XY    0.016959   0.000000  -0.046132  -0.002468  -0.120418
   48  O  3 XZ    0.000000  -0.047957   0.000000   0.000000   0.000000
   49  O  3 YZ    0.000000   0.010391   0.000000   0.000000   0.000000

                     36         37         38         39         40
                    1.4898     2.0328     2.0372     2.0579     2.0862
                     A          A          A          A          A   
    1  S  1  S   -0.003816   0.000000  -0.000000   0.000000   0.000392
    2  S  1  S    0.043365   0.000000   0.000000   0.000000   0.001106
    3  S  1  S   -0.263328   0.000000  -0.000000   0.000000  -0.067233
    4  S  1  S   -2.012388   0.000000   0.000001   0.000000   0.003872
    5  S  1  X    0.000002   0.000000  -0.007267   0.000000  -0.000000
    6  S  1  Y    0.049220   0.000000  -0.000000   0.000000   0.001028
    7  S  1  Z    0.000000  -0.000000   0.000000  -0.031316   0.000000
    8  S  1  X   -0.000004   0.000000   0.001091   0.000000   0.000000
    9  S  1  Y   -0.418052   0.000000   0.000000   0.000000  -0.025903
   10  S  1  Z    0.000000   0.000000   0.000000   0.136346   0.000000
   11  S  1  X   -0.000005   0.000000   0.028242   0.000000  -0.000001
   12  S  1  Y   -0.704246   0.000000   0.000000   0.000000   0.004353
   13  S  1  Z    0.000000  -0.000000   0.000000  -0.007301   0.000000
   14  S  1 XX   -0.186585   0.000000   0.000000   0.000000   0.100374
   15  S  1 YY   -0.018426   0.000000   0.000000   0.000000   0.094109
   16  S  1 ZZ    0.205012   0.000000  -0.000000   0.000000  -0.194483
   17  S  1 XY   -0.000010   0.000000  -0.031332   0.000000   0.000000
   18  S  1 XZ    0.000000   0.037052   0.000000  -0.000000   0.000000
   19  S  1 YZ    0.000000  -0.000000   0.000000  -0.070930   0.000000
   20  O  2  S    0.068409   0.000000   0.001342   0.000000   0.006633
   21  O  2  S   -1.276819   0.000000  -0.017980   0.000000  -0.079474
   22  O  2  S    2.334513   0.000000   0.019809   0.000000   0.054997
   23  O  2  X   -0.010754   0.000000   0.030735   0.000000   0.053164
   24  O  2  Y   -0.089854   0.000000  -0.022513   0.000000   0.018455
   25  O  2  Z    0.000000   0.015320   0.000000   0.028612   0.000000
   26  O  2  X   -0.698604   0.000000  -0.061785   0.000000  -0.053155
   27  O  2  Y   -0.011097   0.000000   0.031275   0.000000  -0.012974
   28  O  2  Z    0.000000  -0.026619   0.000000  -0.046899   0.000000
   29  O  2 XX   -0.154782   0.000000   0.252907   0.000000  -0.062300
   30  O  2 YY    0.091570   0.000000   0.350713   0.000000  -0.534571
   31  O  2 ZZ    0.063212   0.000000  -0.603621   0.000000   0.596871
   32  O  2 XY   -0.047530   0.000000  -0.365545   0.000000   0.265885
   33  O  2 XZ    0.000000   0.429079   0.000000  -0.050899   0.000000
   34  O  2 YZ    0.000000  -0.562844   0.000000   0.708035   0.000000
   35  O  3  S    0.068411   0.000000  -0.001343   0.000000   0.006633
   36  O  3  S   -1.276834   0.000000   0.017980   0.000000  -0.079473
   37  O  3  S    2.334517   0.000000  -0.019811   0.000000   0.054996
   38  O  3  X    0.010739   0.000000   0.030735   0.000000  -0.053164
   39  O  3  Y   -0.089853   0.000000   0.022513   0.000000   0.018455
   40  O  3  Z    0.000000  -0.015320   0.000000   0.028612   0.000000
   41  O  3  X    0.698616   0.000000  -0.061786   0.000000   0.053155
   42  O  3  Y   -0.011097   0.000000  -0.031275   0.000000  -0.012974
   43  O  3  Z    0.000000   0.026619   0.000000  -0.046899   0.000000
   44  O  3 XX   -0.154779   0.000000  -0.252907   0.000000  -0.062299
   45  O  3 YY    0.091565   0.000000  -0.350714   0.000000  -0.534570
   46  O  3 ZZ    0.063213   0.000000   0.603622   0.000000   0.596869
   47  O  3 XY    0.047531   0.000000  -0.365545   0.000000  -0.265885
   48  O  3 XZ    0.000000   0.429080   0.000000   0.050896   0.000000
   49  O  3 YZ    0.000000   0.562848   0.000000   0.708032   0.000000

                     41         42         43         44         45
                    2.2657     2.2670     2.4356     2.5381     2.8505
                     A          A          A          A          A   
    1  S  1  S    0.000000   0.000000   0.000000  -0.003462   0.042762
    2  S  1  S   -0.000000   0.000000   0.000000   0.042786  -0.404738
    3  S  1  S    0.000002   0.000000   0.000000  -0.291265   1.730475
    4  S  1  S   -0.000002   0.000000   0.000000  -0.338913   1.008498
    5  S  1  X   -0.028476   0.000000   0.000000  -0.000001  -0.000000
    6  S  1  Y   -0.000000   0.000000   0.000000   0.098829  -0.097377
    7  S  1  Z    0.000000   0.088451  -0.000000   0.000000   0.000000
    8  S  1  X    0.256265   0.000000   0.000000   0.000005   0.000002
    9  S  1  Y    0.000001   0.000000   0.000000  -0.526893   0.802621
   10  S  1  Z    0.000000  -0.387368   0.000000   0.000000   0.000000
   11  S  1  X    0.059287   0.000000   0.000000  -0.000002   0.000002
   12  S  1  Y   -0.000001   0.000000   0.000000  -0.195000   0.082183
   13  S  1  Z    0.000000  -0.068495  -0.000000   0.000000   0.000000
   14  S  1 XX   -0.000000   0.000000   0.000000   0.465024   0.828959
   15  S  1 YY    0.000000   0.000000   0.000000  -0.499760  -0.331209
   16  S  1 ZZ    0.000000   0.000000   0.000000   0.034736  -0.497750
   17  S  1 XY   -0.506447   0.000000   0.000000   0.000001   0.000003
   18  S  1 XZ    0.000000   0.000000   0.655995   0.000000   0.000000
   19  S  1 YZ    0.000000  -0.331918   0.000000   0.000000   0.000000
   20  O  2  S   -0.015499   0.000000   0.000000   0.012961   0.011915
   21  O  2  S    0.257387   0.000000   0.000000  -0.324760   0.477513
   22  O  2  S   -0.274906   0.000000   0.000000   0.524831  -1.602608
   23  O  2  X   -0.098328   0.000000   0.000000   0.092794   0.146791
   24  O  2  Y   -0.093100   0.000000   0.000000   0.017692   0.088808
   25  O  2  Z    0.000000  -0.061788   0.009219   0.000000   0.000000
   26  O  2  X    0.061964   0.000000   0.000000  -0.344600   0.814170
   27  O  2  Y    0.238298   0.000000   0.000000   0.170839   0.420071
   28  O  2  Z    0.000000   0.219554  -0.219080   0.000000   0.000000
   29  O  2 XX    0.391148   0.000000   0.000000   0.615252  -0.527148
   30  O  2 YY   -0.583670   0.000000   0.000000  -0.499784   0.061891
   31  O  2 ZZ    0.192522   0.000000   0.000000  -0.115469   0.465257
   32  O  2 XY   -0.435032   0.000000   0.000000  -0.423130  -0.693419
   33  O  2 XZ    0.000000  -0.747364   0.633747   0.000000   0.000000
   34  O  2 YZ    0.000000  -0.068074   0.463643   0.000000   0.000000
   35  O  3  S    0.015499   0.000000   0.000000   0.012961   0.011915
   36  O  3  S   -0.257388   0.000000   0.000000  -0.324761   0.477516
   37  O  3  S    0.274908   0.000000   0.000000   0.524835  -1.602608
   38  O  3  X   -0.098328   0.000000   0.000000  -0.092794  -0.146788
   39  O  3  Y    0.093100   0.000000   0.000000   0.017691   0.088808
   40  O  3  Z    0.000000  -0.061788  -0.009219   0.000000   0.000000
   41  O  3  X    0.061963   0.000000   0.000000   0.344605  -0.814171
   42  O  3  Y   -0.238298   0.000000   0.000000   0.170837   0.420071
   43  O  3  Z    0.000000   0.219554   0.219080   0.000000   0.000000
   44  O  3 XX   -0.391150   0.000000   0.000000   0.615257  -0.527146
   45  O  3 YY    0.583671   0.000000   0.000000  -0.499785   0.061890
   46  O  3 ZZ   -0.192521   0.000000   0.000000  -0.115472   0.465256
   47  O  3 XY   -0.435031   0.000000   0.000000   0.423125   0.693419
   48  O  3 XZ    0.000000   0.747365   0.633746   0.000000   0.000000
   49  O  3 YZ    0.000000  -0.068074  -0.463643   0.000000   0.000000

                     46
                    2.9516
                     A   
    1  S  1  S   -0.000000
    2  S  1  S    0.000000
    3  S  1  S    0.000001
    4  S  1  S   -0.000001
    5  S  1  X   -0.263969
    6  S  1  Y   -0.000000
    7  S  1  Z    0.000000
    8  S  1  X    1.973410
    9  S  1  Y    0.000001
   10  S  1  Z    0.000000
   11  S  1  X    0.134242
   12  S  1  Y    0.000000
   13  S  1  Z    0.000000
   14  S  1 XX   -0.000004
   15  S  1 YY    0.000002
   16  S  1 ZZ    0.000002
   17  S  1 XY    0.749394
   18  S  1 XZ    0.000000
   19  S  1 YZ    0.000000
   20  O  2  S    0.017020
   21  O  2  S    0.402774
   22  O  2  S   -1.550980
   23  O  2  X    0.181755
   24  O  2  Y    0.067062
   25  O  2  Z    0.000000
   26  O  2  X    0.879134
   27  O  2  Y    0.391493
   28  O  2  Z    0.000000
   29  O  2 XX   -0.727018
   30  O  2 YY    0.316180
   31  O  2 ZZ    0.410839
   32  O  2 XY   -0.551461
   33  O  2 XZ    0.000000
   34  O  2 YZ    0.000000
   35  O  3  S   -0.017020
   36  O  3  S   -0.402770
   37  O  3  S    1.550978
   38  O  3  X    0.181757
   39  O  3  Y   -0.067063
   40  O  3  Z    0.000000
   41  O  3  X    0.879132
   42  O  3  Y   -0.391495
   43  O  3  Z    0.000000
   44  O  3 XX    0.727015
   45  O  3 YY   -0.316176
   46  O  3 ZZ   -0.410839
   47  O  3 XY   -0.551465
   48  O  3 XZ    0.000000
   49  O  3 YZ    0.000000
 ...... END OF RHF CALCULATION ......
 STEP CPU TIME =     2.34 TOTAL CPU TIME =          2.5 (      0.0 MIN)
 TOTAL WALL CLOCK TIME=          2.5 SECONDS, CPU UTILIZATION IS    98.80%

     ---------------------------------------------------------------------
     PROPERTIES FOR THE PBE      DFT FUNCTIONAL (RHF  TYPE) DENSITY MATRIX
     ---------------------------------------------------------------------

          -----------------
          ENERGY COMPONENTS
          -----------------

         WAVEFUNCTION NORMALIZATION =       1.0000000000

                ONE ELECTRON ENERGY =    -981.9759876343
                TWO ELECTRON ENERGY =     319.5961967403
           NUCLEAR REPULSION ENERGY =     114.1878633706
                                      ------------------
                       TOTAL ENERGY =    -548.1919275233

 ELECTRON-ELECTRON POTENTIAL ENERGY =     319.5961967403
  NUCLEUS-ELECTRON POTENTIAL ENERGY =   -1530.3011170727
   NUCLEUS-NUCLEUS POTENTIAL ENERGY =     114.1878633706
                                      ------------------
             TOTAL POTENTIAL ENERGY =   -1096.5170569617
               TOTAL KINETIC ENERGY =     548.3251294384
                 VIRIAL RATIO (V/T) =       1.9997570749

          ---------------------------------------
          MULLIKEN AND LOWDIN POPULATION ANALYSES
          ---------------------------------------

     ATOMIC MULLIKEN POPULATION IN EACH MOLECULAR ORBITAL

                      1          2          3          4          5

                  2.000000   2.000000   2.000000   2.000000   2.000000

    1             1.999847   0.000716   0.001390   2.001167   1.999973
    2             0.000077   1.003317   0.995630  -0.000584   0.000014
    3             0.000077   0.995967   1.002980  -0.000584   0.000014

                      6          7          8          9         10

                  2.000000   2.000000   2.000000   2.000000   2.000000

    1             2.000042   2.000011   0.764163   0.570913   0.722979
    2            -0.000021  -0.000006   0.617914   0.714549   0.638508
    3            -0.000021  -0.000006   0.617923   0.714538   0.638513

                     11         12         13         14         15

                  2.000000   2.000000   2.000000   2.000000   2.000000

    1             0.959753   0.824674   0.326003   0.153701   0.175114
    2             0.520123   0.587663   0.837000   0.923150   0.912444
    3             0.520124   0.587664   0.836997   0.923149   0.912442

                     16

                  2.000000

    1             1.037547
    2             0.481227
    3             0.481226

               ----- POPULATIONS IN EACH AO -----
                             MULLIKEN      LOWDIN
              1  S  1  S      1.99978     1.99921
              2  S  1  S      1.99170     1.87821
              3  S  1  S      1.23402     0.59993
              4  S  1  S      0.68924     0.52619
              5  S  1  X      1.99458     1.95960
              6  S  1  Y      1.99525     1.96767
              7  S  1  Z      1.99370     1.95934
              8  S  1  X      0.85413     0.65675
              9  S  1  Y      1.04287     0.94625
             10  S  1  Z      0.82419     0.71651
             11  S  1  X      0.03556     0.19469
             12  S  1  Y      0.10583     0.24879
             13  S  1  Z      0.12311     0.23554
             14  S  1 XX      0.06238     0.38474
             15  S  1 YY      0.23070     0.32463
             16  S  1 ZZ      0.18844     0.29011
             17  S  1 XY      0.15370     0.21587
             18  S  1 XZ      0.01879     0.18941
             19  S  1 YZ      0.00000     0.01824
             20  O  2  S      1.99538     1.97234
             21  O  2  S      0.93855     0.67576
             22  O  2  S      0.84302     0.49531
             23  O  2  X      0.96410     0.92759
             24  O  2  Y      1.08421     1.05243
             25  O  2  Z      0.88282     0.83841
             26  O  2  X      0.36738     0.52955
             27  O  2  Y      0.57596     0.63919
             28  O  2  Z      0.55073     0.58871
             29  O  2 XX      0.00263     0.21114
             30  O  2 YY      0.00875     0.19161
             31  O  2 ZZ      0.00776     0.19302
             32  O  2 XY      0.00810     0.01573
             33  O  2 XZ      0.00161     0.01121
             34  O  2 YZ      0.00000     0.00214
             35  O  3  S      1.99538     1.97234
             36  O  3  S      0.93855     0.67576
             37  O  3  S      0.84302     0.49531
             38  O  3  X      0.96410     0.92759
             39  O  3  Y      1.08421     1.05243
             40  O  3  Z      0.88282     0.83841
             41  O  3  X      0.36738     0.52955
             42  O  3  Y      0.57596     0.63919
             43  O  3  Z      0.55073     0.58871
             44  O  3 XX      0.00263     0.21114
             45  O  3 YY      0.00875     0.19161
             46  O  3 ZZ      0.00776     0.19302
             47  O  3 XY      0.00810     0.01573
             48  O  3 XZ      0.00161     0.01121
             49  O  3 YZ      0.00000     0.00214

          ----- MULLIKEN ATOMIC OVERLAP POPULATIONS -----
          (OFF-DIAGONAL ELEMENTS NEED TO BE MULTIPLIED BY 2)

             1           2           3

    1   14.7842244
    2    0.3768827   7.8701289
    3    0.3768850  -0.0160070   7.8701251

          TOTAL MULLIKEN AND LOWDIN ATOMIC POPULATIONS
       ATOM         MULL.POP.    CHARGE          LOW.POP.     CHARGE
    1 S            15.537992    0.462008        15.311697    0.688303
    2 O             8.231005   -0.231005         8.344152   -0.344152
    3 O             8.231003   -0.231003         8.344151   -0.344151

          MULLIKEN SPHERICAL HARMONIC POPULATIONS
       ATOM           S       P       D      F      G      H      I    TOTAL
    1 S             5.91    8.97    0.65   0.00   0.00   0.00   0.00   15.54
    2 O             3.78    4.43    0.03   0.00   0.00   0.00   0.00    8.23
    3 O             3.78    4.43    0.03   0.00   0.00   0.00   0.00    8.23

          -------------------------------
          BOND ORDER AND VALENCE ANALYSIS     BOND ORDER THRESHOLD=0.050
          -------------------------------

                   BOND                       BOND                       BOND
  ATOM PAIR DIST  ORDER      ATOM PAIR DIST  ORDER      ATOM PAIR DIST  ORDER
    1   2  1.350  2.010        1   3  1.350  2.010        2   3  2.447  0.182

                       TOTAL       BONDED        FREE
      ATOM            VALENCE     VALENCE     VALENCE
    1 S                 4.021       4.021       0.000
    2 O                 2.193       2.193      -0.000
    3 O                 2.193       2.193      -0.000

          ---------------------
          ELECTROSTATIC MOMENTS
          ---------------------

 POINT   1           X           Y           Z (BOHR)    CHARGE
                 0.000000   -0.000000    0.000000        0.00 (A.U.)
         DX          DY          DZ         /D/  (DEBYE)
    -0.000003   -0.785161    0.000000    0.785161
 ...... END OF PROPERTY EVALUATION ......
 STEP CPU TIME =     0.00 TOTAL CPU TIME =          2.5 (      0.0 MIN)
 TOTAL WALL CLOCK TIME=          2.5 SECONDS, CPU UTILIZATION IS    98.41%
                580000  WORDS OF DYNAMIC MEMORY USED
 EXECUTION OF GAMESS TERMINATED NORMALLY Sun Sep 29 10:44:46 2019
 DDI: 263640 bytes (0.3 MB / 0 MWords) used by master data server.

 ----------------------------------------
 CPU timing information for all processes
 ========================================
 0: 2.406 + 0.83 = 2.490
 ----------------------------------------
 ddikick.x: exited gracefully.
----- accounting info -----
Files used on the master node crcfe02.crc.nd.edu were:
-rw-r--r-- 1 cdrisko campus     208 Sep 29 10:44 /afs/crc.nd.edu/user/c/cdrisko/SO2.F05
-rw-r--r-- 1 cdrisko campus   37566 Sep 29 10:44 /afs/crc.nd.edu/user/c/cdrisko/SO2.F07
-rw-r--r-- 1 cdrisko campus 4320384 Sep 29 10:44 /afs/crc.nd.edu/user/c/cdrisko/SO2.F08
-rw-r--r-- 1 cdrisko campus 1766880 Sep 29 10:44 /afs/crc.nd.edu/user/c/cdrisko/SO2.F10
Sun Sep 29 10:44:49 EDT 2019
0.447u 0.244s 0:06.17 11.0%	0+0k 0+24io 0pf+0w
