----- GAMESS execution script 'rungms' -----
This job is running on host crcfe02.crc.nd.edu
under operating system Linux at Sun Sep 29 10:55:12 EDT 2019
Available scratch disk space (Kbyte units) at beginning of the job is
Filesystem      1K-blocks  Used  Available Use% Mounted on
AFS            2147483647     0 2147483647   0% /afs
GAMESS temporary binary files will be written to /afs/crc.nd.edu/user/c/cdrisko
GAMESS supplementary output files will be written to /afs/crc.nd.edu/user/c/cdrisko/scr
Copying input file SO2.inp to your run's scratch directory...

 Distributed Data Interface kickoff program.
 Initiating 1 compute processes on 1 nodes to run the following command:
 /afs/crc.nd.edu/x86_64_linux/g/gamess/nov-2017/gamess/gamess.00.x SO2 

          ******************************************************
          *         GAMESS VERSION = 11 NOV 2017 (R3)         *
          *             FROM IOWA STATE UNIVERSITY             *
          * M.W.SCHMIDT, K.K.BALDRIDGE, J.A.BOATZ, S.T.ELBERT, *
          *   M.S.GORDON, J.H.JENSEN, S.KOSEKI, N.MATSUNAGA,   *
          *          K.A.NGUYEN, S.J.SU, T.L.WINDUS,           *
          *       TOGETHER WITH M.DUPUIS, J.A.MONTGOMERY       *
          *         J.COMPUT.CHEM.  14, 1347-1363(1993)        *
          **************** 64 BIT INTEL VERSION ****************

  SINCE 1993, STUDENTS AND POSTDOCS WORKING AT IOWA STATE UNIVERSITY
  AND ALSO IN THEIR VARIOUS JOBS AFTER LEAVING ISU HAVE MADE IMPORTANT
  CONTRIBUTIONS TO THE CODE:
     IVANA ADAMOVIC, CHRISTINE AIKENS, YURI ALEXEEV, POOJA ARORA,
     ANDREY ASADCHEV, ROB BELL, PRADIPTA BANDYOPADHYAY, JONATHAN BENTZ,
     BRETT BODE, KURT BRORSEN, CALEB CARLIN, GALINA CHABAN, WEI CHEN,
     CHEOL HO CHOI, PAUL DAY, ALBERT DEFUSCO, NUWAN DESILVA, TIM DUDLEY,
     DMITRI FEDOROV, ALEX FINDLATER, GRAHAM FLETCHER, MARK FREITAG,
     KURT GLAESEMANN, ANASTASIA GUININA,
     DAN KEMP, GRANT MERRILL, NORIYUKI MINEZAWA, JONATHAN MULLIN,
     TAKESHI NAGATA, SEAN NEDD, HEATHER NETZLOFF, BOSILJKA NJEGIC, RYAN OLSON,
     MIKE PAK, BUU PHAM,
     SPENCER PRUITT, LUKE ROSKOP, JIM SHOEMAKER, LYUDMILA SLIPCHENKO,
     TONY SMITH, SAROM SOK LEANG, JIE SONG, TETSUYA TAKETSUGU, SIMON WEBB,
     PENG XU, SOOHAENG YOO, FEDERICO ZAHARIEV

  ADDITIONAL CODE HAS BEEN PROVIDED BY COLLABORATORS IN OTHER GROUPS:
     IOWA STATE UNIVERSITY:
          JOE IVANIC, AARON WEST, LAIMUTIS BYTAUTAS, KLAUS RUEDENBERG
     UNIVERSITY OF TOKYO: KIMIHIKO HIRAO, TAKAHITO NAKAJIMA,
          TAKAO TSUNEDA, MUNEAKI KAMIYA, SUSUMU YANAGISAWA,
          KIYOSHI YAGI, MAHITO CHIBA, SEIKEN TOKURA, NAOAKI KAWAKAMI
     UNIVERSITY OF AARHUS: FRANK JENSEN
     UNIVERSITY OF IOWA: VISVALDAS KAIRYS, HUI LI
     NATIONAL INST. OF STANDARDS AND TECHNOLOGY: WALT STEVENS, DAVID GARMER
     UNIVERSITY OF PISA: BENEDETTA MENNUCCI, JACOPO TOMASI
     UNIVERSITY OF MEMPHIS: HENRY KURTZ, PRAKASHAN KORAMBATH
     UNIVERSITY OF ALBERTA: TOBY ZENG, MARIUSZ KLOBUKOWSKI
     UNIVERSITY OF NEW ENGLAND: MARK SPACKMAN
     MIE UNIVERSITY: HIROAKI UMEDA
     NAT. INST. OF ADVANCED INDUSTRIAL SCIENCE AND TECHNOLOGY: KAZUO KITAURA
     MICHIGAN STATE UNIVERSITY:
          KAROL KOWALSKI, MARTA WLOCH, JEFFREY GOUR, JESSE LUTZ,
          WEI LI, PIOTR PIECUCH
     UNIVERSITY OF SILESIA: MONIKA MUSIAL, STANISLAW KUCHARSKI
     FACULTES UNIVERSITAIRES NOTRE-DAME DE LA PAIX:
          OLIVIER QUINET, BENOIT CHAMPAGNE
     UNIVERSITY OF CALIFORNIA - SANTA BARBARA: BERNARD KIRTMAN
     INSTITUTE FOR MOLECULAR SCIENCE:
          KAZUYA ISHIMURA, MICHIO KATOUDA, AND SHIGERU NAGASE
     UNIVERSITY OF NOTRE DAME: ANNA POMOGAEVA, DAN CHIPMAN
     KYUSHU UNIVERSITY:
          HARUYUKI NAKANO,
          FENG LONG GU, JACEK KORCHOWIEC, MARCIN MAKOWSKI, AND YURIKO AOKI,
          HIROTOSHI MORI AND EISAKU MIYOSHI
     PENNSYLVANIA STATE UNIVERSITY:
          TZVETELIN IORDANOV, CHET SWALINA, JONATHAN SKONE,
          SHARON HAMMES-SCHIFFER
     WASEDA UNIVERSITY:
          MASATO KOBAYASHI, TOMOKO AKAMA, TSUGUKI TOUMA,
          TAKESHI YOSHIKAWA, YASUHIRO IKABATA, JUNJI SEINO,
          YUYA NAKAJIMA, HIROMI NAKAI
     NANJING UNIVERSITY: SHUHUA LI
     UNIVERSITY OF NEBRASKA:
          PEIFENG SU, DEJUN SI, NANDUN THELLAMUREGE, YALI WANG, HUI LI
     UNIVERSITY OF ZURICH: ROBERTO PEVERATI, KIM BALDRIDGE
     N. COPERNICUS UNIVERSITY AND JACKSON STATE UNIVERSITY:
          MARIA BARYSZ
     UNIVERSITY OF COPENHAGEN: Jimmy Kromann, CASPER STEINMANN
     TOKYO INSTITUTE OF TECHNOLOGY: HIROYA NAKATA
     NAGOYA UNIVERSITY: YOSHIO NISHIMOTO, STEPHAN IRLE
     MOSCOW STATE UNIVERSITY: VLADIMIR MIRONOV

 EXECUTION OF GAMESS BEGUN Sun Sep 29 10:55:12 2019

            ECHO OF THE FIRST FEW INPUT CARDS -
 INPUT CARD> $BASIS GBASIS=PCSEG-1 $END                                                     
 INPUT CARD> $CONTRL COORD=ZMT ISPHER=1 RUNTYP=ENERGY DFTTYP=PBE MULT=1 $END                
 INPUT CARD>                                                                                
 INPUT CARD> $DATA                                                                          
 INPUT CARD>Title SO2 single-point calculation template with Z-Matrix                       
 INPUT CARD>C1                                                                              
 INPUT CARD>S                                                                               
 INPUT CARD>O 1 1.75                                                                        
 INPUT CARD>O 1 1.75 2 100                                                                  
 INPUT CARD> $END                                                                           
    1000000 WORDS OF MEMORY AVAILABLE

     BASIS OPTIONS
     -------------
     GBASIS=PCSEG-1      IGAUSS=       0      POLAR=NONE    
     NDFUNC=       0     NFFUNC=       0     DIFFSP=       F
     NPFUNC=       0      DIFFS=       F     BASNAM=        


     RUN TITLE
     ---------
 Title SO2 single-point calculation template with Z-Matrix                       

 THE POINT GROUP OF THE MOLECULE IS C1      
 THE ORDER OF THE PRINCIPAL AXIS IS     0

 YOUR FULLY SUBSTITUTED Z-MATRIX IS
 S   
 O      1   1.7500000
 O      1   1.7500000  2  100.0000

 THE MOMENTS OF INERTIA ARE (AMU-ANGSTROM**2)
 IXX=    20.234   IYY=    57.490   IZZ=    77.724

 ATOM      ATOMIC                      COORDINATES (BOHR)
           CHARGE         X                   Y                   Z
 S          16.0     0.0000000000       -1.0631508464        0.0000000000
 O           8.0     2.5333246608        1.0625609422        0.0000000000
 O           8.0    -2.5333246608        1.0625609422        0.0000000000

          INTERNUCLEAR DISTANCES (ANGS.)
          ------------------------------

                1 S          2 O          3 O     

   1 S       0.0000000    1.7500000 *  1.7500000 *
   2 O       1.7500000 *  0.0000000    2.6811556 *
   3 O       1.7500000 *  2.6811556 *  0.0000000  

  * ... LESS THAN  3.000


     ATOMIC BASIS SET
     ----------------
 THE CONTRACTED PRIMITIVE FUNCTIONS HAVE BEEN UNNORMALIZED
 THE CONTRACTED BASIS FUNCTIONS ARE NOW NORMALIZED TO UNITY

  SHELL TYPE  PRIMITIVE        EXPONENT          CONTRACTION COEFFICIENT(S)

 S         

      1   S       1         49299.4000000    0.000677492991
      1   S       2          7395.8400000    0.005232317766
      1   S       3          1683.3000000    0.026769459077
      1   S       4           476.1440000    0.102869580705
      1   S       5           154.3290000    0.286438127414
      1   S       6            55.0288000    0.454278639081
      1   S       7            20.5029000    0.271743121997

      2   S       8            45.9596000   -0.088421914560
      2   S       9             4.9274000    0.564350486135
      2   S      10             1.9179900    0.505415953466

      3   S      11             0.3684980    1.000000000000

      4   S      12             0.1291650    1.000000000000

      5   P      13           451.6620000    0.003707705453
      5   P      14           106.0980000    0.029219352245
      5   P      15            33.6996000    0.124444551509
      5   P      16            12.3054000    0.321808587656
      5   P      17             4.7141200    0.462822172957
      5   P      18             1.7810500    0.266513371364

      6   P      19             0.8722350    0.349265132972
      6   P      20             0.3102780    0.717115018770

      7   P      21             0.1001940    1.000000000000

      8   D      22             0.5500000    1.000000000000

 O         

      9   S      23          2288.6400000    0.005451138222
      9   S      24           344.4160000    0.040718922842
      9   S      25            78.2538000    0.181369420873
      9   S      26            21.7195000    0.465536820246
      9   S      27             6.5590700    0.451211321214

     10   S      28            10.4656000   -0.150211201174
     10   S      29             0.9643510    1.052867983385

     11   S      30             0.2851270    1.000000000000

     12   P      31            17.0590000    0.068749256972
     12   P      32             3.6899900    0.351671941499
     12   P      33             0.9929960    0.724532099722

     13   P      34             0.2449240    1.000000000000

     14   D      35             1.0000000    1.000000000000

 O         

     15   S      36          2288.6400000    0.005451138222
     15   S      37           344.4160000    0.040718922842
     15   S      38            78.2538000    0.181369420873
     15   S      39            21.7195000    0.465536820246
     15   S      40             6.5590700    0.451211321214

     16   S      41            10.4656000   -0.150211201174
     16   S      42             0.9643510    1.052867983385

     17   S      43             0.2851270    1.000000000000

     18   P      44            17.0590000    0.068749256972
     18   P      45             3.6899900    0.351671941499
     18   P      46             0.9929960    0.724532099722

     19   P      47             0.2449240    1.000000000000

     20   D      48             1.0000000    1.000000000000

 TOTAL NUMBER OF BASIS SET SHELLS             =   20
 NUMBER OF CARTESIAN GAUSSIAN BASIS FUNCTIONS =   49
 NOTE: THIS RUN WILL RESTRICT THE MO VARIATION SPACE TO SPHERICAL HARMONICS.
 THE NUMBER OF ORBITALS KEPT IN THE VARIATIONAL SPACE WILL BE PRINTED LATER.
 NUMBER OF ELECTRONS                          =   32
 CHARGE OF MOLECULE                           =    0
 SPIN MULTIPLICITY                            =    1
 NUMBER OF OCCUPIED ORBITALS (ALPHA)          =   16
 NUMBER OF OCCUPIED ORBITALS (BETA )          =   16
 TOTAL NUMBER OF ATOMS                        =    3
 THE NUCLEAR REPULSION ENERGY IS       90.0426940787

     LEBEDEV GRID-BASED DFT OPTIONS
     ------------------------------
     DFTTYP=PBE     
     NRAD  =      96     NLEB  =     302
     NRAD0 =      24     NLEB0 =     110
     SWOFF =    5.00E-03 (PURE SCF -> DFT)
     SWITCH=    3.00E-04 (COARSE -> TIGHT GRID)
     THRESH=    0.00E+00 GTHRE=    1.00E+00

 GRIMME'S EMPIRICAL DISPERSION CORRECTION= F

     $CONTRL OPTIONS
     ---------------
 SCFTYP=RHF          RUNTYP=ENERGY       EXETYP=RUN     
 MPLEVL=       0     CITYP =NONE         CCTYP =NONE         VBTYP =NONE    
 DFTTYP=PBE          TDDFT =NONE    
 MULT  =       1     ICHARG=       0     NZVAR =       0     COORD =ZMT     
 PP    =NONE         RELWFN=NONE         LOCAL =NONE         NUMGRD=       F
 ISPHER=       1     NOSYM =       0     MAXIT =      30     UNITS =ANGS    
 PLTORB=       F     MOLPLT=       F     AIMPAC=       F     FRIEND=        
 NPRINT=       7     IREST =       0     GEOM  =INPUT   
 NORMF =       0     NORMP =       0     ITOL  =      20     ICUT  =       9
 INTTYP=BEST         GRDTYP=BEST         QMTTOL= 1.0E-06

     $SYSTEM OPTIONS
     ---------------
  REPLICATED MEMORY=     1000000 WORDS (ON EVERY NODE).
 DISTRIBUTED MEMDDI=           0 MILLION WORDS IN AGGREGATE,
 MEMDDI DISTRIBUTED OVER   1 PROCESSORS IS           0 WORDS/PROCESSOR.
 TOTAL MEMORY REQUESTED ON EACH PROCESSOR=     1000000 WORDS.
 TIMLIM=      525600.00 MINUTES, OR     365.0 DAYS.
 PARALL= F  BALTYP=  DLB     KDIAG=    0  COREFL= F
 MXSEQ2=     300 MXSEQ3=     150  mem10=         0

          ----------------
          PROPERTIES INPUT
          ----------------

     MOMENTS            FIELD           POTENTIAL          DENSITY
 IEMOM =       1   IEFLD =       0   IEPOT =       0   IEDEN =       0
 WHERE =COMASS     WHERE =NUCLEI     WHERE =NUCLEI     WHERE =NUCLEI  
 OUTPUT=BOTH       OUTPUT=BOTH       OUTPUT=BOTH       OUTPUT=BOTH    
 IEMINT=       0   IEFINT=       0                     IEDINT=       0
                                                       MORB  =       0
          EXTRAPOLATION IN EFFECT
          DIIS IN EFFECT
 ORBITAL PRINTING OPTION: NPREO=     1    49     2     1

     -------------------------------
     INTEGRAL TRANSFORMATION OPTIONS
     -------------------------------
     NWORD  =            0
     CUTOFF = 1.0E-09     MPTRAN =       0
     DIRTRF =       F     AOINTS =DUP     

          ----------------------
          INTEGRAL INPUT OPTIONS
          ----------------------
 NOPK  =       1 NORDER=       0 SCHWRZ=       F

   --- ENCODED Z MATRIX ---
 COORD  TYPE   I   J   K   L   M   N
    1      1    2   1
    2      1    3   1
    3      2    3   1   2

 THE DETERMINANT OF THE G MATRIX IS 10**(    -4)

 THE DETERMINANT OF THE G MATRIX IS 10**(    -4)
 * * * WARNING * * *
 YOUR B MATRIX HAS A SMALL DETERMINANT.
 THIS SUGGESTS YOU MAY HAVE BADLY CHOSEN COORDINATES.

     ------------------------------------------
     THE POINT GROUP IS C1 , NAXIS= 0, ORDER= 1
     ------------------------------------------

 -- VARIATIONAL SPACE WILL BE RESTRICTED TO PURE SPHERICAL HARMONICS ONLY --
 AFTER EXCLUDING CONTAMINANT COMBINATIONS FROM THE CARTESIAN GAUSSIAN BASIS
 SET, THE NUMBER OF SPHERICAL HARMONICS KEPT IN THE VARIATION SPACE IS   46

     DIMENSIONS OF THE SYMMETRY SUBSPACES ARE
 A   =   46

 ..... DONE SETTING UP THE RUN .....
 STEP CPU TIME =     0.04 TOTAL CPU TIME =          0.0 (      0.0 MIN)
 TOTAL WALL CLOCK TIME=          0.0 SECONDS, CPU UTILIZATION IS   100.00%

          ********************
          1 ELECTRON INTEGRALS
          ********************
 ...... END OF ONE-ELECTRON INTEGRALS ......
 STEP CPU TIME =     0.00 TOTAL CPU TIME =          0.0 (      0.0 MIN)
 TOTAL WALL CLOCK TIME=          0.0 SECONDS, CPU UTILIZATION IS   100.00%

          -------------
          GUESS OPTIONS
          -------------
          GUESS =HUCKEL            NORB  =       0          NORDER=       0
          MIX   =       F          PRTMO =       F          PUNMO =       F
          TOLZ  = 1.0E-08          TOLE  = 1.0E-05
          SYMDEN=       F          PURIFY=       F

 INITIAL GUESS ORBITALS GENERATED BY HUCKEL   ROUTINE.
 HUCKEL GUESS REQUIRES     21634 WORDS.

 STATISTICS FOR GENERATION OF SYMMETRY ORBITAL -Q- MATRIX
 NUMBER OF CARTESIAN ATOMIC ORBITALS=         49
 NUMBER OF SPHERICAL CONTAMINANTS DROPPED=     3
 NUMBER OF LINEARLY DEPENDENT MOS DROPPED=     0
 TOTAL NUMBER OF MOS IN VARIATION SPACE=      46

 SYMMETRIES FOR INITIAL GUESS ORBITALS FOLLOW.   BOTH SET(S).
    16 ORBITALS ARE OCCUPIED (    7 CORE ORBITALS).
     8=A        9=A       10=A       11=A       12=A       13=A       14=A   
    15=A       16=A       17=A       18=A       19=A       20=A       21=A   
    22=A       23=A       24=A       25=A       26=A   
 ...... END OF INITIAL ORBITAL SELECTION ......
 STEP CPU TIME =     0.01 TOTAL CPU TIME =          0.0 (      0.0 MIN)
 TOTAL WALL CLOCK TIME=          0.0 SECONDS, CPU UTILIZATION IS   100.00%

                    ----------------------
                    AO INTEGRAL TECHNOLOGY
                    ----------------------
     S,P,L SHELL ROTATED AXIS INTEGRALS, REPROGRAMMED BY
        KAZUYA ISHIMURA (IMS) AND JOSE SIERRA (SYNSTAR).
     S,P,D,L SHELL ROTATED AXIS INTEGRALS PROGRAMMED BY
        KAZUYA ISHIMURA (INSTITUTE FOR MOLECULAR SCIENCE).
     S,P,D,F,G SHELL TO TOTAL QUARTET ANGULAR MOMENTUM SUM 5,
        ERIC PROGRAM BY GRAHAM FLETCHER (ELORET AND NASA ADVANCED
        SUPERCOMPUTING DIVISION, AMES RESEARCH CENTER).
     S,P,D,F,G,L SHELL GENERAL RYS QUADRATURE PROGRAMMED BY
        MICHEL DUPUIS (PACIFIC NORTHWEST NATIONAL LABORATORY).

          --------------------
          2 ELECTRON INTEGRALS
          --------------------

 THE -PK- OPTION IS OFF, THE INTEGRALS ARE NOT IN SUPERMATRIX FORM.
 STORING   15000 INTEGRALS/RECORD ON DISK, USING 12 BYTES/INTEGRAL.
 TWO ELECTRON INTEGRAL EVALUATION REQUIRES   90606 WORDS OF MEMORY.
 II,JST,KST,LST =  1  1  1  1 NREC =         1 INTLOC =    1
 II,JST,KST,LST =  2  1  1  1 NREC =         1 INTLOC =    2
 II,JST,KST,LST =  3  1  1  1 NREC =         1 INTLOC =    7
 II,JST,KST,LST =  4  1  1  1 NREC =         1 INTLOC =   22
 II,JST,KST,LST =  5  1  1  1 NREC =         1 INTLOC =   56
 II,JST,KST,LST =  6  1  1  1 NREC =         1 INTLOC =  125
 II,JST,KST,LST =  7  1  1  1 NREC =         1 INTLOC =  329
 II,JST,KST,LST =  8  1  1  1 NREC =         1 INTLOC =  776
 II,JST,KST,LST =  9  1  1  1 NREC =         1 INTLOC = 2864
 II,JST,KST,LST = 10  1  1  1 NREC =         1 INTLOC = 4793
 II,JST,KST,LST = 11  1  1  1 NREC =         1 INTLOC = 7440
 II,JST,KST,LST = 12  1  1  1 NREC =         1 INTLOC =10542
 II,JST,KST,LST = 13  1  1  1 NREC =         2 INTLOC = 6352
 II,JST,KST,LST = 14  1  1  1 NREC =         3 INTLOC = 6556
 II,JST,KST,LST = 15  1  1  1 NREC =         6 INTLOC = 8251
 II,JST,KST,LST = 16  1  1  1 NREC =         6 INTLOC =14932
 II,JST,KST,LST = 17  1  1  1 NREC =         7 INTLOC =11318
 II,JST,KST,LST = 18  1  1  1 NREC =         8 INTLOC = 9633
 II,JST,KST,LST = 19  1  1  1 NREC =        11 INTLOC = 3731
 II,JST,KST,LST = 20  1  1  1 NREC =        14 INTLOC =10510
 TOTAL NUMBER OF NONZERO TWO-ELECTRON INTEGRALS =              335119
         23 INTEGRAL RECORDS WERE STORED ON DISK FILE  8.
  ...... END OF TWO-ELECTRON INTEGRALS .....
 STEP CPU TIME =     0.09 TOTAL CPU TIME =          0.1 (      0.0 MIN)
 TOTAL WALL CLOCK TIME=          0.1 SECONDS, CPU UTILIZATION IS    93.33%

          --------------------------
               R-PBE SCF CALCULATION
          --------------------------

     NUCLEAR ENERGY =        90.0426940787
     MAXIT =   30     NPUNCH=    2
     EXTRAP=T  DAMP=F  SHIFT=F  RSTRCT=F  DIIS=T  DEM=F  SOSCF=F
         DENSITY MATRIX CONVERGENCE THRESHOLD=  1.00E-05
     COARSE -> FINE DFT GRID SWITCH THRESHOLD=  3.00E-04 (SWITCH IN $DFT)
                   HF -> DFT SWITCH THRESHOLD=  5.00E-03 (SWOFF IN $DFT)
     MEMORY REQUIRED FOR RHF ITERS=    183108 WORDS.

 DFT CODE IS SWITCHING FROM THE FINE GRID NRAD= 96,  NLEB=  302
                      TO THE COARSE GRID NRAD0= 24, NLEB0=  110

     EXCHANGE FUNCTIONAL   =PBE       
     CORRELATION FUNCTIONAL=PBE       
     DFT THRESHOLD         =.460E-07
     GRID CHANGE THRESHOLD =.300E-03
 FOR AN EULER-MACLAURIN QUADRATURE USING  96 RADIAL POINTS:
 SMALLEST GAUSSIAN PRIMITIVE EXPONENT=        0.1001940000 OF TYPE -P-
 ON ATOM NUMBER   1 HAS RADIAL NORMALIZATION=  1.000000
  LARGEST GAUSSIAN PRIMITIVE EXPONENT=    49299.4000000000 OF TYPE -S-
 ON ATOM NUMBER   1 HAS RADIAL NORMALIZATION=  1.000000
 DFT IS SWITCHED OFF, PERFORMING PURE SCF UNTIL SWOFF THRESHOLD IS REACHED.

 ITER EX DEM     TOTAL ENERGY        E CHANGE  DENSITY CHANGE    DIIS ERROR
   1  0  0     -545.8948751250  -545.8948751250   0.844379126   0.904720848
          * * *   INITIATING DIIS PROCEDURE   * * *
   2  1  0     -546.2004762445    -0.3056011195   0.970377319   0.415042882
   3  2  0     -546.0100274381     0.1904488064   0.417825942   0.507477683
   4  3  0     -546.9277283725    -0.9177009344   0.045523138   0.013150188
   5  4  0     -546.9301166630    -0.0023882906   0.015837235   0.011944362
   6  5  0     -546.9307779348    -0.0006612717   0.010406555   0.004446901
   7  6  0     -546.9309924494    -0.0002145146   0.005672987   0.001171997
   8  7  0     -546.9310375884    -0.0000451391   0.004813082   0.000900883
 CONVERGED TO SWOFF, SO DFT CALCULATION IS NOW SWITCHED ON.
          * * *   INITIATING DIIS PROCEDURE   * * *
   9  8  0     -548.1019752386    -1.1709376502   0.558632262   0.099284007
  10  9  0     -548.0644812445     0.0374939941   0.500960184   0.173614835
  11 10  0     -548.0734364931    -0.0089552486   0.157632935   0.177613772
  12 11  0     -548.1521061337    -0.0786696406   0.033544089   0.015522973
  13 12  0     -548.1531276456    -0.0010215119   0.002763456   0.002072937
  14 13  0     -548.1531391112    -0.0000114656   0.001533035   0.000627725
  15 14  0     -548.1531348535     0.0000042577   0.001241937   0.001953527
  16 15  0     -548.1531402238    -0.0000053703   0.000076295   0.000097715
 DFT CODE IS SWITCHING BACK TO THE FINE GRID
          * * *   INITIATING DIIS PROCEDURE   * * *
  17 16  0     -548.1638210993    -0.0106808755   0.023960369   0.014606546
  18 17  0     -548.1639489759    -0.0001278766   0.041293320   0.010009672
  19 18  0     -548.1629524355     0.0009965404   0.029531987   0.022753367
  20 19  0     -548.1642349545    -0.0012825190   0.000507336   0.000704477
  21 20  0     -548.1642359950    -0.0000010405   0.000951173   0.000221120
  22 21  0     -548.1642337091     0.0000022859   0.000804888   0.001310965
  23 22  0     -548.1642361154    -0.0000024063   0.000067666   0.000021319
  24 23  0     -548.1642361176    -0.0000000022   0.000013335   0.000008655
  25 24  0     -548.1642361177    -0.0000000001   0.000000380   0.000000286
  26 25  0     -548.1642361177    -0.0000000000   0.000000032   0.000000022

          -----------------
          DENSITY CONVERGED
          -----------------
     TIME TO FORM FOCK OPERATORS=       2.7 SECONDS (       0.1 SEC/ITER)
     TIME TO SOLVE SCF EQUATIONS=       0.0 SECONDS (       0.0 SEC/ITER)

 FINAL R-PBE ENERGY IS     -548.1642361177 AFTER  26 ITERATIONS
 DFT EXCHANGE + CORRELATION ENERGY =       -42.2185308217
 TOTAL ELECTRON NUMBER             =        32.0000061025

          ------------
          EIGENVECTORS
          ------------

                      1          2          3          4          5
                  -88.2287   -18.8188   -18.8188    -7.8444    -5.8702
                     A          A          A          A          A   
    1  S  1  S    0.997765  -0.000003  -0.000000  -0.308407  -0.000000
    2  S  1  S    0.008191  -0.000015  -0.000000   1.031846   0.000000
    3  S  1  S   -0.002820  -0.001549  -0.000005   0.027592   0.000000
    4  S  1  S    0.001184   0.007424   0.000023  -0.006165  -0.000000
    5  S  1  X   -0.000000   0.000000  -0.000149  -0.000000   0.994755
    6  S  1  Y    0.000097  -0.000201  -0.000001   0.007329  -0.000002
    7  S  1  Z    0.000000   0.000000   0.000000   0.000000   0.000000
    8  S  1  X    0.000000  -0.000004   0.001303  -0.000000   0.016812
    9  S  1  Y   -0.000196   0.001404   0.000004   0.000690  -0.000000
   10  S  1  Z    0.000000   0.000000   0.000000   0.000000   0.000000
   11  S  1  X    0.000000  -0.000009   0.002746  -0.000000  -0.002779
   12  S  1  Y    0.000088   0.003613   0.000011  -0.000181   0.000000
   13  S  1  Z    0.000000   0.000000   0.000000   0.000000   0.000000
   14  S  1 XX   -0.000053   0.000629   0.000002   0.000314  -0.000000
   15  S  1 YY   -0.000008   0.000384   0.000001  -0.000023  -0.000000
   16  S  1 ZZ    0.000061  -0.001014  -0.000003  -0.000291   0.000000
   17  S  1 XY    0.000000  -0.000003   0.000964  -0.000000   0.000989
   18  S  1 XZ    0.000000   0.000000   0.000000   0.000000   0.000000
   19  S  1 YZ    0.000000   0.000000   0.000000   0.000000   0.000000
   20  O  2  S   -0.000004   0.700138   0.704530   0.000027  -0.000027
   21  O  2  S   -0.000058   0.023595   0.023200   0.000011  -0.000022
   22  O  2  S    0.000010  -0.011416  -0.009562  -0.000017  -0.000546
   23  O  2  X    0.000013  -0.000634  -0.000646   0.000135   0.000069
   24  O  2  Y    0.000019  -0.000533  -0.000596   0.000092   0.000106
   25  O  2  Z    0.000000   0.000000   0.000000   0.000000   0.000000
   26  O  2  X   -0.000144   0.002340   0.001396   0.000486   0.000779
   27  O  2  Y   -0.000149   0.001436   0.001504   0.000483   0.000698
   28  O  2  Z    0.000000   0.000000   0.000000   0.000000   0.000000
   29  O  2 XX    0.000058  -0.000174  -0.000096  -0.000164   0.000089
   30  O  2 YY    0.000020   0.000026  -0.000082  -0.000061  -0.000114
   31  O  2 ZZ   -0.000078   0.000149   0.000178   0.000224   0.000025
   32  O  2 XY    0.000134  -0.000260  -0.000219  -0.000384  -0.000063
   33  O  2 XZ    0.000000   0.000000   0.000000   0.000000   0.000000
   34  O  2 YZ    0.000000   0.000000   0.000000   0.000000   0.000000
   35  O  3  S   -0.000004   0.704547  -0.700121   0.000027   0.000027
   36  O  3  S   -0.000058   0.023740  -0.023052   0.000011   0.000022
   37  O  3  S    0.000010  -0.011476   0.009490  -0.000017   0.000546
   38  O  3  X   -0.000013   0.000638  -0.000642  -0.000135   0.000069
   39  O  3  Y    0.000019  -0.000536   0.000592   0.000092  -0.000106
   40  O  3  Z    0.000000   0.000000   0.000000   0.000000   0.000000
   41  O  3  X    0.000144  -0.002348   0.001382  -0.000486   0.000779
   42  O  3  Y   -0.000149   0.001445  -0.001494   0.000483  -0.000698
   43  O  3  Z    0.000000   0.000000   0.000000   0.000000   0.000000
   44  O  3 XX    0.000058  -0.000175   0.000095  -0.000164  -0.000089
   45  O  3 YY    0.000020   0.000025   0.000083  -0.000061   0.000114
   46  O  3 ZZ   -0.000078   0.000150  -0.000177   0.000224  -0.000025
   47  O  3 XY   -0.000134   0.000262  -0.000217   0.000384  -0.000063
   48  O  3 XZ    0.000000   0.000000   0.000000   0.000000   0.000000
   49  O  3 YZ    0.000000   0.000000   0.000000   0.000000   0.000000

                      6          7          8          9         10
                   -5.8681    -5.8663    -0.9373    -0.8761    -0.6472
                     A          A          A          A          A   
    1  S  1  S    0.000000   0.002247   0.043303   0.000000   0.074961
    2  S  1  S    0.000000  -0.007668  -0.268494  -0.000001  -0.477657
    3  S  1  S    0.000000  -0.000738   0.383469   0.000003   0.723788
    4  S  1  S    0.000000   0.001733   0.090063  -0.000005   0.276047
    5  S  1  X    0.000000   0.000002   0.000000  -0.075290   0.000000
    6  S  1  Y    0.000000   0.994842  -0.049832   0.000000   0.036444
    7  S  1  Z    0.994978   0.000000   0.000000   0.000000   0.000000
    8  S  1  X    0.000000   0.000000  -0.000000   0.172775   0.000000
    9  S  1  Y    0.000000   0.016359   0.111803  -0.000000  -0.087558
   10  S  1  Z    0.015879   0.000000   0.000000   0.000000   0.000000
   11  S  1  X    0.000000  -0.000000   0.000002   0.001883  -0.000001
   12  S  1  Y    0.000000  -0.002566  -0.009888  -0.000003  -0.036214
   13  S  1  Z   -0.003178   0.000000   0.000000   0.000000   0.000000
   14  S  1 XX    0.000000   0.000060   0.019208  -0.000000  -0.005337
   15  S  1 YY    0.000000   0.000488   0.005155  -0.000000  -0.005491
   16  S  1 ZZ    0.000000  -0.000548  -0.024363   0.000000   0.010828
   17  S  1 XY    0.000000   0.000000   0.000000   0.052058  -0.000000
   18  S  1 XZ   -0.000000   0.000000   0.000000   0.000000   0.000000
   19  S  1 YZ    0.000307   0.000000   0.000000   0.000000   0.000000
   20  O  2  S    0.000000  -0.000024  -0.143126  -0.170389   0.102621
   21  O  2  S    0.000000   0.000069   0.293287   0.355010  -0.218987
   22  O  2  S    0.000000  -0.000776   0.290722   0.355879  -0.261736
   23  O  2  X    0.000000   0.000080  -0.065717  -0.047376  -0.067192
   24  O  2  Y    0.000000   0.000028  -0.052602  -0.049628  -0.065319
   25  O  2  Z   -0.000056   0.000000   0.000000   0.000000   0.000000
   26  O  2  X    0.000000   0.000772  -0.030694  -0.020677  -0.030999
   27  O  2  Y    0.000000   0.000489  -0.025490  -0.023347  -0.028677
   28  O  2  Z   -0.000021   0.000000   0.000000   0.000000   0.000000
   29  O  2 XX    0.000000  -0.000141   0.003515   0.000922   0.001667
   30  O  2 YY    0.000000   0.000162   0.000380   0.000701   0.001915
   31  O  2 ZZ    0.000000  -0.000021  -0.003895  -0.001622  -0.003582
   32  O  2 XY    0.000000   0.000067   0.010351   0.008433   0.003708
   33  O  2 XZ    0.000159   0.000000   0.000000   0.000000   0.000000
   34  O  2 YZ    0.000130   0.000000   0.000000   0.000000   0.000000
   35  O  3  S    0.000000  -0.000024  -0.143127   0.170388   0.102621
   36  O  3  S    0.000000   0.000069   0.293288  -0.355011  -0.218987
   37  O  3  S    0.000000  -0.000776   0.290727  -0.355871  -0.261737
   38  O  3  X    0.000000  -0.000080   0.065717  -0.047376   0.067192
   39  O  3  Y    0.000000   0.000028  -0.052602   0.049628  -0.065319
   40  O  3  Z   -0.000056   0.000000   0.000000   0.000000   0.000000
   41  O  3  X    0.000000  -0.000772   0.030695  -0.020674   0.030999
   42  O  3  Y    0.000000   0.000489  -0.025492   0.023345  -0.028676
   43  O  3  Z   -0.000021   0.000000   0.000000   0.000000   0.000000
   44  O  3 XX    0.000000  -0.000141   0.003515  -0.000921   0.001667
   45  O  3 YY    0.000000   0.000162   0.000380  -0.000701   0.001914
   46  O  3 ZZ    0.000000  -0.000021  -0.003895   0.001622  -0.003582
   47  O  3 XY    0.000000  -0.000067  -0.010351   0.008433  -0.003708
   48  O  3 XZ   -0.000159   0.000000   0.000000   0.000000   0.000000
   49  O  3 YZ    0.000130   0.000000   0.000000   0.000000   0.000000

                     11         12         13         14         15
                   -0.4208    -0.4042    -0.3890    -0.2961    -0.2904
                     A          A          A          A          A   
    1  S  1  S    0.000000  -0.010931   0.000000   0.000000   0.012009
    2  S  1  S   -0.000000   0.069358   0.000000   0.000000  -0.078182
    3  S  1  S    0.000000  -0.074370   0.000000   0.000000   0.104658
    4  S  1  S    0.000000  -0.203714   0.000000   0.000000   0.183357
    5  S  1  X   -0.197870  -0.000000   0.000000   0.000000  -0.000000
    6  S  1  Y    0.000000  -0.219076   0.000000   0.000000   0.052391
    7  S  1  Z    0.000000   0.000000  -0.226902   0.000000   0.000000
    8  S  1  X    0.534301   0.000001   0.000000   0.000000   0.000000
    9  S  1  Y   -0.000001   0.592302   0.000000   0.000000  -0.144475
   10  S  1  Z    0.000000   0.000000   0.619904  -0.000001   0.000000
   11  S  1  X    0.069899   0.000001   0.000000   0.000000   0.000002
   12  S  1  Y   -0.000000   0.112737   0.000000   0.000000   0.005719
   13  S  1  Z    0.000000   0.000000   0.197912  -0.000000   0.000000
   14  S  1 XX   -0.000000  -0.007089   0.000000   0.000000  -0.094375
   15  S  1 YY   -0.000000   0.029297   0.000000   0.000000   0.065751
   16  S  1 ZZ    0.000000  -0.022208   0.000000   0.000000   0.028624
   17  S  1 XY    0.045730   0.000000   0.000000   0.000000  -0.000000
   18  S  1 XZ    0.000000   0.000000  -0.000000  -0.074259   0.000000
   19  S  1 YZ    0.000000   0.000000   0.032948   0.000000   0.000000
   20  O  2  S    0.057187   0.037580   0.000000   0.000000  -0.001468
   21  O  2  S   -0.122149  -0.082396   0.000000   0.000000   0.005910
   22  O  2  S   -0.184685  -0.112553   0.000000   0.000000  -0.019733
   23  O  2  X   -0.206519  -0.299258   0.000000   0.000000  -0.126022
   24  O  2  Y   -0.275761  -0.052652   0.000000   0.000000   0.441175
   25  O  2  Z    0.000000   0.000000   0.275768  -0.476953   0.000000
   26  O  2  X   -0.116138  -0.186317   0.000000   0.000000  -0.092545
   27  O  2  Y   -0.158938  -0.029456   0.000000   0.000000   0.321949
   28  O  2  Z    0.000000   0.000000   0.172860  -0.337709   0.000000
   29  O  2 XX    0.000103   0.012193   0.000000   0.000000   0.009236
   30  O  2 YY    0.006761  -0.006307   0.000000   0.000000  -0.012232
   31  O  2 ZZ   -0.006864  -0.005886   0.000000   0.000000   0.002996
   32  O  2 XY    0.010435   0.006959   0.000000   0.000000  -0.007282
   33  O  2 XZ    0.000000   0.000000  -0.011403   0.009730   0.000000
   34  O  2 YZ    0.000000   0.000000  -0.009531   0.010214   0.000000
   35  O  3  S   -0.057187   0.037580   0.000000   0.000000  -0.001468
   36  O  3  S    0.122148  -0.082397   0.000000   0.000000   0.005909
   37  O  3  S    0.184686  -0.112551   0.000000   0.000000  -0.019731
   38  O  3  X   -0.206520   0.299258   0.000000   0.000000   0.126029
   39  O  3  Y    0.275762  -0.052651   0.000000   0.000000   0.441178
   40  O  3  Z    0.000000   0.000000   0.275769   0.476953   0.000000
   41  O  3  X   -0.116138   0.186318   0.000000   0.000000   0.092550
   42  O  3  Y    0.158938  -0.029456   0.000000   0.000000   0.321951
   43  O  3  Z    0.000000   0.000000   0.172860   0.337709   0.000000
   44  O  3 XX   -0.000103   0.012193   0.000000   0.000000   0.009237
   45  O  3 YY   -0.006761  -0.006307   0.000000   0.000000  -0.012232
   46  O  3 ZZ    0.006864  -0.005886   0.000000   0.000000   0.002996
   47  O  3 XY    0.010435  -0.006959   0.000000   0.000000   0.007282
   48  O  3 XZ    0.000000   0.000000   0.011403   0.009730   0.000000
   49  O  3 YZ    0.000000   0.000000  -0.009531  -0.010214   0.000000

                     16         17         18         19         20
                   -0.2686    -0.2269    -0.1109    -0.0815     0.2143
                     A          A          A          A          A   
    1  S  1  S   -0.000000   0.000000  -0.000000   0.031958   0.015186
    2  S  1  S    0.000001   0.000000   0.000002  -0.215630  -0.110737
    3  S  1  S   -0.000002   0.000000  -0.000004   0.378758   0.346264
    4  S  1  S    0.000002   0.000000  -0.000005   0.350946  -0.219607
    5  S  1  X   -0.018316   0.000000  -0.224617  -0.000003  -0.000007
    6  S  1  Y   -0.000000   0.000000   0.000002  -0.201463   0.255904
    7  S  1  Z    0.000000  -0.207828   0.000000   0.000000   0.000000
    8  S  1  X    0.049485   0.000000   0.675638   0.000010   0.000027
    9  S  1  Y    0.000001   0.000000  -0.000007   0.614847  -0.999955
   10  S  1  Z    0.000000   0.602965   0.000000   0.000000   0.000000
   11  S  1  X    0.129729   0.000000   0.539893   0.000002  -0.000037
   12  S  1  Y    0.000002   0.000000  -0.000006   0.525366   1.346010
   13  S  1  Z    0.000000   0.232846   0.000000   0.000000   0.000000
   14  S  1 XX    0.000001   0.000000   0.000000  -0.063409   0.089310
   15  S  1 YY   -0.000000   0.000000   0.000000  -0.067919  -0.086640
   16  S  1 ZZ   -0.000000   0.000000  -0.000001   0.131328  -0.002670
   17  S  1 XY   -0.067262   0.000000  -0.159919  -0.000001   0.000001
   18  S  1 XZ    0.000000  -0.000000   0.000000   0.000000   0.000000
   19  S  1 YZ    0.000000  -0.056353   0.000000   0.000000   0.000000
   20  O  2  S    0.004504   0.000000   0.035087   0.043986   0.004563
   21  O  2  S   -0.008446   0.000000  -0.068690  -0.086376   0.037818
   22  O  2  S   -0.046836   0.000000  -0.266523  -0.309250  -0.281042
   23  O  2  X    0.418543   0.000000   0.103411   0.355106  -0.100667
   24  O  2  Y   -0.243247   0.000000   0.334325   0.135038  -0.088077
   25  O  2  Z    0.000000  -0.397943   0.000000   0.000000   0.000000
   26  O  2  X    0.287534   0.000000   0.095266   0.337570   0.073936
   27  O  2  Y   -0.160799   0.000000   0.284211   0.110753  -0.087639
   28  O  2  Z    0.000000  -0.302930   0.000000   0.000000   0.000000
   29  O  2 XX   -0.010761   0.000000  -0.002231   0.002379  -0.017280
   30  O  2 YY    0.010132   0.000000   0.003414  -0.004047   0.008644
   31  O  2 ZZ    0.000630   0.000000  -0.001183   0.001668   0.008637
   32  O  2 XY   -0.003143   0.000000   0.000131   0.000781  -0.008990
   33  O  2 XZ    0.000000   0.002914   0.000000   0.000000   0.000000
   34  O  2 YZ    0.000000   0.001791   0.000000   0.000000   0.000000
   35  O  3  S   -0.004504   0.000000  -0.035087   0.043986   0.004564
   36  O  3  S    0.008446   0.000000   0.068688  -0.086377   0.037814
   37  O  3  S    0.046833   0.000000   0.266534  -0.309244  -0.281056
   38  O  3  X    0.418540   0.000000   0.103417  -0.355105   0.100674
   39  O  3  Y    0.243241   0.000000  -0.334328   0.135030  -0.088081
   40  O  3  Z    0.000000  -0.397943   0.000000   0.000000   0.000000
   41  O  3  X    0.287531   0.000000   0.095275  -0.337566  -0.073930
   42  O  3  Y    0.160795   0.000000  -0.284214   0.110748  -0.087636
   43  O  3  Z    0.000000  -0.302929   0.000000   0.000000   0.000000
   44  O  3 XX    0.010761   0.000000   0.002231   0.002379  -0.017280
   45  O  3 YY   -0.010131   0.000000  -0.003414  -0.004047   0.008643
   46  O  3 ZZ   -0.000630   0.000000   0.001183   0.001668   0.008637
   47  O  3 XY   -0.003142   0.000000   0.000131  -0.000781   0.008991
   48  O  3 XZ    0.000000  -0.002914   0.000000   0.000000   0.000000
   49  O  3 YZ    0.000000   0.001790   0.000000   0.000000   0.000000

                     21         22         23         24         25
                    0.2158     0.2244     0.2500     0.4772     0.4774
                     A          A          A          A          A   
    1  S  1  S    0.000000   0.000002  -0.062178  -0.000044   0.000000
    2  S  1  S    0.000000  -0.000013   0.461813   0.000294   0.000000
    3  S  1  S    0.000000   0.000050  -1.876959   0.006420   0.000000
    4  S  1  S    0.000000  -0.000060   2.268519  -0.036494   0.000000
    5  S  1  X    0.000000   0.258255   0.000005  -0.000000   0.000000
    6  S  1  Y    0.000000   0.000006   0.010379   0.033747   0.000000
    7  S  1  Z    0.253409   0.000000   0.000000   0.000000  -0.000000
    8  S  1  X    0.000000  -1.012663  -0.000019   0.000001   0.000000
    9  S  1  Y    0.000000  -0.000026  -0.047540  -0.138900   0.000000
   10  S  1  Z   -1.002358   0.000000   0.000000   0.000000   0.000000
   11  S  1  X    0.000000   1.445812   0.000032  -0.000001   0.000000
   12  S  1  Y    0.000000   0.000020   0.596180   0.084771   0.000000
   13  S  1  Z    1.300146   0.000000   0.000000   0.000000  -0.000000
   14  S  1 XX    0.000000   0.000003  -0.083760  -0.629415   0.000000
   15  S  1 YY    0.000000  -0.000001  -0.092104   0.779673   0.000000
   16  S  1 ZZ    0.000000  -0.000001   0.175863  -0.150258   0.000000
   17  S  1 XY    0.000000  -0.002682   0.000002   0.000000   0.000000
   18  S  1 XZ    0.000000   0.000000   0.000000   0.000000   0.899644
   19  S  1 YZ   -0.092370   0.000000   0.000000   0.000000  -0.000004
   20  O  2  S    0.000000   0.010132   0.033113  -0.000924   0.000000
   21  O  2  S    0.000000   0.025495  -0.047047  -0.006161   0.000000
   22  O  2  S    0.000000  -0.380715  -0.497056   0.012513   0.000000
   23  O  2  X    0.000000  -0.181956  -0.070331   0.219982   0.000000
   24  O  2  Y    0.000000  -0.069137  -0.090364  -0.289927   0.000000
   25  O  2  Z   -0.055533   0.000000   0.000000   0.000000  -0.282744
   26  O  2  X    0.000000  -0.055415   0.219176  -0.140655   0.000000
   27  O  2  Y    0.000000   0.077262   0.105838   0.126575   0.000000
   28  O  2  Z   -0.130620   0.000000   0.000000   0.000000   0.151562
   29  O  2 XX    0.000000  -0.005286  -0.016294   0.048586   0.000000
   30  O  2 YY    0.000000  -0.007831  -0.006448  -0.046796   0.000000
   31  O  2 ZZ    0.000000   0.013117   0.022742  -0.001789   0.000000
   32  O  2 XY    0.000000  -0.023510  -0.029468  -0.017217   0.000000
   33  O  2 XZ    0.009899   0.000000   0.000000   0.000000  -0.030369
   34  O  2 YZ    0.006495   0.000000   0.000000   0.000000  -0.039763
   35  O  3  S    0.000000  -0.010132   0.033113  -0.000924   0.000000
   36  O  3  S    0.000000  -0.025501  -0.047058  -0.006162   0.000000
   37  O  3  S    0.000000   0.380735  -0.497029   0.012513   0.000000
   38  O  3  X    0.000000  -0.181959   0.070320  -0.219982   0.000000
   39  O  3  Y    0.000000   0.069136  -0.090362  -0.289927   0.000000
   40  O  3  Z   -0.055534   0.000000   0.000000   0.000000   0.282746
   41  O  3  X    0.000000  -0.055403  -0.219172   0.140655   0.000000
   42  O  3  Y    0.000000  -0.077274   0.105832   0.126575   0.000000
   43  O  3  Z   -0.130620   0.000000   0.000000   0.000000  -0.151564
   44  O  3 XX    0.000000   0.005286  -0.016294   0.048586   0.000000
   45  O  3 YY    0.000000   0.007832  -0.006448  -0.046796   0.000000
   46  O  3 ZZ    0.000000  -0.013117   0.022742  -0.001789   0.000000
   47  O  3 XY    0.000000  -0.023511   0.029467   0.017217   0.000000
   48  O  3 XZ   -0.009899   0.000000   0.000000   0.000000  -0.030370
   49  O  3 YZ    0.006495   0.000000   0.000000   0.000000   0.039764

                     26         27         28         29         30
                    0.4846     0.6005     0.6688     0.7788     0.8110
                     A          A          A          A          A   
    1  S  1  S    0.000000   0.006309   0.000000   0.011051   0.000000
    2  S  1  S    0.000000  -0.051230   0.000000  -0.089498   0.000000
    3  S  1  S    0.000000   0.360978   0.000001   0.319188   0.000000
    4  S  1  S    0.000000  -0.829740  -0.000005   0.151937   0.000000
    5  S  1  X    0.000000   0.000000  -0.061610   0.000000   0.000000
    6  S  1  Y    0.000000   0.040403   0.000000  -0.037931   0.000000
    7  S  1  Z    0.024426   0.000000   0.000000   0.000000  -0.000000
    8  S  1  X    0.000000  -0.000001   0.276012  -0.000000   0.000000
    9  S  1  Y    0.000000  -0.159603  -0.000001   0.235427   0.000000
   10  S  1  Z   -0.099357   0.000000   0.000000   0.000000   0.000000
   11  S  1  X    0.000000  -0.000002   0.290127   0.000001   0.000000
   12  S  1  Y    0.000000  -0.302158  -0.000002   0.208998   0.000000
   13  S  1  Z    0.058255   0.000000   0.000000   0.000000  -0.000001
   14  S  1 XX    0.000000  -0.623388   0.000000  -0.405601   0.000000
   15  S  1 YY    0.000000  -0.334696  -0.000001   0.363915   0.000000
   16  S  1 ZZ    0.000000   0.958084   0.000001   0.041686   0.000000
   17  S  1 XY    0.000000  -0.000002   0.962192   0.000002   0.000000
   18  S  1 XZ    0.000004   0.000000   0.000000   0.000000   0.450649
   19  S  1 YZ    0.908139   0.000000   0.000000   0.000000  -0.000000
   20  O  2  S    0.000000  -0.062271   0.072671   0.017132   0.000000
   21  O  2  S    0.000000   0.274253  -0.329038  -0.088929   0.000000
   22  O  2  S    0.000000   0.132512  -0.046204  -0.033706   0.000000
   23  O  2  X    0.000000   0.000667  -0.032155  -0.570296   0.000000
   24  O  2  Y    0.000000  -0.018655  -0.040715   0.047657   0.000000
   25  O  2  Z   -0.267039   0.000000   0.000000   0.000000   0.584167
   26  O  2  X    0.000000  -0.301924   0.396251   0.779259   0.000000
   27  O  2  Y    0.000000  -0.212659   0.356906  -0.050817   0.000000
   28  O  2  Z    0.151106   0.000000   0.000000   0.000000  -0.755390
   29  O  2 XX    0.000000  -0.002537   0.025348   0.036853   0.000000
   30  O  2 YY    0.000000  -0.016732  -0.006238  -0.035756   0.000000
   31  O  2 ZZ    0.000000   0.019268  -0.019110  -0.001096   0.000000
   32  O  2 XY    0.000000  -0.005957   0.041583   0.016979   0.000000
   33  O  2 XZ   -0.039626   0.000000   0.000000   0.000000  -0.031930
   34  O  2 YZ   -0.016162   0.000000   0.000000   0.000000  -0.029238
   35  O  3  S    0.000000  -0.062272  -0.072671   0.017132   0.000000
   36  O  3  S    0.000000   0.274260   0.329035  -0.088927   0.000000
   37  O  3  S    0.000000   0.132504   0.046210  -0.033706   0.000000
   38  O  3  X    0.000000  -0.000664  -0.032158   0.570291   0.000000
   39  O  3  Y    0.000000  -0.018654   0.040716   0.047655   0.000000
   40  O  3  Z   -0.267037   0.000000   0.000000   0.000000  -0.584168
   41  O  3  X    0.000000   0.301919   0.396257  -0.779251   0.000000
   42  O  3  Y    0.000000  -0.212658  -0.356908  -0.050815   0.000000
   43  O  3  Z    0.151105   0.000000   0.000000   0.000000   0.755391
   44  O  3 XX    0.000000  -0.002537  -0.025348   0.036852   0.000000
   45  O  3 YY    0.000000  -0.016732   0.006239  -0.035756   0.000000
   46  O  3 ZZ    0.000000   0.019268   0.019110  -0.001096   0.000000
   47  O  3 XY    0.000000   0.005957   0.041583  -0.016979   0.000000
   48  O  3 XZ    0.039626   0.000000   0.000000   0.000000  -0.031930
   49  O  3 YZ   -0.016162   0.000000   0.000000   0.000000   0.029238

                     31         32         33         34         35
                    0.8237     0.8316     0.8378     0.9061     1.3730
                     A          A          A          A          A   
    1  S  1  S    0.000000   0.014246   0.000000   0.000000  -0.000000
    2  S  1  S   -0.000001  -0.116436   0.000000  -0.000001   0.000001
    3  S  1  S    0.000003   0.478002   0.000000   0.000001   0.000001
    4  S  1  S   -0.000001  -0.033796   0.000000   0.000004  -0.000022
    5  S  1  X    0.048784  -0.000000   0.000000  -0.030389   0.063219
    6  S  1  Y   -0.000000  -0.046747   0.000000  -0.000000   0.000001
    7  S  1  Z    0.000000   0.000000  -0.004710   0.000000   0.000000
    8  S  1  X   -0.324211   0.000001   0.000000   0.219709  -0.360285
    9  S  1  Y    0.000002   0.304217   0.000000   0.000002  -0.000008
   10  S  1  Z    0.000000   0.000000   0.033806   0.000000   0.000000
   11  S  1  X    0.001360   0.000000   0.000000  -0.525443  -0.658686
   12  S  1  Y   -0.000003  -0.371658   0.000000  -0.000000  -0.000008
   13  S  1  Z    0.000000   0.000000  -0.485577   0.000000   0.000000
   14  S  1 XX    0.000001   0.235882   0.000000   0.000003  -0.000003
   15  S  1 YY   -0.000002  -0.380689   0.000000  -0.000002  -0.000002
   16  S  1 ZZ    0.000001   0.144808   0.000000  -0.000001   0.000005
   17  S  1 XY    0.313880  -0.000001   0.000000  -0.171452  -0.409940
   18  S  1 XZ    0.000000   0.000000  -0.000000   0.000000   0.000000
   19  S  1 YZ    0.000000   0.000000  -0.424626   0.000000   0.000000
   20  O  2  S   -0.013787   0.012383   0.000000   0.004843   0.079635
   21  O  2  S    0.124401  -0.086843   0.000000  -0.100433  -1.148643
   22  O  2  S   -0.105738   0.119027   0.000000   0.245832   1.556483
   23  O  2  X    0.196756  -0.114346   0.000000  -0.600211   0.110506
   24  O  2  Y    0.593446  -0.570078   0.000000   0.216837   0.093627
   25  O  2  Z    0.000000   0.000000  -0.587509   0.000000   0.000000
   26  O  2  X   -0.222024   0.150686   0.000000   0.781461  -0.399265
   27  O  2  Y   -0.723611   0.808883   0.000000  -0.353180  -0.411307
   28  O  2  Z    0.000000   0.000000   0.834621   0.000000   0.000000
   29  O  2 XX    0.006484  -0.019186   0.000000   0.035448  -0.067753
   30  O  2 YY   -0.013275   0.038849   0.000000  -0.014244  -0.028929
   31  O  2 ZZ    0.006791  -0.019663   0.000000  -0.021204   0.096682
   32  O  2 XY   -0.007795   0.042330   0.000000  -0.003034  -0.131155
   33  O  2 XZ    0.000000   0.000000   0.035542   0.000000   0.000000
   34  O  2 YZ    0.000000   0.000000   0.026328   0.000000   0.000000
   35  O  3  S    0.013787   0.012383   0.000000  -0.004845  -0.079632
   36  O  3  S   -0.124401  -0.086838   0.000000   0.100449   1.148597
   37  O  3  S    0.105739   0.119022   0.000000  -0.245850  -1.556418
   38  O  3  X    0.196757   0.114347   0.000000  -0.600213   0.110503
   39  O  3  Y   -0.593452  -0.570071   0.000000  -0.216841  -0.093624
   40  O  3  Z    0.000000   0.000000  -0.587508   0.000000   0.000000
   41  O  3  X   -0.222024  -0.150688   0.000000   0.781462  -0.399248
   42  O  3  Y    0.723620   0.808874   0.000000   0.353188   0.411294
   43  O  3  Z    0.000000   0.000000   0.834620   0.000000   0.000000
   44  O  3 XX   -0.006484  -0.019185   0.000000  -0.035449   0.067751
   45  O  3 YY    0.013276   0.038849   0.000000   0.014244   0.028929
   46  O  3 ZZ   -0.006791  -0.019663   0.000000   0.021204  -0.096680
   47  O  3 XY   -0.007796  -0.042330   0.000000  -0.003035  -0.131150
   48  O  3 XZ    0.000000   0.000000  -0.035542   0.000000   0.000000
   49  O  3 YZ    0.000000   0.000000   0.026328   0.000000   0.000000

                     36         37         38         39         40
                    1.4914     2.0887     2.0953     2.0953     2.1004
                     A          A          A          A          A   
    1  S  1  S    0.001848  -0.000000   0.000000   0.000000   0.000488
    2  S  1  S   -0.015559   0.000000   0.000000   0.000000  -0.003438
    3  S  1  S    0.505657  -0.000001   0.000000   0.000000   0.019659
    4  S  1  S   -1.803691   0.000001   0.000000   0.000000  -0.052236
    5  S  1  X   -0.000002  -0.019171   0.000000   0.000000  -0.000000
    6  S  1  Y    0.063119  -0.000000   0.000000   0.000000  -0.000822
    7  S  1  Z    0.000000   0.000000  -0.000022  -0.007648   0.000000
    8  S  1  X    0.000009   0.055360   0.000000   0.000000  -0.000001
    9  S  1  Y   -0.329021   0.000000   0.000000   0.000000  -0.000185
   10  S  1  Z    0.000000   0.000000   0.000065   0.022173   0.000000
   11  S  1  X    0.000003   0.087857   0.000000   0.000000   0.000002
   12  S  1  Y   -0.842338   0.000001   0.000000   0.000000  -0.034897
   13  S  1  Z    0.000000   0.000000   0.000069   0.023467   0.000000
   14  S  1 XX   -0.241230  -0.000000   0.000000   0.000000   0.018398
   15  S  1 YY   -0.142799   0.000000   0.000000   0.000000   0.021391
   16  S  1 ZZ    0.384029  -0.000000   0.000000   0.000000  -0.039789
   17  S  1 XY    0.000005  -0.038774   0.000000   0.000000  -0.000001
   18  S  1 XZ    0.000000   0.000000   0.037881  -0.000112   0.000000
   19  S  1 YZ    0.000000   0.000000   0.000038   0.012997   0.000000
   20  O  2  S    0.073569  -0.000941   0.000000   0.000000   0.002924
   21  O  2  S   -1.228029   0.028949   0.000000   0.000000  -0.034104
   22  O  2  S    1.936918  -0.063431   0.000000   0.000000   0.049009
   23  O  2  X    0.079614   0.032150   0.000000   0.000000   0.016660
   24  O  2  Y    0.050399  -0.031127   0.000000   0.000000  -0.001541
   25  O  2  Z    0.000000   0.000000   0.013188   0.014437   0.000000
   26  O  2  X   -0.559673  -0.040386   0.000000   0.000000  -0.030924
   27  O  2  Y   -0.325621   0.054835   0.000000   0.000000   0.002133
   28  O  2  Z    0.000000   0.000000  -0.020026  -0.024429   0.000000
   29  O  2 XX   -0.073461   0.482075   0.000000   0.000000  -0.275317
   30  O  2 YY    0.008745  -0.691088   0.000000   0.000000  -0.347501
   31  O  2 ZZ    0.064716   0.209014   0.000000   0.000000   0.622818
   32  O  2 XY   -0.141667   0.014498   0.000000   0.000000   0.331879
   33  O  2 XZ    0.000000   0.000000   0.593150  -0.310819   0.000000
   34  O  2 YZ    0.000000   0.000000  -0.381937   0.637395   0.000000
   35  O  3  S    0.073572   0.000941   0.000000   0.000000   0.002923
   36  O  3  S   -1.228069  -0.028948   0.000000   0.000000  -0.034101
   37  O  3  S    1.936967   0.063428   0.000000   0.000000   0.049006
   38  O  3  X   -0.079623   0.032150   0.000000   0.000000  -0.016656
   39  O  3  Y    0.050400   0.031127   0.000000   0.000000  -0.001540
   40  O  3  Z    0.000000   0.000000  -0.013103   0.014515   0.000000
   41  O  3  X    0.559694  -0.040387   0.000000   0.000000   0.030916
   42  O  3  Y   -0.325629  -0.054835   0.000000   0.000000   0.002131
   43  O  3  Z    0.000000   0.000000   0.019882  -0.024547   0.000000
   44  O  3 XX   -0.073466  -0.482074   0.000000   0.000000  -0.275372
   45  O  3 YY    0.008745   0.691091   0.000000   0.000000  -0.347514
   46  O  3 ZZ    0.064721  -0.209016   0.000000   0.000000   0.622885
   47  O  3 XY    0.141673   0.014498   0.000000   0.000000  -0.331922
   48  O  3 XZ    0.000000   0.000000   0.594971   0.307320   0.000000
   49  O  3 YZ    0.000000   0.000000   0.385683   0.635137   0.000000

                     41         42         43         44         45
                    2.1022     2.1283     2.1444     2.2101     2.4004
                     A          A          A          A          A   
    1  S  1  S    0.000000   0.000000   0.000000  -0.002256  -0.021733
    2  S  1  S   -0.000000   0.000000   0.000000   0.017406   0.158418
    3  S  1  S    0.000002   0.000000   0.000000  -0.082706  -0.230186
    4  S  1  S   -0.000004   0.000000   0.000000   0.115288  -0.671412
    5  S  1  X    0.001192   0.000000   0.000000  -0.000000   0.000000
    6  S  1  Y   -0.000000   0.000000   0.000000  -0.019172   0.119089
    7  S  1  Z    0.000000  -0.000000  -0.030481   0.000000   0.000000
    8  S  1  X    0.011726   0.000000   0.000000   0.000000  -0.000000
    9  S  1  Y    0.000000   0.000000   0.000000   0.047516  -0.521413
   10  S  1  Z    0.000000   0.000000   0.088285   0.000000   0.000000
   11  S  1  X   -0.032315   0.000000   0.000000   0.000000  -0.000002
   12  S  1  Y   -0.000003   0.000000   0.000000   0.139534  -0.183922
   13  S  1  Z    0.000000   0.000000   0.090397   0.000000   0.000000
   14  S  1 XX    0.000001   0.000000   0.000000  -0.258913  -0.238818
   15  S  1 YY    0.000001   0.000000   0.000000   0.267828  -0.109273
   16  S  1 ZZ   -0.000002   0.000000   0.000000  -0.008915   0.348090
   17  S  1 XY    0.009678   0.000000   0.000000   0.000000  -0.000001
   18  S  1 XZ    0.000000  -0.229456   0.000001   0.000000   0.000000
   19  S  1 YZ    0.000000   0.000001   0.207680   0.000000   0.000000
   20  O  2  S   -0.001778   0.000000   0.000000  -0.000960   0.014899
   21  O  2  S    0.028905   0.000000   0.000000   0.039054  -0.437018
   22  O  2  S   -0.028775   0.000000   0.000000  -0.098362   0.773504
   23  O  2  X   -0.038869   0.000000   0.000000  -0.011143   0.071052
   24  O  2  Y    0.012418   0.000000   0.000000   0.033226   0.062441
   25  O  2  Z    0.000000  -0.032365   0.042936   0.000000   0.000000
   26  O  2  X    0.066881   0.000000   0.000000   0.057545  -0.375097
   27  O  2  Y   -0.017354   0.000000   0.000000  -0.068617  -0.288252
   28  O  2  Z    0.000000   0.055863  -0.090204   0.000000   0.000000
   29  O  2 XX   -0.451836   0.000000   0.000000  -0.581179   0.318014
   30  O  2 YY   -0.126812   0.000000   0.000000   0.622701   0.030207
   31  O  2 ZZ    0.578648   0.000000   0.000000  -0.041522  -0.348221
   32  O  2 XY    0.360290   0.000000   0.000000   0.165736   0.620076
   33  O  2 XZ    0.000000  -0.386696   0.640332   0.000000   0.000000
   34  O  2 YZ    0.000000  -0.595860   0.313887   0.000000   0.000000
   35  O  3  S    0.001779   0.000000   0.000000  -0.000960   0.014899
   36  O  3  S   -0.028910   0.000000   0.000000   0.039054  -0.437018
   37  O  3  S    0.028783   0.000000   0.000000  -0.098363   0.773501
   38  O  3  X   -0.038871   0.000000   0.000000   0.011143  -0.071053
   39  O  3  Y   -0.012418   0.000000   0.000000   0.033226   0.062441
   40  O  3  Z    0.000000   0.032365   0.042936   0.000000   0.000000
   41  O  3  X    0.066885   0.000000   0.000000  -0.057545   0.375098
   42  O  3  Y    0.017355   0.000000   0.000000  -0.068617  -0.288250
   43  O  3  Z    0.000000  -0.055864  -0.090204   0.000000   0.000000
   44  O  3 XX    0.451804   0.000000   0.000000  -0.581178   0.318014
   45  O  3 YY    0.126771   0.000000   0.000000   0.622700   0.030206
   46  O  3 ZZ   -0.578574   0.000000   0.000000  -0.041522  -0.348220
   47  O  3 XY    0.360251   0.000000   0.000000  -0.165736  -0.620073
   48  O  3 XZ    0.000000  -0.386703  -0.640328   0.000000   0.000000
   49  O  3 YZ    0.000000   0.595861   0.313882   0.000000   0.000000

                     46
                    2.5342
                     A   
    1  S  1  S    0.000000
    2  S  1  S   -0.000000
    3  S  1  S    0.000002
    4  S  1  S   -0.000007
    5  S  1  X   -0.145341
    6  S  1  Y    0.000000
    7  S  1  Z    0.000000
    8  S  1  X    0.640549
    9  S  1  Y   -0.000001
   10  S  1  Z    0.000000
   11  S  1  X    0.152431
   12  S  1  Y   -0.000003
   13  S  1  Z    0.000000
   14  S  1 XX   -0.000001
   15  S  1 YY   -0.000001
   16  S  1 ZZ    0.000002
   17  S  1 XY    0.583585
   18  S  1 XZ    0.000000
   19  S  1 YZ    0.000000
   20  O  2  S   -0.010133
   21  O  2  S    0.405678
   22  O  2  S   -0.696128
   23  O  2  X   -0.063804
   24  O  2  Y   -0.045512
   25  O  2  Z    0.000000
   26  O  2  X    0.370136
   27  O  2  Y    0.318793
   28  O  2  Z    0.000000
   29  O  2 XX   -0.268702
   30  O  2 YY   -0.098216
   31  O  2 ZZ    0.366919
   32  O  2 XY   -0.648494
   33  O  2 XZ    0.000000
   34  O  2 YZ    0.000000
   35  O  3  S    0.010133
   36  O  3  S   -0.405683
   37  O  3  S    0.696138
   38  O  3  X   -0.063805
   39  O  3  Y    0.045513
   40  O  3  Z    0.000000
   41  O  3  X    0.370140
   42  O  3  Y   -0.318795
   43  O  3  Z    0.000000
   44  O  3 XX    0.268704
   45  O  3 YY    0.098216
   46  O  3 ZZ   -0.366920
   47  O  3 XY   -0.648496
   48  O  3 XZ    0.000000
   49  O  3 YZ    0.000000
 ...... END OF RHF CALCULATION ......
 STEP CPU TIME =     2.69 TOTAL CPU TIME =          2.8 (      0.0 MIN)
 TOTAL WALL CLOCK TIME=          2.9 SECONDS, CPU UTILIZATION IS    98.26%

     ---------------------------------------------------------------------
     PROPERTIES FOR THE PBE      DFT FUNCTIONAL (RHF  TYPE) DENSITY MATRIX
     ---------------------------------------------------------------------

          -----------------
          ENERGY COMPONENTS
          -----------------

         WAVEFUNCTION NORMALIZATION =       1.0000000000

                ONE ELECTRON ENERGY =    -934.7312931122
                TWO ELECTRON ENERGY =     296.5243629159
           NUCLEAR REPULSION ENERGY =      90.0426940787
                                      ------------------
                       TOTAL ENERGY =    -548.1642361177

 ELECTRON-ELECTRON POTENTIAL ENERGY =     296.5243629159
  NUCLEUS-ELECTRON POTENTIAL ENERGY =   -1481.4259822479
   NUCLEUS-NUCLEUS POTENTIAL ENERGY =      90.0426940787
                                      ------------------
             TOTAL POTENTIAL ENERGY =   -1094.8589252534
               TOTAL KINETIC ENERGY =     546.6946891357
                 VIRIAL RATIO (V/T) =       2.0026880579

          ---------------------------------------
          MULLIKEN AND LOWDIN POPULATION ANALYSES
          ---------------------------------------

     ATOMIC MULLIKEN POPULATION IN EACH MOLECULAR ORBITAL

                      1          2          3          4          5

                  2.000000   2.000000   2.000000   2.000000   2.000000

    1             1.999989   0.001014   0.000455   2.000322   2.000236
    2             0.000006   0.993217   1.006049  -0.000161  -0.000118
    3             0.000006   1.005769   0.993497  -0.000161  -0.000118

                      6          7          8          9         10

                  2.000000   2.000000   2.000000   2.000000   2.000000

    1             2.000003   2.000188   0.563025   0.173079   1.313670
    2            -0.000001  -0.000094   0.718482   0.913468   0.343164
    3            -0.000001  -0.000094   0.718493   0.913453   0.343166

                     11         12         13         14         15

                  2.000000   2.000000   2.000000   2.000000   2.000000

    1             0.706396   1.026628   1.219758   0.031304   0.142949
    2             0.646801   0.486686   0.390120   0.984348   0.928516
    3             0.646803   0.486686   0.390122   0.984348   0.928535

                     16

                  2.000000

    1             0.098499
    2             0.950763
    3             0.950739

               ----- POPULATIONS IN EACH AO -----
                             MULLIKEN      LOWDIN
              1  S  1  S      1.99984     1.99928
              2  S  1  S      1.99265     1.88883
              3  S  1  S      1.36930     0.70655
              4  S  1  S      0.52446     0.46574
              5  S  1  X      1.99344     1.95773
              6  S  1  Y      1.99435     1.96369
              7  S  1  Z      1.99411     1.96283
              8  S  1  X      0.81453     0.71385
              9  S  1  Y      0.97328     0.88511
             10  S  1  Z      0.93550     0.85086
             11  S  1  X      0.10604     0.23687
             12  S  1  Y      0.12508     0.28486
             13  S  1  Z      0.28391     0.38898
             14  S  1 XX      0.01597     0.28337
             15  S  1 YY      0.05286     0.28574
             16  S  1 ZZ      0.06466     0.28463
             17  S  1 XY      0.03130     0.07909
             18  S  1 XZ      0.00623     0.03611
             19  S  1 YZ      0.00000     0.00611
             20  O  2  S      1.99574     1.97313
             21  O  2  S      0.97062     0.71478
             22  O  2  S      0.99508     0.56682
             23  O  2  X      0.92484     0.88815
             24  O  2  Y      0.94241     0.90876
             25  O  2  Z      0.82394     0.79435
             26  O  2  X      0.55643     0.63109
             27  O  2  Y      0.59420     0.66387
             28  O  2  Z      0.54796     0.57975
             29  O  2 XX      0.00132     0.20866
             30  O  2 YY      0.00216     0.20786
             31  O  2 ZZ      0.00397     0.21219
             32  O  2 XY      0.00144     0.00704
             33  O  2 XZ      0.00113     0.00198
             34  O  2 YZ      0.00000     0.00147
             35  O  3  S      1.99574     1.97313
             36  O  3  S      0.97062     0.71478
             37  O  3  S      0.99508     0.56682
             38  O  3  X      0.92484     0.88814
             39  O  3  Y      0.94241     0.90876
             40  O  3  Z      0.82394     0.79436
             41  O  3  X      0.55642     0.63109
             42  O  3  Y      0.59420     0.66387
             43  O  3  Z      0.54796     0.57976
             44  O  3 XX      0.00132     0.20866
             45  O  3 YY      0.00216     0.20786
             46  O  3 ZZ      0.00397     0.21219
             47  O  3 XY      0.00144     0.00704
             48  O  3 XZ      0.00113     0.00198
             49  O  3 YZ      0.00000     0.00147

          ----- MULLIKEN ATOMIC OVERLAP POPULATIONS -----
          (OFF-DIAGONAL ELEMENTS NEED TO BE MULTIPLIED BY 2)

             1           2           3

    1   14.7348290
    2    0.2713392   8.1329560
    3    0.2713452  -0.0430502   8.1329466

          TOTAL MULLIKEN AND LOWDIN ATOMIC POPULATIONS
       ATOM         MULL.POP.    CHARGE          LOW.POP.     CHARGE
    1 S            15.277513    0.722487        15.280233    0.719767
    2 O             8.361245   -0.361245         8.359884   -0.359884
    3 O             8.361242   -0.361242         8.359883   -0.359883

          MULLIKEN SPHERICAL HARMONIC POPULATIONS
       ATOM           S       P       D      F      G      H      I    TOTAL
    1 S             5.89    9.22    0.17   0.00   0.00   0.00   0.00   15.28
    2 O             3.96    4.39    0.01   0.00   0.00   0.00   0.00    8.36
    3 O             3.96    4.39    0.01   0.00   0.00   0.00   0.00    8.36

          -------------------------------
          BOND ORDER AND VALENCE ANALYSIS     BOND ORDER THRESHOLD=0.050
          -------------------------------

                   BOND                       BOND                       BOND
  ATOM PAIR DIST  ORDER      ATOM PAIR DIST  ORDER      ATOM PAIR DIST  ORDER
    1   2  1.750  1.619        1   3  1.750  1.619        2   3  2.681  0.483

                       TOTAL       BONDED        FREE
      ATOM            VALENCE     VALENCE     VALENCE
    1 S                 3.239       3.239       0.000
    2 O                 2.102       2.102       0.000
    3 O                 2.102       2.102      -0.000

          ---------------------
          ELECTROSTATIC MOMENTS
          ---------------------

 POINT   1           X           Y           Z (BOHR)    CHARGE
                -0.000000    0.000000    0.000000        0.00 (A.U.)
         DX          DY          DZ         /D/  (DEBYE)
    -0.000002   -2.888509    0.000000    2.888509
 ...... END OF PROPERTY EVALUATION ......
 STEP CPU TIME =     0.01 TOTAL CPU TIME =          2.8 (      0.0 MIN)
 TOTAL WALL CLOCK TIME=          2.9 SECONDS, CPU UTILIZATION IS    98.61%
                580000  WORDS OF DYNAMIC MEMORY USED
 EXECUTION OF GAMESS TERMINATED NORMALLY Sun Sep 29 10:55:15 2019
 DDI: 263640 bytes (0.3 MB / 0 MWords) used by master data server.

 ----------------------------------------
 CPU timing information for all processes
 ========================================
 0: 2.772 + 0.76 = 2.848
 ----------------------------------------
 ddikick.x: exited gracefully.
----- accounting info -----
Files used on the master node crcfe02.crc.nd.edu were:
-rw-r--r-- 1 cdrisko campus     208 Sep 29 10:55 /afs/crc.nd.edu/user/c/cdrisko/SO2.F05
-rw-r--r-- 1 cdrisko campus   37566 Sep 29 10:55 /afs/crc.nd.edu/user/c/cdrisko/SO2.F07
-rw-r--r-- 1 cdrisko campus 4140368 Sep 29 10:55 /afs/crc.nd.edu/user/c/cdrisko/SO2.F08
-rw-r--r-- 1 cdrisko campus 1766880 Sep 29 10:55 /afs/crc.nd.edu/user/c/cdrisko/SO2.F10
Sun Sep 29 10:55:18 EDT 2019
0.444u 0.246s 0:06.55 10.3%	0+0k 0+24io 0pf+0w
