       N       E                     dE             d eps       ncg     rms          rms(c)
DAV:   1     0.194767528088E+03    0.19477E+03   -0.18756E+04  3360   0.735E+02
DAV:   2    -0.885264258354E+01   -0.20362E+03   -0.19122E+03  4272   0.186E+02
DAV:   3    -0.118570217623E+02   -0.30044E+01   -0.30020E+01  4128   0.243E+01
DAV:   4    -0.118661340452E+02   -0.91123E-02   -0.91121E-02  4728   0.141E+00
DAV:   5    -0.118662169386E+02   -0.82893E-04   -0.82892E-04  3816   0.134E-01    0.104E+01
DAV:   6    -0.108858969667E+02    0.98032E+00   -0.24524E+00  4248   0.872E+00    0.668E+00
DAV:   7    -0.108522271967E+02    0.33670E-01   -0.32226E-02  3960   0.982E-01    0.372E+00
DAV:   8    -0.108407833315E+02    0.11444E-01   -0.25735E-03  4392   0.198E-01    0.183E-01
DAV:   9    -0.108408058269E+02   -0.22495E-04   -0.27898E-05  3288   0.204E-02
   1 F= -.10840806E+02 E0= -.10840222E+02  d E =-.175068E-02
