 vasp.5.4.1 05Feb16 (build Feb 08 2018 09:21:51) complex                        
  
 executed on             LinuxIFC date 2019.11.21  13:19:05
 running on   24 total cores
 distrk:  each k-point on   24 cores,    1 groups
 distr:  one band on NCORES_PER_BAND=   1 cores,   24 groups


--------------------------------------------------------------------------------------------------------


 INCAR:
 POTCAR:    PAW_PBE Ag 02Apr2005                  

 ----------------------------------------------------------------------------- 
|                                                                             |
|           W    W    AA    RRRRR   N    N  II  N    N   GGGG   !!!           |
|           W    W   A  A   R    R  NN   N  II  NN   N  G    G  !!!           |
|           W    W  A    A  R    R  N N  N  II  N N  N  G       !!!           |
|           W WW W  AAAAAA  RRRRR   N  N N  II  N  N N  G  GGG   !            |
|           WW  WW  A    A  R   R   N   NN  II  N   NN  G    G                |
|           W    W  A    A  R    R  N    N  II  N    N   GGGG   !!!           |
|                                                                             |
|      For optimal performance we recommend to set                            |
|        NCORE= 4 - approx SQRT( number of cores)                             |
|      NCORE specifies how many cores store one orbital (NPAR=cpu/NCORE).     |
|      This setting can  greatly improve the performance of VASP for DFT.     |
|      The default, NPAR=number of cores might be grossly inefficient         |
|      on modern multi-core architectures or massively parallel machines.     |
|      Do your own testing !!!!                                               |
|      Unfortunately you need to use the default for GW and RPA calculations. |
|      (for HF NCORE is supported but not extensively tested yet)             |
|                                                                             |
 ----------------------------------------------------------------------------- 

 POTCAR:    PAW_PBE Ag 02Apr2005                  
   VRHFIN =Ag : s1 d10                                                          
   LEXCH  = PE                                                                  
   EATOM  =  1037.2675 eV,   76.2370 Ry                                         
                                                                                
   TITEL  = PAW_PBE Ag 02Apr2005                                                
   LULTRA =        F    use ultrasoft PP ?                                      
   IUNSCR =        1    unscreen: 0-lin 1-nonlin 2-no                           
   RPACOR =    2.000    partial core radius                                     
   POMASS =  107.868; ZVAL   =   11.000    mass and valenz                      
   RCORE  =    2.500    outmost cutoff radius                                   
   RWIGS  =    2.840; RWIGS  =    1.503    wigner-seitz radius (au A)           
   ENMAX  =  249.844; ENMIN  =  187.383 eV                                      
   ICORE  =        3    local potential                                         
   LCOR   =        T    correct aug charges                                     
   LPAW   =        T    paw PP                                                  
   EAUG   =  412.496                                                            
   DEXC   =    0.000                                                            
   RMAX   =    2.560    core radius for proj-oper                               
   RAUG   =    1.300    factor for augmentation sphere                          
   RDEP   =    2.576    radius for radial grids                                 
   RDEPT  =    2.072    core radius for aug-charge                              
                                                                                
   Atomic configuration                                                         
   12 entries                                                                   
     n  l   j            E        occ.                                          
     1  0  0.50    -25324.9161   2.0000                                         
     2  0  0.50     -3728.5341   2.0000                                         
     2  1  1.50     -3344.0404   6.0000                                         
     3  0  0.50      -683.5581   2.0000                                         
     3  1  1.50      -557.3225   6.0000                                         
     3  2  2.50      -358.3853  10.0000                                         
     4  0  0.50       -95.0341   2.0000                                         
     4  1  1.50       -58.5511   6.0000                                         
     4  2  2.50        -7.4440  10.0000                                         
     5  0  0.50        -4.4045   1.0000                                         
     5  1  0.50        -1.3606   0.0000                                         
     4  3  2.50        -1.3606   0.0000                                         
   Description                                                                  
     l       E           TYP  RCUT    TYP  RCUT                                 
     2     -7.4439781     23  2.400                                             
     2     -8.8045607     23  2.400                                             
     0     -4.4044681     23  2.400                                             
     0      1.9520038     23  2.400                                             
     1     -1.3605826     23  2.500                                             
     1     27.2116520     23  2.500                                             
     3     -4.0817478     23  2.400                                             
  local pseudopotential read in
  partial core-charges read in
  partial kinetic energy density read in
  atomic valenz-charges read in
  non local Contribution for L=           2  read in
    real space projection operators read in
  non local Contribution for L=           2  read in
    real space projection operators read in
  non local Contribution for L=           0  read in
    real space projection operators read in
  non local Contribution for L=           0  read in
    real space projection operators read in
  non local Contribution for L=           1  read in
    real space projection operators read in
  non local Contribution for L=           1  read in
    real space projection operators read in
    PAW grid and wavefunctions read in
 
   number of l-projection  operators is LMAX  =           6
   number of lm-projection operators is LMMAX =          18
 
  PAW_PBE Ag 02Apr2005                  :
 energy of atom  1       EATOM=-1037.2675
 kinetic energy error for atom=    0.0091 (will be added to EATOM!!)
 
 
 POSCAR: Ag                                      
  positions in cartesian coordinates
  No initial velocities read in
 exchange correlation table for  LEXCH =        8
   RHO(1)=    0.500       N(1)  =     2000
   RHO(2)=  100.500       N(2)  =     4000
 


--------------------------------------------------------------------------------------------------------


 ion  position               nearest neighbor table
   1  0.000  0.000  0.000-   2 2.89   3 2.89   4 2.89   2 2.89   3 2.89   2 2.89   4 2.89   2 2.89
                             3 2.89   4 2.89   3 2.89   4 2.89
   2  0.000  0.500  0.500-   1 2.89   3 2.89   4 2.89   1 2.89   4 2.89   1 2.89   3 2.89   1 2.89
                             3 2.89   4 2.89   4 2.89   3 2.89
   3  0.500  0.000  0.500-   1 2.89   2 2.89   4 2.89   1 2.89   4 2.89   2 2.89   4 2.89   4 2.89
                             1 2.89   2 2.89   1 2.89   2 2.89
   4  0.500  0.500  0.000-   1 2.89   2 2.89   3 2.89   2 2.89   3 2.89   1 2.89   3 2.89   3 2.89
                             1 2.89   2 2.89   2 2.89   1 2.89
 
  LATTYP: Found a simple cubic cell.
 ALAT       =     4.0900000000
  
  Lattice vectors:
  
 A1 = (   4.0900000000,   0.0000000000,   0.0000000000)
 A2 = (   0.0000000000,   4.0900000000,   0.0000000000)
 A3 = (   0.0000000000,   0.0000000000,   4.0900000000)


Analysis of symmetry for initial positions (statically):
=====================================================================
 Subroutine PRICEL returns following result:
 
  LATTYP: Found a face centered cubic cell.
 ALAT       =     4.0900000000
  
  Lattice vectors:
  
 A1 = (   2.0450000000,   2.0450000000,   0.0000000000)
 A2 = (   2.0450000000,   0.0000000000,  -2.0450000000)
 A3 = (   0.0000000000,   2.0450000000,  -2.0450000000)
 
   4 primitive cells build up your supercell.
 

 Routine SETGRP: Setting up the symmetry group for a 
 simple cubic supercell.


 Subroutine GETGRP returns: Found 48 space group operations
 (whereof 48 operations were pure point group operations)
 out of a pool of 48 trial point group operations.


The static configuration has the point symmetry O_h .


Analysis of symmetry for dynamics (positions and initial velocities):
=====================================================================
 Subroutine PRICEL returns following result:
 
  LATTYP: Found a face centered cubic cell.
 ALAT       =     4.0900000000
  
  Lattice vectors:
  
 A1 = (   2.0450000000,   2.0450000000,   0.0000000000)
 A2 = (   2.0450000000,   0.0000000000,  -2.0450000000)
 A3 = (   0.0000000000,   2.0450000000,  -2.0450000000)
 
   4 primitive cells build up your supercell.
 

 Routine SETGRP: Setting up the symmetry group for a 
 simple cubic supercell.


 Subroutine GETGRP returns: Found 48 space group operations
 (whereof 48 operations were pure point group operations)
 out of a pool of 48 trial point group operations.


The dynamic configuration has the point symmetry O_h .


 Subroutine INISYM returns: Found 48 space group operations
 (whereof 48 operations are pure point group operations),
 and found     4 'primitive' translations

 
 
 KPOINTS: KPOINTS created by Atomic Simulation Env

Automatic generation of k-mesh.
Space group operators:
 irot       det(A)        alpha          n_x          n_y          n_z        tau_x        tau_y        tau_z
    1     1.000000     0.000000     1.000000     0.000000     0.000000     0.000000     0.000000     0.000000
    2    -1.000000     0.000000     1.000000     0.000000     0.000000     0.000000     0.000000     0.000000
    3     1.000000   120.000000    -0.577350    -0.577350    -0.577350     0.000000     0.000000     0.000000
    4    -1.000000   120.000000    -0.577350    -0.577350    -0.577350     0.000000     0.000000     0.000000
    5     1.000000   120.000000     0.577350     0.577350     0.577350     0.000000     0.000000     0.000000
    6    -1.000000   120.000000     0.577350     0.577350     0.577350     0.000000     0.000000     0.000000
    7     1.000000    90.000000     0.000000     0.000000    -1.000000     0.000000     0.000000     0.000000
    8    -1.000000    90.000000     0.000000     0.000000    -1.000000     0.000000     0.000000     0.000000
    9     1.000000   180.000000     0.000000     0.707107     0.707107     0.000000     0.000000     0.000000
   10    -1.000000   180.000000     0.000000     0.707107     0.707107     0.000000     0.000000     0.000000
   11     1.000000    90.000000     0.000000     1.000000     0.000000     0.000000     0.000000     0.000000
   12    -1.000000    90.000000     0.000000     1.000000     0.000000     0.000000     0.000000     0.000000
   13     1.000000   180.000000     0.000000     0.000000     1.000000     0.000000     0.000000     0.000000
   14    -1.000000   180.000000     0.000000     0.000000     1.000000     0.000000     0.000000     0.000000
   15     1.000000   120.000000    -0.577350     0.577350     0.577350     0.000000     0.000000     0.000000
   16    -1.000000   120.000000    -0.577350     0.577350     0.577350     0.000000     0.000000     0.000000
   17     1.000000   120.000000    -0.577350     0.577350    -0.577350     0.000000     0.000000     0.000000
   18    -1.000000   120.000000    -0.577350     0.577350    -0.577350     0.000000     0.000000     0.000000
   19     1.000000    90.000000     0.000000     0.000000     1.000000     0.000000     0.000000     0.000000
   20    -1.000000    90.000000     0.000000     0.000000     1.000000     0.000000     0.000000     0.000000
   21     1.000000    90.000000    -1.000000     0.000000     0.000000     0.000000     0.000000     0.000000
   22    -1.000000    90.000000    -1.000000     0.000000     0.000000     0.000000     0.000000     0.000000
   23     1.000000   180.000000     0.707107     0.000000     0.707107     0.000000     0.000000     0.000000
   24    -1.000000   180.000000     0.707107     0.000000     0.707107     0.000000     0.000000     0.000000
   25     1.000000   120.000000     0.577350    -0.577350     0.577350     0.000000     0.000000     0.000000
   26    -1.000000   120.000000     0.577350    -0.577350     0.577350     0.000000     0.000000     0.000000
   27     1.000000   120.000000    -0.577350    -0.577350     0.577350     0.000000     0.000000     0.000000
   28    -1.000000   120.000000    -0.577350    -0.577350     0.577350     0.000000     0.000000     0.000000
   29     1.000000   180.000000     1.000000     0.000000     0.000000     0.000000     0.000000     0.000000
   30    -1.000000   180.000000     1.000000     0.000000     0.000000     0.000000     0.000000     0.000000
   31     1.000000    90.000000     0.000000    -1.000000     0.000000     0.000000     0.000000     0.000000
   32    -1.000000    90.000000     0.000000    -1.000000     0.000000     0.000000     0.000000     0.000000
   33     1.000000   180.000000     0.707107     0.707107     0.000000     0.000000     0.000000     0.000000
   34    -1.000000   180.000000     0.707107     0.707107     0.000000     0.000000     0.000000     0.000000
   35     1.000000    90.000000     1.000000     0.000000     0.000000     0.000000     0.000000     0.000000
   36    -1.000000    90.000000     1.000000     0.000000     0.000000     0.000000     0.000000     0.000000
   37     1.000000   120.000000     0.577350    -0.577350    -0.577350     0.000000     0.000000     0.000000
   38    -1.000000   120.000000     0.577350    -0.577350    -0.577350     0.000000     0.000000     0.000000
   39     1.000000   180.000000     0.000000     1.000000     0.000000     0.000000     0.000000     0.000000
   40    -1.000000   180.000000     0.000000     1.000000     0.000000     0.000000     0.000000     0.000000
   41     1.000000   120.000000     0.577350     0.577350    -0.577350     0.000000     0.000000     0.000000
   42    -1.000000   120.000000     0.577350     0.577350    -0.577350     0.000000     0.000000     0.000000
   43     1.000000   180.000000     0.000000    -0.707107     0.707107     0.000000     0.000000     0.000000
   44    -1.000000   180.000000     0.000000    -0.707107     0.707107     0.000000     0.000000     0.000000
   45     1.000000   180.000000     0.707107    -0.707107     0.000000     0.000000     0.000000     0.000000
   46    -1.000000   180.000000     0.707107    -0.707107     0.000000     0.000000     0.000000     0.000000
   47     1.000000   180.000000     0.707107     0.000000    -0.707107     0.000000     0.000000     0.000000
   48    -1.000000   180.000000     0.707107     0.000000    -0.707107     0.000000     0.000000     0.000000
 
 Subroutine IBZKPT returns following result:
 ===========================================
 
 Found     35 irreducible k-points:
 
 Following reciprocal coordinates:
            Coordinates               Weight
  0.000000  0.000000  0.000000      1.000000
  0.111111  0.000000  0.000000      6.000000
  0.222222  0.000000  0.000000      6.000000
  0.333333  0.000000  0.000000      6.000000
  0.444444  0.000000  0.000000      6.000000
  0.111111  0.111111  0.000000     12.000000
  0.222222  0.111111  0.000000     24.000000
  0.333333  0.111111  0.000000     24.000000
  0.444444  0.111111  0.000000     24.000000
  0.222222  0.222222  0.000000     12.000000
  0.333333  0.222222  0.000000     24.000000
  0.444444  0.222222  0.000000     24.000000
  0.333333  0.333333  0.000000     12.000000
  0.444444  0.333333  0.000000     24.000000
  0.444444  0.444444  0.000000     12.000000
  0.111111  0.111111  0.111111      8.000000
  0.222222  0.111111  0.111111     24.000000
  0.333333  0.111111  0.111111     24.000000
  0.444444  0.111111  0.111111     24.000000
  0.222222  0.222222  0.111111     24.000000
  0.333333  0.222222  0.111111     48.000000
  0.444444  0.222222  0.111111     48.000000
  0.333333  0.333333  0.111111     24.000000
  0.444444  0.333333  0.111111     48.000000
  0.444444  0.444444  0.111111     24.000000
  0.222222  0.222222  0.222222      8.000000
  0.333333  0.222222  0.222222     24.000000
  0.444444  0.222222  0.222222     24.000000
  0.333333  0.333333  0.222222     24.000000
  0.444444  0.333333  0.222222     48.000000
  0.444444  0.444444  0.222222     24.000000
  0.333333  0.333333  0.333333      8.000000
  0.444444  0.333333  0.333333     24.000000
  0.444444  0.444444  0.333333     24.000000
  0.444444  0.444444  0.444444      8.000000
 
 Following cartesian coordinates:
            Coordinates               Weight
  0.000000  0.000000  0.000000      1.000000
  0.027167  0.000000  0.000000      6.000000
  0.054333  0.000000  0.000000      6.000000
  0.081500  0.000000  0.000000      6.000000
  0.108666  0.000000  0.000000      6.000000
  0.027167  0.027167  0.000000     12.000000
  0.054333  0.027167  0.000000     24.000000
  0.081500  0.027167  0.000000     24.000000
  0.108666  0.027167  0.000000     24.000000
  0.054333  0.054333  0.000000     12.000000
  0.081500  0.054333  0.000000     24.000000
  0.108666  0.054333  0.000000     24.000000
  0.081500  0.081500  0.000000     12.000000
  0.108666  0.081500  0.000000     24.000000
  0.108666  0.108666  0.000000     12.000000
  0.027167  0.027167  0.027167      8.000000
  0.054333  0.027167  0.027167     24.000000
  0.081500  0.027167  0.027167     24.000000
  0.108666  0.027167  0.027167     24.000000
  0.054333  0.054333  0.027167     24.000000
  0.081500  0.054333  0.027167     48.000000
  0.108666  0.054333  0.027167     48.000000
  0.081500  0.081500  0.027167     24.000000
  0.108666  0.081500  0.027167     48.000000
  0.108666  0.108666  0.027167     24.000000
  0.054333  0.054333  0.054333      8.000000
  0.081500  0.054333  0.054333     24.000000
  0.108666  0.054333  0.054333     24.000000
  0.081500  0.081500  0.054333     24.000000
  0.108666  0.081500  0.054333     48.000000
  0.108666  0.108666  0.054333     24.000000
  0.081500  0.081500  0.081500      8.000000
  0.108666  0.081500  0.081500     24.000000
  0.108666  0.108666  0.081500     24.000000
  0.108666  0.108666  0.108666      8.000000
 


--------------------------------------------------------------------------------------------------------




 Dimension of arrays:
   k-points           NKPTS =     35   k-points in BZ     NKDIM =     35   number of bands    NBANDS=     48
   number of dos      NEDOS =    301   number of ions     NIONS =      4
   non local maximal  LDIM  =      6   non local SUM 2l+1 LMDIM =     18
   total plane-waves  NPLWV =   8000
   max r-space proj   IRMAX =      1   max aug-charges    IRDMAX=   5948
   dimension x,y,z NGX =    20 NGY =   20 NGZ =   20
   dimension x,y,z NGXF=    40 NGYF=   40 NGZF=   40
   support grid    NGXF=    40 NGYF=   40 NGZF=   40
   ions per type =               4
 NGX,Y,Z   is equivalent  to a cutoff of   8.13,  8.13,  8.13 a.u.
 NGXF,Y,Z  is equivalent  to a cutoff of  16.26, 16.26, 16.26 a.u.


 I would recommend the setting:
   dimension x,y,z NGX =    20 NGY =   20 NGZ =   20
 SYSTEM =  unknown system                          
 POSCAR =  Ag                                      

 Startparameter for this run:
   NWRITE =      2    write-flag & timer
   PREC   = normal    normal or accurate (medium, high low for compatibility)
   ISTART =      0    job   : 0-new  1-cont  2-samecut
   ICHARG =      2    charge: 1-file 2-atom 10-const
   ISPIN  =      1    spin polarized calculation?
   LNONCOLLINEAR =      F non collinear calculations
   LSORBIT =      F    spin-orbit coupling
   INIWAV =      1    electr: 0-lowe 1-rand  2-diag
   LASPH  =      F    aspherical Exc in radial PAW
   METAGGA=      F    non-selfconsistent MetaGGA calc.

 Electronic Relaxation 1
   ENCUT  =  400.0 eV  29.40 Ry    5.42 a.u.   6.67  6.67  6.67*2*pi/ulx,y,z
   ENINI  =  400.0     initial cutoff
   ENAUG  =  412.5 eV  augmentation charge cutoff
   NELM   =     60;   NELMIN=  2; NELMDL= -5     # of ELM steps 
   EDIFF  = 0.1E-03   stopping-criterion for ELM
   LREAL  =      F    real-space projection
   NLSPLINE    = F    spline interpolate recip. space projectors
   LCOMPAT=      F    compatible to vasp.4.4
   GGA_COMPAT  = T    GGA compatible to vasp.4.4-vasp.4.6
   LMAXPAW     = -100 max onsite density
   LMAXMIX     =    2 max onsite mixed and CHGCAR
   VOSKOWN=      0    Vosko Wilk Nusair interpolation
   ROPT   =    0.00000
 Ionic relaxation
   EDIFFG = 0.1E-02   stopping-criterion for IOM
   NSW    =      0    number of steps for IOM
   NBLOCK =      1;   KBLOCK =      1    inner block; outer block 
   IBRION =     -1    ionic relax: 0-MD 1-quasi-New 2-CG
   NFREE  =      0    steps in history (QN), initial steepest desc. (CG)
   ISIF   =      2    stress and relaxation
   IWAVPR =     10    prediction:  0-non 1-charg 2-wave 3-comb
   ISYM   =      2    0-nonsym 1-usesym 2-fastsym
   LCORR  =      T    Harris-Foulkes like correction to forces

   POTIM  = 0.5000    time-step for ionic-motion
   TEIN   =    0.0    initial temperature
   TEBEG  =    0.0;   TEEND  =   0.0 temperature during run
   SMASS  =  -3.00    Nose mass-parameter (am)
   estimated Nose-frequenzy (Omega)   =  0.10E-29 period in steps =****** mass=  -0.382E-27a.u.
   SCALEE = 1.0000    scale energy and forces
   NPACO  =    256;   APACO  = 16.0  distance and # of slots for P.C.
   PSTRESS=    0.0 pullay stress

  Mass of Ions in am
   POMASS = 107.87
  Ionic Valenz
   ZVAL   =  11.00
  Atomic Wigner-Seitz radii
   RWIGS  =  -1.00
  virtual crystal weights 
   VCA    =   1.00
   NELECT =      44.0000    total number of electrons
   NUPDOWN=      -1.0000    fix difference up-down

 DOS related values:
   EMIN   =  10.00;   EMAX   =-10.00  energy-range for DOS
   EFERMI =   0.00
   ISMEAR =     1;   SIGMA  =   0.10  broadening in eV -4-tet -1-fermi 0-gaus

 Electronic relaxation 2 (details)
   IALGO  =     38    algorithm
   LDIAG  =      T    sub-space diagonalisation (order eigenvalues)
   LSUBROT=      F    optimize rotation matrix (better conditioning)
   TURBO    =      0    0=normal 1=particle mesh
   IRESTART =      0    0=no restart 2=restart with 2 vectors
   NREBOOT  =      0    no. of reboots
   NMIN     =      0    reboot dimension
   EREF     =   0.00    reference energy to select bands
   IMIX   =      4    mixing-type and parameters
     AMIX     =   0.40;   BMIX     =  1.00
     AMIX_MAG =   1.60;   BMIX_MAG =  1.00
     AMIN     =   0.10
     WC   =   100.;   INIMIX=   1;  MIXPRE=   1;  MAXMIX= -45

 Intra band minimization:
   WEIMIN = 0.0000     energy-eigenvalue tresh-hold
   EBREAK =  0.52E-06  absolut break condition
   DEPER  =   0.30     relativ break condition  

   TIME   =   0.40     timestep for ELM

  volume/ion in A,a.u.               =      17.10       115.43
  Fermi-wavevector in a.u.,A,eV,Ry     =   1.413088  2.670348 27.168338  1.996817
  Thomas-Fermi vector in A             =   2.534769
 
 Write flags
   LWAVE  =      F    write WAVECAR
   LCHARG =      F    write CHGCAR
   LVTOT  =      F    write LOCPOT, total local potential
   LVHAR  =      F    write LOCPOT, Hartree potential only
   LELF   =      F    write electronic localiz. function (ELF)
   LORBIT =      0    0 simple, 1 ext, 2 COOP (PROOUT)


 Dipole corrections
   LMONO  =      F    monopole corrections only (constant potential shift)
   LDIPOL =      F    correct potential (dipole corrections)
   IDIPOL =      0    1-x, 2-y, 3-z, 4-all directions 
   EPSILON=  1.0000000 bulk dielectric constant

 Exchange correlation treatment:
   GGA     =    --    GGA type
   LEXCH   =     8    internal setting for exchange type
   VOSKOWN=      0    Vosko Wilk Nusair interpolation
   LHFCALC =     F    Hartree Fock is set to
   LHFONE  =     F    Hartree Fock one center treatment
   AEXX    =    0.0000 exact exchange contribution

 Linear response parameters
   LEPSILON=     F    determine dielectric tensor
   LRPA    =     F    only Hartree local field effects (RPA)
   LNABLA  =     F    use nabla operator in PAW spheres
   LVEL    =     F    velocity operator in full k-point grid
   LINTERFAST=   F  fast interpolation
   KINTER  =     0    interpolate to denser k-point grid
   CSHIFT  =0.1000    complex shift for real part using Kramers Kronig
   OMEGAMAX=  -1.0    maximum frequency
   DEG_THRESHOLD= 0.2000000E-02 threshold for treating states as degnerate
   RTIME   =    0.100 relaxation time in fs

 Orbital magnetization related:
   ORBITALMAG=     F  switch on orbital magnetization
   LCHIMAG   =     F  perturbation theory with respect to B field
   DQ        =  0.001000  dq finite difference perturbation B field



--------------------------------------------------------------------------------------------------------


 Static calculation
 charge density and potential will be updated during run
 non-spin polarized calculation
 Variant of blocked Davidson
 Davidson routine will perform the subspace rotation
 perform sub-space diagonalisation
    after iterative eigenvector-optimisation
 modified Broyden-mixing scheme, WC =      100.0
 initial mixing is a Kerker type mixing with AMIX =  0.4000 and BMIX =      1.0000
 Hartree-type preconditioning will be used
 using additional bands           26
 reciprocal scheme for non local part
 use partial core corrections
 calculate Harris-corrections to forces 
   (improved forces if not selfconsistent)
 use gradient corrections 
 use of overlap-Matrix (Vanderbilt PP)
 Methfessel and Paxton  Order N= 1 SIGMA  =   0.10


--------------------------------------------------------------------------------------------------------


  energy-cutoff  :      400.00
  volume of cell :       68.42
      direct lattice vectors                 reciprocal lattice vectors
     4.090000000  0.000000000  0.000000000     0.244498778  0.000000000  0.000000000
     0.000000000  4.090000000  0.000000000     0.000000000  0.244498778  0.000000000
     0.000000000  0.000000000  4.090000000     0.000000000  0.000000000  0.244498778

  length of vectors
     4.090000000  4.090000000  4.090000000     0.244498778  0.244498778  0.244498778


 
 k-points in units of 2pi/SCALE and weight: KPOINTS created by Atomic Simulation Env
   0.00000000  0.00000000  0.00000000       0.001
   0.02716653  0.00000000  0.00000000       0.008
   0.05433306  0.00000000  0.00000000       0.008
   0.08149959  0.00000000  0.00000000       0.008
   0.10866612  0.00000000  0.00000000       0.008
   0.02716653  0.02716653  0.00000000       0.016
   0.05433306  0.02716653  0.00000000       0.033
   0.08149959  0.02716653  0.00000000       0.033
   0.10866612  0.02716653  0.00000000       0.033
   0.05433306  0.05433306  0.00000000       0.016
   0.08149959  0.05433306  0.00000000       0.033
   0.10866612  0.05433306  0.00000000       0.033
   0.08149959  0.08149959  0.00000000       0.016
   0.10866612  0.08149959  0.00000000       0.033
   0.10866612  0.10866612  0.00000000       0.016
   0.02716653  0.02716653  0.02716653       0.011
   0.05433306  0.02716653  0.02716653       0.033
   0.08149959  0.02716653  0.02716653       0.033
   0.10866612  0.02716653  0.02716653       0.033
   0.05433306  0.05433306  0.02716653       0.033
   0.08149959  0.05433306  0.02716653       0.066
   0.10866612  0.05433306  0.02716653       0.066
   0.08149959  0.08149959  0.02716653       0.033
   0.10866612  0.08149959  0.02716653       0.066
   0.10866612  0.10866612  0.02716653       0.033
   0.05433306  0.05433306  0.05433306       0.011
   0.08149959  0.05433306  0.05433306       0.033
   0.10866612  0.05433306  0.05433306       0.033
   0.08149959  0.08149959  0.05433306       0.033
   0.10866612  0.08149959  0.05433306       0.066
   0.10866612  0.10866612  0.05433306       0.033
   0.08149959  0.08149959  0.08149959       0.011
   0.10866612  0.08149959  0.08149959       0.033
   0.10866612  0.10866612  0.08149959       0.033
   0.10866612  0.10866612  0.10866612       0.011
 
 k-points in reciprocal lattice and weights: KPOINTS created by Atomic Simulation Env
   0.00000000  0.00000000  0.00000000       0.001
   0.11111111  0.00000000  0.00000000       0.008
   0.22222222  0.00000000  0.00000000       0.008
   0.33333333  0.00000000  0.00000000       0.008
   0.44444444  0.00000000  0.00000000       0.008
   0.11111111  0.11111111  0.00000000       0.016
   0.22222222  0.11111111  0.00000000       0.033
   0.33333333  0.11111111  0.00000000       0.033
   0.44444444  0.11111111  0.00000000       0.033
   0.22222222  0.22222222  0.00000000       0.016
   0.33333333  0.22222222  0.00000000       0.033
   0.44444444  0.22222222  0.00000000       0.033
   0.33333333  0.33333333  0.00000000       0.016
   0.44444444  0.33333333  0.00000000       0.033
   0.44444444  0.44444444  0.00000000       0.016
   0.11111111  0.11111111  0.11111111       0.011
   0.22222222  0.11111111  0.11111111       0.033
   0.33333333  0.11111111  0.11111111       0.033
   0.44444444  0.11111111  0.11111111       0.033
   0.22222222  0.22222222  0.11111111       0.033
   0.33333333  0.22222222  0.11111111       0.066
   0.44444444  0.22222222  0.11111111       0.066
   0.33333333  0.33333333  0.11111111       0.033
   0.44444444  0.33333333  0.11111111       0.066
   0.44444444  0.44444444  0.11111111       0.033
   0.22222222  0.22222222  0.22222222       0.011
   0.33333333  0.22222222  0.22222222       0.033
   0.44444444  0.22222222  0.22222222       0.033
   0.33333333  0.33333333  0.22222222       0.033
   0.44444444  0.33333333  0.22222222       0.066
   0.44444444  0.44444444  0.22222222       0.033
   0.33333333  0.33333333  0.33333333       0.011
   0.44444444  0.33333333  0.33333333       0.033
   0.44444444  0.44444444  0.33333333       0.033
   0.44444444  0.44444444  0.44444444       0.011
 
 position of ions in fractional coordinates (direct lattice) 
   0.00000000  0.00000000  0.00000000
   0.00000000  0.50000000  0.50000000
   0.50000000  0.00000000  0.50000000
   0.50000000  0.50000000  0.00000000
 
 position of ions in cartesian coordinates  (Angst):
   0.00000000  0.00000000  0.00000000
   0.00000000  2.04500000  2.04500000
   2.04500000  0.00000000  2.04500000
   2.04500000  2.04500000  0.00000000
 


--------------------------------------------------------------------------------------------------------


 k-point  1 :   0.0000 0.0000 0.0000  plane waves:    1237
 k-point  2 :   0.1111 0.0000 0.0000  plane waves:    1257
 k-point  3 :   0.2222 0.0000 0.0000  plane waves:    1261
 k-point  4 :   0.3333 0.0000 0.0000  plane waves:    1238
 k-point  5 :   0.4444 0.0000 0.0000  plane waves:    1230
 k-point  6 :   0.1111 0.1111 0.0000  plane waves:    1259
 k-point  7 :   0.2222 0.1111 0.0000  plane waves:    1254
 k-point  8 :   0.3333 0.1111 0.0000  plane waves:    1243
 k-point  9 :   0.4444 0.1111 0.0000  plane waves:    1233
 k-point 10 :   0.2222 0.2222 0.0000  plane waves:    1253
 k-point 11 :   0.3333 0.2222 0.0000  plane waves:    1237
 k-point 12 :   0.4444 0.2222 0.0000  plane waves:    1239
 k-point 13 :   0.3333 0.3333 0.0000  plane waves:    1242
 k-point 14 :   0.4444 0.3333 0.0000  plane waves:    1249
 k-point 15 :   0.4444 0.4444 0.0000  plane waves:    1238
 k-point 16 :   0.1111 0.1111 0.1111  plane waves:    1267
 k-point 17 :   0.2222 0.1111 0.1111  plane waves:    1256
 k-point 18 :   0.3333 0.1111 0.1111  plane waves:    1242
 k-point 19 :   0.4444 0.1111 0.1111  plane waves:    1234
 k-point 20 :   0.2222 0.2222 0.1111  plane waves:    1239
 k-point 21 :   0.3333 0.2222 0.1111  plane waves:    1237
 k-point 22 :   0.4444 0.2222 0.1111  plane waves:    1248
 k-point 23 :   0.3333 0.3333 0.1111  plane waves:    1241
 k-point 24 :   0.4444 0.3333 0.1111  plane waves:    1240
 k-point 25 :   0.4444 0.4444 0.1111  plane waves:    1242
 k-point 26 :   0.2222 0.2222 0.2222  plane waves:    1244
 k-point 27 :   0.3333 0.2222 0.2222  plane waves:    1242
 k-point 28 :   0.4444 0.2222 0.2222  plane waves:    1242
 k-point 29 :   0.3333 0.3333 0.2222  plane waves:    1237
 k-point 30 :   0.4444 0.3333 0.2222  plane waves:    1235
 k-point 31 :   0.4444 0.4444 0.2222  plane waves:    1236
 k-point 32 :   0.3333 0.3333 0.3333  plane waves:    1229
 k-point 33 :   0.4444 0.3333 0.3333  plane waves:    1243
 k-point 34 :   0.4444 0.4444 0.3333  plane waves:    1240
 k-point 35 :   0.4444 0.4444 0.4444  plane waves:    1262

 maximum and minimum number of plane-waves per node :      1267     1229

 maximum number of plane-waves:      1267
 maximum index in each direction: 
   IXMAX=    6   IYMAX=    6   IZMAX=    6
   IXMIN=   -7   IYMIN=   -7   IZMIN=   -7

 WARNING: aliasing errors must be expected set NGX to  28 to avoid them
 WARNING: aliasing errors must be expected set NGY to  28 to avoid them
 WARNING: aliasing errors must be expected set NGZ to  28 to avoid them
 aliasing errors are usually negligible using standard VASP settings
 and one can safely disregard these warnings

 serial   3D FFT for wavefunctions
 parallel 3D FFT for charge:
    minimum data exchange during FFTs selected (reduces bandwidth)


 total amount of memory used by VASP on root node    38691. kBytes
========================================================================

   base      :      30000. kBytes
   nonl-proj :       6492. kBytes
   fftplans  :        147. kBytes
   grid      :        485. kBytes
   one-center:         62. kBytes
   wavefun   :       1505. kBytes
 
     INWAV:  cpu time    0.0000: real time    0.0124
 Broyden mixing: mesh for mixing (old mesh)
   NGX = 13   NGY = 13   NGZ = 13
  (NGX  = 40   NGY  = 40   NGZ  = 40)
  gives a total of   2197 points

 initial charge density was supplied:
 charge density of overlapping atoms calculated
 number of electron      44.0000000 magnetization 
 keeping initial charge density in first step


--------------------------------------------------------------------------------------------------------


 Maximum index for augmentation-charges          377 (set IRDMAX)


--------------------------------------------------------------------------------------------------------


 First call to EWALD:  gamma=   0.433
 Maximum number of real-space cells 3x 3x 3
 Maximum number of reciprocal cells 3x 3x 3

 FEWALD executed in parallel
    FEWALD:  cpu time    0.0022: real time    0.0022


----------------------------------------- Iteration    1(   1)  ---------------------------------------


    POTLOK:  cpu time    0.0698: real time    0.1298
    SETDIJ:  cpu time    0.0053: real time    0.0053
     EDDAV:  cpu time    0.5143: real time    0.5144
       DOS:  cpu time    0.0010: real time    0.0010
    --------------------------------------------
      LOOP:  cpu time    0.5925: real time    0.6736

 eigenvalue-minimisations  :  3360
 total energy-change (2. order) : 0.1947675E+03  (-0.1875561E+04)
 number of electron      44.0000000 magnetization 
 augmentation part       44.0000000 magnetization 

 Free energy of the ion-electron system (eV)
  ---------------------------------------------------
  alpha Z        PSCENC =       198.91349099
  Ewald energy   TEWEN  =     -3906.37931032
  -Hartree energ DENC   =      -811.91229488
  -exchange      EXHF   =         0.00000000
  -V(xc)+E(xc)   XCENC  =       -41.67125304
  PAW double counting   =      4013.84859731    -3829.39709692
  entropy T*S    EENTRO =        -0.00420503
  eigenvalues    EBANDS =       422.33588648
  atomic energy  EATOM  =      4149.03371350
  Solvation  Ediel_sol  =         0.00000000
  ---------------------------------------------------
  free energy    TOTEN  =       194.76752809 eV

  energy without entropy =      194.77173312  energy(sigma->0) =      194.76892977


--------------------------------------------------------------------------------------------------------




----------------------------------------- Iteration    1(   2)  ---------------------------------------


     EDDAV:  cpu time    0.6668: real time    0.6669
       DOS:  cpu time    0.0007: real time    0.0007
    --------------------------------------------
      LOOP:  cpu time    0.6688: real time    0.6700

 eigenvalue-minimisations  :  4272
 total energy-change (2. order) :-0.2036202E+03  (-0.1912229E+03)
 number of electron      44.0000000 magnetization 
 augmentation part       44.0000000 magnetization 

 Free energy of the ion-electron system (eV)
  ---------------------------------------------------
  alpha Z        PSCENC =       198.91349099
  Ewald energy   TEWEN  =     -3906.37931032
  -Hartree energ DENC   =      -811.91229488
  -exchange      EXHF   =         0.00000000
  -V(xc)+E(xc)   XCENC  =       -41.67125304
  PAW double counting   =      4013.84859731    -3829.39709692
  entropy T*S    EENTRO =        -0.00158660
  eigenvalues    EBANDS =       218.71309738
  atomic energy  EATOM  =      4149.03371350
  Solvation  Ediel_sol  =         0.00000000
  ---------------------------------------------------
  free energy    TOTEN  =        -8.85264258 eV

  energy without entropy =       -8.85105598  energy(sigma->0) =       -8.85211372


--------------------------------------------------------------------------------------------------------




----------------------------------------- Iteration    1(   3)  ---------------------------------------


     EDDAV:  cpu time    0.6244: real time    0.6250
       DOS:  cpu time    0.0008: real time    0.0008
    --------------------------------------------
      LOOP:  cpu time    0.6263: real time    0.6281

 eigenvalue-minimisations  :  4128
 total energy-change (2. order) :-0.3004379E+01  (-0.3002007E+01)
 number of electron      44.0000000 magnetization 
 augmentation part       44.0000000 magnetization 

 Free energy of the ion-electron system (eV)
  ---------------------------------------------------
  alpha Z        PSCENC =       198.91349099
  Ewald energy   TEWEN  =     -3906.37931032
  -Hartree energ DENC   =      -811.91229488
  -exchange      EXHF   =         0.00000000
  -V(xc)+E(xc)   XCENC  =       -41.67125304
  PAW double counting   =      4013.84859731    -3829.39709692
  entropy T*S    EENTRO =        -0.00145689
  eigenvalues    EBANDS =       215.70858849
  atomic energy  EATOM  =      4149.03371350
  Solvation  Ediel_sol  =         0.00000000
  ---------------------------------------------------
  free energy    TOTEN  =       -11.85702176 eV

  energy without entropy =      -11.85556487  energy(sigma->0) =      -11.85653613


--------------------------------------------------------------------------------------------------------




----------------------------------------- Iteration    1(   4)  ---------------------------------------


     EDDAV:  cpu time    0.7758: real time    0.7759
       DOS:  cpu time    0.0008: real time    0.0008
    --------------------------------------------
      LOOP:  cpu time    0.7776: real time    0.7792

 eigenvalue-minimisations  :  4728
 total energy-change (2. order) :-0.9112283E-02  (-0.9112124E-02)
 number of electron      44.0000000 magnetization 
 augmentation part       44.0000000 magnetization 

 Free energy of the ion-electron system (eV)
  ---------------------------------------------------
  alpha Z        PSCENC =       198.91349099
  Ewald energy   TEWEN  =     -3906.37931032
  -Hartree energ DENC   =      -811.91229488
  -exchange      EXHF   =         0.00000000
  -V(xc)+E(xc)   XCENC  =       -41.67125304
  PAW double counting   =      4013.84859731    -3829.39709692
  entropy T*S    EENTRO =        -0.00145617
  eigenvalues    EBANDS =       215.69947548
  atomic energy  EATOM  =      4149.03371350
  Solvation  Ediel_sol  =         0.00000000
  ---------------------------------------------------
  free energy    TOTEN  =       -11.86613405 eV

  energy without entropy =      -11.86467788  energy(sigma->0) =      -11.86564866


--------------------------------------------------------------------------------------------------------




----------------------------------------- Iteration    1(   5)  ---------------------------------------


     EDDAV:  cpu time    0.5733: real time    0.5734
       DOS:  cpu time    0.0007: real time    0.0007
    CHARGE:  cpu time    0.0115: real time    0.0116
    MIXING:  cpu time    0.0005: real time    0.0006
    --------------------------------------------
      LOOP:  cpu time    0.5870: real time    0.5888

 eigenvalue-minimisations  :  3816
 total energy-change (2. order) :-0.8289343E-04  (-0.8289248E-04)
 number of electron      43.9999963 magnetization 
 augmentation part       20.2670035 magnetization 

 Broyden mixing:
  rms(total) = 0.10363E+01    rms(broyden)= 0.10363E+01
  rms(prec ) = 0.17250E+01
  weight for this iteration     100.00

 Free energy of the ion-electron system (eV)
  ---------------------------------------------------
  alpha Z        PSCENC =       198.91349099
  Ewald energy   TEWEN  =     -3906.37931032
  -Hartree energ DENC   =      -811.91229488
  -exchange      EXHF   =         0.00000000
  -V(xc)+E(xc)   XCENC  =       -41.67125304
  PAW double counting   =      4013.84859731    -3829.39709692
  entropy T*S    EENTRO =        -0.00145616
  eigenvalues    EBANDS =       215.69939259
  atomic energy  EATOM  =      4149.03371350
  Solvation  Ediel_sol  =         0.00000000
  ---------------------------------------------------
  free energy    TOTEN  =       -11.86621694 eV

  energy without entropy =      -11.86476078  energy(sigma->0) =      -11.86573155


--------------------------------------------------------------------------------------------------------




----------------------------------------- Iteration    1(   6)  ---------------------------------------


    POTLOK:  cpu time    0.0051: real time    0.0051
    SETDIJ:  cpu time    0.0023: real time    0.0023
     EDDAV:  cpu time    0.6638: real time    0.6639
       DOS:  cpu time    0.0007: real time    0.0007
    CHARGE:  cpu time    0.0093: real time    0.0093
    MIXING:  cpu time    0.0004: real time    0.0004
    --------------------------------------------
      LOOP:  cpu time    0.6827: real time    0.6844

 eigenvalue-minimisations  :  4248
 total energy-change (2. order) : 0.9803200E+00  (-0.2452377E+00)
 number of electron      43.9999961 magnetization 
 augmentation part       20.9265452 magnetization 

 Broyden mixing:
  rms(total) = 0.66780E+00    rms(broyden)= 0.66778E+00
  rms(prec ) = 0.70655E+00
  weight for this iteration     100.00

 eigenvalues of (default mixing * dielectric matrix)
  average eigenvalue GAMMA=   1.3253
  1.3253

 Free energy of the ion-electron system (eV)
  ---------------------------------------------------
  alpha Z        PSCENC =       198.91349099
  Ewald energy   TEWEN  =     -3906.37931032
  -Hartree energ DENC   =      -772.77870509
  -exchange      EXHF   =         0.00000000
  -V(xc)+E(xc)   XCENC  =       -43.07952565
  PAW double counting   =      4191.83828711    -4011.58612622
  entropy T*S    EENTRO =        -0.00192660
  eigenvalues    EBANDS =       183.15420530
  atomic energy  EATOM  =      4149.03371350
  Solvation  Ediel_sol  =         0.00000000
  ---------------------------------------------------
  free energy    TOTEN  =       -10.88589697 eV

  energy without entropy =      -10.88397037  energy(sigma->0) =      -10.88525477


--------------------------------------------------------------------------------------------------------




----------------------------------------- Iteration    1(   7)  ---------------------------------------


    POTLOK:  cpu time    0.0030: real time    0.0030
    SETDIJ:  cpu time    0.0021: real time    0.0021
     EDDAV:  cpu time    0.6033: real time    0.6038
       DOS:  cpu time    0.0007: real time    0.0007
    CHARGE:  cpu time    0.0089: real time    0.0089
    MIXING:  cpu time    0.0003: real time    0.0003
    --------------------------------------------
      LOOP:  cpu time    0.6193: real time    0.6216

 eigenvalue-minimisations  :  3960
 total energy-change (2. order) : 0.3366977E-01  (-0.3222605E-02)
 number of electron      43.9999961 magnetization 
 augmentation part       20.9879898 magnetization 

 Broyden mixing:
  rms(total) = 0.37200E+00    rms(broyden)= 0.37200E+00
  rms(prec ) = 0.38134E+00
  weight for this iteration     100.00

 eigenvalues of (default mixing * dielectric matrix)
  average eigenvalue GAMMA=   1.8406
  1.0802  2.6011

 Free energy of the ion-electron system (eV)
  ---------------------------------------------------
  alpha Z        PSCENC =       198.91349099
  Ewald energy   TEWEN  =     -3906.37931032
  -Hartree energ DENC   =      -765.64113571
  -exchange      EXHF   =         0.00000000
  -V(xc)+E(xc)   XCENC  =       -43.34680729
  PAW double counting   =      4325.20501425    -4148.11442408
  entropy T*S    EENTRO =        -0.00175980
  eigenvalues    EBANDS =       179.47899126
  atomic energy  EATOM  =      4149.03371350
  Solvation  Ediel_sol  =         0.00000000
  ---------------------------------------------------
  free energy    TOTEN  =       -10.85222720 eV

  energy without entropy =      -10.85046740  energy(sigma->0) =      -10.85164060


--------------------------------------------------------------------------------------------------------




----------------------------------------- Iteration    1(   8)  ---------------------------------------


    POTLOK:  cpu time    0.0045: real time    0.0045
    SETDIJ:  cpu time    0.0021: real time    0.0021
     EDDAV:  cpu time    0.6984: real time    0.6985
       DOS:  cpu time    0.0010: real time    0.0010
    CHARGE:  cpu time    0.0097: real time    0.0097
    MIXING:  cpu time    0.0003: real time    0.0003
    --------------------------------------------
      LOOP:  cpu time    0.7172: real time    0.7195

 eigenvalue-minimisations  :  4392
 total energy-change (2. order) : 0.1144387E-01  (-0.2573528E-03)
 number of electron      43.9999961 magnetization 
 augmentation part       20.9919607 magnetization 

 Broyden mixing:
  rms(total) = 0.18284E-01    rms(broyden)= 0.18283E-01
  rms(prec ) = 0.18711E-01
  weight for this iteration     100.00

 eigenvalues of (default mixing * dielectric matrix)
  average eigenvalue GAMMA=   1.5081
  2.5099  1.0872  0.9272

 Free energy of the ion-electron system (eV)
  ---------------------------------------------------
  alpha Z        PSCENC =       198.91349099
  Ewald energy   TEWEN  =     -3906.37931032
  -Hartree energ DENC   =      -760.88170443
  -exchange      EXHF   =         0.00000000
  -V(xc)+E(xc)   XCENC  =       -43.53165722
  PAW double counting   =      4474.06609543    -4300.56753249
  entropy T*S    EENTRO =        -0.00175128
  eigenvalues    EBANDS =       178.50787249
  atomic energy  EATOM  =      4149.03371350
  Solvation  Ediel_sol  =         0.00000000
  ---------------------------------------------------
  free energy    TOTEN  =       -10.84078333 eV

  energy without entropy =      -10.83903205  energy(sigma->0) =      -10.84019957


--------------------------------------------------------------------------------------------------------




----------------------------------------- Iteration    1(   9)  ---------------------------------------


    POTLOK:  cpu time    0.0041: real time    0.0041
    SETDIJ:  cpu time    0.0021: real time    0.0021
     EDDAV:  cpu time    0.5505: real time    0.5506
       DOS:  cpu time    0.0009: real time    0.0009
    --------------------------------------------
      LOOP:  cpu time    0.5587: real time    0.5601

 eigenvalue-minimisations  :  3288
 total energy-change (2. order) :-0.2249537E-04  (-0.2789759E-05)
 number of electron      43.9999961 magnetization 
 augmentation part       20.9919607 magnetization 

 Free energy of the ion-electron system (eV)
  ---------------------------------------------------
  alpha Z        PSCENC =       198.91349099
  Ewald energy   TEWEN  =     -3906.37931032
  -Hartree energ DENC   =      -761.10401255
  -exchange      EXHF   =         0.00000000
  -V(xc)+E(xc)   XCENC  =       -43.52390456
  PAW double counting   =      4468.74471009    -4295.02622778
  entropy T*S    EENTRO =        -0.00175068
  eigenvalues    EBANDS =       178.50248547
  atomic energy  EATOM  =      4149.03371350
  Solvation  Ediel_sol  =         0.00000000
  ---------------------------------------------------
  free energy    TOTEN  =       -10.84080583 eV

  energy without entropy =      -10.83905514  energy(sigma->0) =      -10.84022227


--------------------------------------------------------------------------------------------------------




 average (electrostatic) potential at core
  the test charge radii are     1.1249
  (the norm of the test charge is              1.0000)
       1 -70.8068       2 -70.8068       3 -70.8068       4 -70.8068
 
 
 
 E-fermi :   8.2919     XC(G=0): -12.1903     alpha+bet :-13.4196


 k-point     1 :       0.0000    0.0000    0.0000
  band No.  band energies     occupation 
      1       0.6417      2.00000
      2       1.9638      2.00000
      3       1.9638      2.00000
      4       1.9638      2.00000
      5       2.1013      2.00000
      6       2.1013      2.00000
      7       2.1013      2.00000
      8       3.5886      2.00000
      9       3.5886      2.00000
     10       3.5886      2.00000
     11       4.6175      2.00000
     12       4.6175      2.00000
     13       5.3765      2.00000
     14       5.3765      2.00000
     15       5.3765      2.00000
     16       5.6143      2.00000
     17       5.6143      2.00000
     18       5.6143      2.00000
     19       5.6143      2.00000
     20       5.6143      2.00000
     21       5.6143      2.00000
     22       9.9954     -0.00000
     23       9.9954     -0.00000
     24       9.9954     -0.00000
     25      15.1024      0.00000
     26      15.1024      0.00000
     27      15.1024      0.00000
     28      19.0351      0.00000
     29      19.0351      0.00000
     30      19.0351      0.00000
     31      19.0351      0.00000
     32      19.0351      0.00000
     33      19.0351      0.00000
     34      24.4069      0.00000
     35      25.5320      0.00000
     36      25.5320      0.00000
     37      25.5320      0.00000
     38      25.5973      0.00000
     39      25.5973      0.00000
     40      25.5973      0.00000
     41      27.9640      0.00000
     42      27.9640      0.00000
     43      27.9640      0.00000
     44      32.7642      0.00000
     45      33.8845      0.00000
     46      33.8845      0.00000
     47      33.8845      0.00000
     48      37.8889      0.00000

 k-point     2 :       0.1111    0.0000    0.0000
  band No.  band energies     occupation 
      1       0.7705      2.00000
      2       2.0163      2.00000
      3       2.0321      2.00000
      4       2.0321      2.00000
      5       2.1413      2.00000
      6       2.1628      2.00000
      7       2.1628      2.00000
      8       3.5380      2.00000
      9       3.6354      2.00000
     10       3.6354      2.00000
     11       4.5672      2.00000
     12       4.6391      2.00000
     13       5.3087      2.00000
     14       5.3087      2.00000
     15       5.3521      2.00000
     16       5.3781      2.00000
     17       5.3781      2.00000
     18       5.5313      2.00000
     19       5.5313      2.00000
     20       5.6144      2.00000
     21       5.6144      2.00000
     22       9.2092     -0.00000
     23      10.3379     -0.00000
     24      10.3379     -0.00000
     25      15.1156      0.00000
     26      15.1156      0.00000
     27      16.0843      0.00000
     28      18.6376      0.00000
     29      18.6376      0.00000
     30      18.6448      0.00000
     31      18.6448      0.00000
     32      19.2651      0.00000
     33      19.2651      0.00000
     34      24.4530      0.00000
     35      25.5062      0.00000
     36      25.5760      0.00000
     37      25.9538      0.00000
     38      25.9538      0.00000
     39      26.3008      0.00000
     40      26.3008      0.00000
     41      27.4469      0.00000
     42      27.6476      0.00000
     43      27.6476      0.00000
     44      33.5427      0.00000
     45      33.6255      0.00000
     46      33.6255      0.00000
     47      34.0934      0.00000
     48      36.4941      0.00000

 k-point     3 :       0.2222    0.0000    0.0000
  band No.  band energies     occupation 
      1       1.1437      2.00000
      2       2.1606      2.00000
      3       2.2209      2.00000
      4       2.2209      2.00000
      5       2.2579      2.00000
      6       2.3465      2.00000
      7       2.3465      2.00000
      8       3.3947      2.00000
      9       3.7735      2.00000
     10       3.7735      2.00000
     11       4.4345      2.00000
     12       4.7021      2.00000
     13       4.8304      2.00000
     14       4.8304      2.00000
     15       5.1200      2.00000
     16       5.1200      2.00000
     17       5.2828      2.00000
     18       5.3043      2.00000
     19       5.3043      2.00000
     20       5.6145      2.00000
     21       5.6145      2.00000
     22       7.7065      2.00000
     23      11.2019      0.00000
     24      11.2019      0.00000
     25      15.1603      0.00000
     26      15.1603      0.00000
     27      17.6530      0.00000
     28      17.6530      0.00000
     29      17.8426      0.00000
     30      17.8426      0.00000
     31      18.1699      0.00000
     32      19.9295      0.00000
     33      19.9295      0.00000
     34      24.5797      0.00000
     35      25.4301      0.00000
     36      25.5500      0.00000
     37      26.4839      0.00000
     38      26.7072      0.00000
     39      26.7072      0.00000
     40      27.0262      0.00000
     41      27.0262      0.00000
     42      28.0241      0.00000
     43      28.0241      0.00000
     44      33.2464      0.00000
     45      33.4965      0.00000
     46      33.4965      0.00000
     47      34.7204      0.00000
     48      35.9774      0.00000

 k-point     4 :       0.3333    0.0000    0.0000
  band No.  band energies     occupation 
      1       1.7040      2.00000
      2       2.3509      2.00000
      3       2.4409      2.00000
      4       2.4753      2.00000
      5       2.4753      2.00000
      6       2.6504      2.00000
      7       2.6504      2.00000
      8       3.1816      2.00000
      9       3.9958      2.00000
     10       3.9958      2.00000
     11       4.1961      2.00000
     12       4.1961      2.00000
     13       4.2934      2.00000
     14       4.7995      2.00000
     15       4.8640      2.00000
     16       4.8640      2.00000
     17       4.9849      2.00000
     18       4.9849      2.00000
     19       5.1784      2.00000
     20       5.6148      2.00000
     21       5.6148      2.00000
     22       6.2097      2.00000
     23      12.3520      0.00000
     24      12.3520      0.00000
     25      15.2440      0.00000
     26      15.2440      0.00000
     27      16.3880      0.00000
     28      16.3880      0.00000
     29      17.0902      0.00000
     30      17.0902      0.00000
     31      20.6127      0.00000
     32      20.9628      0.00000
     33      20.9628      0.00000
     34      24.7586      0.00000
     35      25.3076      0.00000
     36      25.3218      0.00000
     37      25.3218      0.00000
     38      25.5649      0.00000
     39      25.6398      0.00000
     40      28.4811      0.00000
     41      28.4811      0.00000
     42      30.2314      0.00000
     43      30.2314      0.00000
     44      30.4303      0.00000
     45      33.9474      0.00000
     46      33.9474      0.00000
     47      34.1278      0.00000
     48      34.1278      0.00000

 k-point     5 :       0.4444    0.0000    0.0000
  band No.  band energies     occupation 
      1       2.2619      2.00000
      2       2.4681      2.00000
      3       2.6729      2.00000
      4       2.6792      2.00000
      5       2.6792      2.00000
      6       2.9299      2.00000
      7       3.0692      2.00000
      8       3.0692      2.00000
      9       3.5921      2.00000
     10       3.5921      2.00000
     11       4.2889      2.00000
     12       4.2889      2.00000
     13       4.3577      2.00000
     14       4.6301      2.00000
     15       4.6301      2.00000
     16       4.6575      2.00000
     17       4.6575      2.00000
     18       4.9207      2.00000
     19       5.0011      2.00000
     20       5.0523      2.00000
     21       5.6151      2.00000
     22       5.6151      2.00000
     23      13.6523      0.00000
     24      13.6523      0.00000
     25      15.0216      0.00000
     26      15.0216      0.00000
     27      15.3394      0.00000
     28      15.3394      0.00000
     29      16.6251      0.00000
     30      16.6251      0.00000
     31      22.2787      0.00000
     32      22.2787      0.00000
     33      23.0012      0.00000
     34      23.7762      0.00000
     35      23.7762      0.00000
     36      24.6248      0.00000
     37      24.9564      0.00000
     38      25.1457      0.00000
     39      26.1448      0.00000
     40      27.7750      0.00000
     41      30.1889      0.00000
     42      30.1889      0.00000
     43      32.0928      0.00000
     44      32.0928      0.00000
     45      32.3675      0.00000
     46      32.3675      0.00000
     47      34.9258      0.00000
     48      34.9258      0.00000

 k-point     6 :       0.1111    0.1111    0.0000
  band No.  band energies     occupation 
      1       0.8960      2.00000
      2       2.0807      2.00000
      3       2.0852      2.00000
      4       2.0852      2.00000
      5       2.2013      2.00000
      6       2.2013      2.00000
      7       2.2394      2.00000
      8       3.5201      2.00000
      9       3.6519      2.00000
     10       3.6762      2.00000
     11       4.5544      2.00000
     12       4.6316      2.00000
     13       5.2001      2.00000
     14       5.2001      2.00000
     15       5.2259      2.00000
     16       5.2459      2.00000
     17       5.3782      2.00000
     18       5.3782      2.00000
     19       5.5309      2.00000
     20       5.5309      2.00000
     21       5.5570      2.00000
     22       9.5318     -0.00000
     23       9.5318     -0.00000
     24      10.6546     -0.00000
     25      15.1260      0.00000
     26      16.1169      0.00000
     27      16.1169      0.00000
     28      17.3804      0.00000
     29      18.8534      0.00000
     30      18.8534      0.00000
     31      18.8562      0.00000
     32      18.8562      0.00000
     33      19.4767      0.00000
     34      24.4225      0.00000
     35      25.4626      0.00000
     36      25.9424      0.00000
     37      25.9424      0.00000
     38      26.2958      0.00000
     39      26.2958      0.00000
     40      26.2980      0.00000
     41      27.4532      0.00000
     42      27.5564      0.00000
     43      28.4354      0.00000
     44      32.2402      0.00000
     45      33.8295      0.00000
     46      33.8614      0.00000
     47      35.0535      0.00000
     48      36.3110      0.00000

 k-point     7 :       0.2222    0.1111    0.0000
  band No.  band energies     occupation 
      1       1.2593      2.00000
      2       2.2307      2.00000
      3       2.2324      2.00000
      4       2.2766      2.00000
      5       2.3137      2.00000
      6       2.3806      2.00000
      7       2.4486      2.00000
      8       3.3984      2.00000
      9       3.7750      2.00000
     10       3.7910      2.00000
     11       4.4474      2.00000
     12       4.6931      2.00000
     13       4.6990      2.00000
     14       4.7540      2.00000
     15       4.9558      2.00000
     16       5.0702      2.00000
     17       5.1585      2.00000
     18       5.3029      2.00000
     19       5.3160      2.00000
     20       5.5286      2.00000
     21       5.5300      2.00000
     22       8.0319      2.00146
     23      10.3174     -0.00000
     24      11.4736      0.00000
     25      15.1274      0.00000
     26      16.1195      0.00000
     27      16.2092      0.00000
     28      17.8551      0.00000
     29      18.0374      0.00000
     30      18.1981      0.00000
     31      19.4402      0.00000
     32      19.4558      0.00000
     33      19.4830      0.00000
     34      24.2699      0.00000
     35      25.0330      0.00000
     36      25.9120      0.00000
     37      25.9720      0.00000
     38      26.3249      0.00000
     39      26.9060      0.00000
     40      27.0401      0.00000
     41      28.0195      0.00000
     42      28.2090      0.00000
     43      29.3957      0.00000
     44      31.6579      0.00000
     45      33.6441      0.00000
     46      34.1744      0.00000
     47      34.5144      0.00000
     48      35.9533      0.00000

 k-point     8 :       0.3333    0.1111    0.0000
  band No.  band energies     occupation 
      1       1.8030      2.00000
      2       2.4280      2.00000
      3       2.4697      2.00000
      4       2.4898      2.00000
      5       2.5351      2.00000
      6       2.6766      2.00000
      7       2.7454      2.00000
      8       3.1981      2.00000
      9       3.9238      2.00000
     10       3.9937      2.00000
     11       4.0909      2.00000
     12       4.1636      2.00000
     13       4.3770      2.00000
     14       4.6186      2.00000
     15       4.8251      2.00000
     16       4.8308      2.00000
     17       4.8934      2.00000
     18       4.9824      2.00000
     19       5.1911      2.00000
     20       5.5239      2.00000
     21       5.5284      2.00000
     22       6.5805      2.00000
     23      11.3174      0.00000
     24      12.5880      0.00000
     25      14.6013      0.00000
     26      15.5366      0.00000
     27      16.2744      0.00000
     28      16.5833      0.00000
     29      17.4072      0.00000
     30      18.7787      0.00000
     31      20.2861      0.00000
     32      20.4400      0.00000
     33      20.7062      0.00000
     34      23.7878      0.00000
     35      23.8213      0.00000
     36      25.8759      0.00000
     37      26.2839      0.00000
     38      26.5189      0.00000
     39      26.9469      0.00000
     40      27.3602      0.00000
     41      28.5165      0.00000
     42      30.0698      0.00000
     43      30.5939      0.00000
     44      31.5176      0.00000
     45      33.1829      0.00000
     46      33.9934      0.00000
     47      34.0779      0.00000
     48      34.2081      0.00000

 k-point     9 :       0.4444    0.1111    0.0000
  band No.  band energies     occupation 
      1       2.3475      2.00000
      2       2.5518      2.00000
      3       2.7107      2.00000
      4       2.7126      2.00000
      5       2.7393      2.00000
      6       2.9584      2.00000
      7       3.0831      2.00000
      8       3.0918      2.00000
      9       3.5357      2.00000
     10       3.5875      2.00000
     11       3.9881      2.00000
     12       4.2372      2.00000
     13       4.2859      2.00000
     14       4.6084      2.00000
     15       4.6271      2.00000
     16       4.6439      2.00000
     17       4.6689      2.00000
     18       4.9911      2.00000
     19       5.0112      2.00000
     20       5.4829      2.00000
     21       5.5244      2.00000
     22       5.5265      2.00000
     23      12.3994      0.00000
     24      13.5079      0.00000
     25      13.8647      0.00000
     26      15.2207      0.00000
     27      15.7090      0.00000
     28      16.0437      0.00000
     29      17.4475      0.00000
     30      18.0118      0.00000
     31      21.4365      0.00000
     32      21.6114      0.00000
     33      22.6281      0.00000
     34      22.8230      0.00000
     35      23.1320      0.00000
     36      25.2811      0.00000
     37      25.8645      0.00000
     38      25.9502      0.00000
     39      27.1159      0.00000
     40      28.4873      0.00000
     41      29.1095      0.00000
     42      30.2418      0.00000
     43      30.7067      0.00000
     44      32.1614      0.00000
     45      33.6168      0.00000
     46      33.6655      0.00000
     47      34.0571      0.00000
     48      34.9009      0.00000

 k-point    10 :       0.2222    0.2222    0.0000
  band No.  band energies     occupation 
      1       1.5907      2.00000
      2       2.3203      2.00000
      3       2.4322      2.00000
      4       2.4322      2.00000
      5       2.4798      2.00000
      6       2.4798      2.00000
      7       2.6792      2.00000
      8       3.3593      2.00000
      9       3.8336      2.00000
     10       3.8409      2.00000
     11       4.4038      2.00000
     12       4.4110      2.00000
     13       4.4110      2.00000
     14       4.4855      2.00000
     15       4.7891      2.00000
     16       4.9281      2.00000
     17       5.1564      2.00000
     18       5.1564      2.00000
     19       5.2992      2.00000
     20       5.2992      2.00000
     21       5.3902      2.00000
     22       8.7743     -0.00000
     23       8.7743     -0.00000
     24      12.2046      0.00000
     25      14.3239      0.00000
     26      15.4648      0.00000
     27      18.0316      0.00000
     28      18.0316      0.00000
     29      18.4308      0.00000
     30      18.4308      0.00000
     31      18.8154      0.00000
     32      18.8154      0.00000
     33      20.7191      0.00000
     34      23.5397      0.00000
     35      23.6024      0.00000
     36      25.2437      0.00000
     37      27.0845      0.00000
     38      27.0845      0.00000
     39      27.2425      0.00000
     40      28.0574      0.00000
     41      28.0574      0.00000
     42      29.7445      0.00000
     43      29.7520      0.00000
     44      31.3579      0.00000
     45      33.5575      0.00000
     46      33.7075      0.00000
     47      34.7291      0.00000
     48      35.4577      0.00000

 k-point    11 :       0.3333    0.2222    0.0000
  band No.  band energies     occupation 
      1       2.0792      2.00000
      2       2.5113      2.00000
      3       2.6341      2.00000
      4       2.6444      2.00000
      5       2.7049      2.00000
      6       2.7519      2.00000
      7       2.9609      2.00000
      8       3.2265      2.00000
      9       3.8553      2.00000
     10       3.8574      2.00000
     11       4.0120      2.00000
     12       4.0494      2.00000
     13       4.0798      2.00000
     14       4.3681      2.00000
     15       4.7297      2.00000
     16       4.9056      2.00000
     17       4.9767      2.00000
     18       5.0319      2.00000
     19       5.0517      2.00000
     20       5.2944      2.00000
     21       5.3188      2.00000
     22       7.3197      2.00000
     23       9.6877     -0.00000
     24      12.9928      0.00000
     25      13.2410      0.00000
     26      15.6137      0.00000
     27      17.1388      0.00000
     28      17.2385      0.00000
     29      19.0007      0.00000
     30      19.0845      0.00000
     31      19.3006      0.00000
     32      20.8555      0.00000
     33      20.9169      0.00000
     34      22.3111      0.00000
     35      22.5835      0.00000
     36      25.9134      0.00000
     37      27.1648      0.00000
     38      27.4212      0.00000
     39      27.7891      0.00000
     40      28.2755      0.00000
     41      28.6203      0.00000
     42      29.7020      0.00000
     43      31.0935      0.00000
     44      31.8465      0.00000
     45      33.4969      0.00000
     46      33.8477      0.00000
     47      33.9397      0.00000
     48      34.4504      0.00000

 k-point    12 :       0.4444    0.2222    0.0000
  band No.  band energies     occupation 
      1       2.5761      2.00000
      2       2.7765      2.00000
      3       2.7850      2.00000
      4       2.8269      2.00000
      5       2.9086      2.00000
      6       3.0348      2.00000
      7       3.1206      2.00000
      8       3.1909      2.00000
      9       3.4079      2.00000
     10       3.5666      2.00000
     11       3.7536      2.00000
     12       3.7917      2.00000
     13       4.2874      2.00000
     14       4.5542      2.00000
     15       4.5874      2.00000
     16       4.6223      2.00000
     17       4.6613      2.00000
     18       4.8382      2.00000
     19       5.2911      2.00000
     20       5.2951      2.00000
     21       5.4457      2.00000
     22       6.1767      2.00000
     23      10.6911     -0.00000
     24      11.7824      0.00000
     25      14.4621      0.00000
     26      15.7852      0.00000
     27      15.9538      0.00000
     28      16.4921      0.00000
     29      19.5280      0.00000
     30      20.0593      0.00000
     31      20.2242      0.00000
     32      20.3594      0.00000
     33      21.1366      0.00000
     34      21.4916      0.00000
     35      23.3469      0.00000
     36      25.6829      0.00000
     37      27.2796      0.00000
     38      27.3964      0.00000
     39      27.5772      0.00000
     40      28.8634      0.00000
     41      29.3214      0.00000
     42      30.0095      0.00000
     43      30.3929      0.00000
     44      32.3594      0.00000
     45      32.4623      0.00000
     46      33.6144      0.00000
     47      34.5872      0.00000
     48      34.7142      0.00000

 k-point    13 :       0.3333    0.3333    0.0000
  band No.  band energies     occupation 
      1       2.4635      2.00000
      2       2.6342      2.00000
      3       2.8660      2.00000
      4       2.8660      2.00000
      5       2.9492      2.00000
      6       2.9492      2.00000
      7       3.2130      2.00000
      8       3.2193      2.00000
      9       3.5905      2.00000
     10       3.5905      2.00000
     11       3.8244      2.00000
     12       3.8368      2.00000
     13       4.1111      2.00000
     14       4.2576      2.00000
     15       4.5747      2.00000
     16       4.8166      2.00000
     17       4.8166      2.00000
     18       4.9728      2.00000
     19       4.9728      2.00000
     20       5.1299      2.00000
     21       5.4523      2.00000
     22       8.1875      2.05823
     23       8.1875      2.05823
     24      11.5224      0.00000
     25      14.1982      0.00000
     26      15.8873      0.00000
     27      17.9408      0.00000
     28      17.9408      0.00000
     29      17.9793      0.00000
     30      17.9793      0.00000
     31      20.9669      0.00000
     32      21.3092      0.00000
     33      21.3092      0.00000
     34      21.3693      0.00000
     35      22.5823      0.00000
     36      25.0809      0.00000
     37      27.4840      0.00000
     38      28.3636      0.00000
     39      28.7762      0.00000
     40      28.7762      0.00000
     41      29.3544      0.00000
     42      29.3544      0.00000
     43      30.1308      0.00000
     44      32.3873      0.00000
     45      33.6280      0.00000
     46      33.7351      0.00000
     47      33.7351      0.00000
     48      34.7971      0.00000

 k-point    14 :       0.4444    0.3333    0.0000
  band No.  band energies     occupation 
      1       2.8444      2.00000
      2       2.8462      2.00000
      3       3.0008      2.00000
      4       3.0934      2.00000
      5       3.1214      2.00000
      6       3.1289      2.00000
      7       3.1685      2.00000
      8       3.3137      2.00000
      9       3.3884      2.00000
     10       3.4603      2.00000
     11       3.5079      2.00000
     12       3.6781      2.00000
     13       4.3259      2.00000
     14       4.3511      2.00000
     15       4.4629      2.00000
     16       4.5671      2.00000
     17       4.6079      2.00000
     18       4.6302      2.00000
     19       4.9815      2.00000
     20       5.0231      2.00000
     21       6.0697      2.00000
     22       6.9654      2.00000
     23       9.1555     -0.00000
     24      10.2522     -0.00000
     25      15.3565      0.00000
     26      16.3437      0.00000
     27      16.6385      0.00000
     28      17.0201      0.00000
     29      18.7855      0.00000
     30      19.0159      0.00000
     31      19.7942      0.00000
     32      20.1670      0.00000
     33      21.8922      0.00000
     34      22.5878      0.00000
     35      23.7096      0.00000
     36      25.9372      0.00000
     37      26.2238      0.00000
     38      28.1757      0.00000
     39      28.8679      0.00000
     40      28.9195      0.00000
     41      29.2089      0.00000
     42      29.3935      0.00000
     43      30.5997      0.00000
     44      32.6174      0.00000
     45      33.0890      0.00000
     46      33.4727      0.00000
     47      34.0059      0.00000
     48      35.1757      0.00000

 k-point    15 :       0.4444    0.4444    0.0000
  band No.  band energies     occupation 
      1       2.9473      2.00000
      2       3.0117      2.00000
      3       3.1033      2.00000
      4       3.1033      2.00000
      5       3.1945      2.00000
      6       3.2033      2.00000
      7       3.2033      2.00000
      8       3.3862      2.00000
      9       3.5151      2.00000
     10       3.5151      2.00000
     11       3.5820      2.00000
     12       3.7088      2.00000
     13       4.2087      2.00000
     14       4.3140      2.00000
     15       4.3687      2.00000
     16       4.3687      2.00000
     17       4.4486      2.00000
     18       4.6780      2.00000
     19       4.6780      2.00000
     20       4.8032      2.00000
     21       6.8597      2.00000
     22       7.8745      2.00000
     23       7.8745      2.00000
     24       8.9546     -0.00000
     25      16.4585      0.00000
     26      16.9279      0.00000
     27      17.6968      0.00000
     28      17.6968      0.00000
     29      17.7364      0.00000
     30      17.7364      0.00000
     31      18.6589      0.00000
     32      18.8901      0.00000
     33      24.2800      0.00000
     34      24.2800      0.00000
     35      24.8892      0.00000
     36      25.2372      0.00000
     37      25.9764      0.00000
     38      27.3624      0.00000
     39      27.3624      0.00000
     40      27.4934      0.00000
     41      30.1292      0.00000
     42      30.6788      0.00000
     43      30.6788      0.00000
     44      32.2913      0.00000
     45      33.7254      0.00000
     46      34.1203      0.00000
     47      34.4400      0.00000
     48      34.4400      0.00000

 k-point    16 :       0.1111    0.1111    0.1111
  band No.  band energies     occupation 
      1       1.0171      2.00000
      2       2.1301      2.00000
      3       2.1301      2.00000
      4       2.1301      2.00000
      5       2.2805      2.00000
      6       2.2805      2.00000
      7       2.2805      2.00000
      8       3.5143      2.00000
      9       3.6854      2.00000
     10       3.6854      2.00000
     11       4.5868      2.00000
     12       4.5868      2.00000
     13       5.1333      2.00000
     14       5.1333      2.00000
     15       5.1333      2.00000
     16       5.1720      2.00000
     17       5.1720      2.00000
     18       5.1720      2.00000
     19       5.5351      2.00000
     20       5.5351      2.00000
     21       5.5351      2.00000
     22       9.8225     -0.00000
     23       9.8225     -0.00000
     24       9.8225     -0.00000
     25      16.1315      0.00000
     26      16.1315      0.00000
     27      16.1315      0.00000
     28      17.6000      0.00000
     29      17.6000      0.00000
     30      17.6000      0.00000
     31      19.6934      0.00000
     32      19.6934      0.00000
     33      19.6934      0.00000
     34      24.1748      0.00000
     35      25.4352      0.00000
     36      25.4352      0.00000
     37      25.4352      0.00000
     38      25.7242      0.00000
     39      27.5734      0.00000
     40      27.5734      0.00000
     41      27.5734      0.00000
     42      28.0989      0.00000
     43      28.0989      0.00000
     44      32.0317      0.00000
     45      33.3722      0.00000
     46      33.3722      0.00000
     47      36.0251      0.00000
     48      37.2628      0.00000

 k-point    17 :       0.2222    0.1111    0.1111
  band No.  band energies     occupation 
      1       1.3656      2.00000
      2       2.2620      2.00000
      3       2.2745      2.00000
      4       2.2745      2.00000
      5       2.4051      2.00000
      6       2.4915      2.00000
      7       2.4915      2.00000
      8       3.4205      2.00000
      9       3.7843      2.00000
     10       3.7857      2.00000
     11       4.4829      2.00000
     12       4.6415      2.00000
     13       4.6415      2.00000
     14       4.6797      2.00000
     15       4.8759      2.00000
     16       4.9793      2.00000
     17       5.0350      2.00000
     18       5.0350      2.00000
     19       5.4615      2.00000
     20       5.5043      2.00000
     21       5.5043      2.00000
     22       8.3047      0.78596
     23      10.5533     -0.00000
     24      10.5533     -0.00000
     25      15.8901      0.00000
     26      15.8901      0.00000
     27      16.6471      0.00000
     28      16.6471      0.00000
     29      17.8884      0.00000
     30      18.5064      0.00000
     31      19.6255      0.00000
     32      19.6255      0.00000
     33      20.3237      0.00000
     34      23.3608      0.00000
     35      25.2534      0.00000
     36      25.3715      0.00000
     37      25.9553      0.00000
     38      25.9553      0.00000
     39      27.0941      0.00000
     40      27.6521      0.00000
     41      28.5732      0.00000
     42      29.4183      0.00000
     43      29.4183      0.00000
     44      31.2363      0.00000
     45      33.1077      0.00000
     46      33.6440      0.00000
     47      35.2386      0.00000
     48      35.9950      0.00000

 k-point    18 :       0.3333    0.1111    0.1111
  band No.  band energies     occupation 
      1       1.8808      2.00000
      2       2.4300      2.00000
      3       2.5120      2.00000
      4       2.5120      2.00000
      5       2.6047      2.00000
      6       2.7803      2.00000
      7       2.7803      2.00000
      8       3.2443      2.00000
      9       3.8939      2.00000
     10       3.9506      2.00000
     11       4.0761      2.00000
     12       4.0761      2.00000
     13       4.4827      2.00000
     14       4.5039      2.00000
     15       4.7188      2.00000
     16       4.8208      2.00000
     17       4.8216      2.00000
     18       4.8216      2.00000
     19       5.3348      2.00000
     20       5.4782      2.00000
     21       5.4782      2.00000
     22       6.8383      2.00000
     23      11.5088      0.00000
     24      11.5088      0.00000
     25      14.8140      0.00000
     26      14.8140      0.00000
     27      16.7440      0.00000
[...]
  band No.  band energies     occupation 
      1       2.3023      2.00000
      2       2.4223      2.00000
      3       2.5698      2.00000
      4       2.5754      2.00000
      5       3.2353      2.00000
      6       3.2462      2.00000
      7       3.4714      2.00000
      8       3.6266      2.00000
      9       3.8246      2.00000
     10       3.9083      2.00000
     11       4.0065      2.00000
     12       4.0912      2.00000
     13       4.0983      2.00000
     14       4.1492      2.00000
     15       4.1902      2.00000
     16       4.2123      2.00000
     17       5.0227      2.00000
     18       5.2713      2.00000
     19       5.2905      2.00000
     20       5.3013      2.00000
     21       5.9903      2.00000
     22       7.1260      2.00000
     23       9.3719     -0.00000
     24      10.2329     -0.00000
     25      12.4340      0.00000
     26      13.2688      0.00000
     27      15.3870      0.00000
     28      16.5105      0.00000
     29      20.2785      0.00000
     30      21.1136      0.00000
     31      22.1230      0.00000
     32      22.7778      0.00000
     33      22.8678      0.00000
     34      23.5777      0.00000
     35      23.8126      0.00000
     36      25.4152      0.00000
     37      25.8625      0.00000
     38      26.1951      0.00000
     39      26.6196      0.00000
     40      27.5152      0.00000
     41      31.4198      0.00000
     42      31.5712      0.00000
     43      31.5712      0.00000
     44      32.0432      0.00000
     45      32.2658      0.00000
     46      33.3008      0.00000
     47      34.5191      0.00000
     48      34.5282      0.00000

 k-point    31 :       0.4444    0.4444    0.2222
  band No.  band energies     occupation 
      1       2.3292      2.00000
      2       2.4232      2.00000
      3       2.4232      2.00000
      4       2.4729      2.00000
      5       3.3525      2.00000
      6       3.4218      2.00000
      7       3.4218      2.00000
      8       3.5571      2.00000
      9       3.7994      2.00000
     10       3.8880      2.00000
     11       3.8880      2.00000
     12       3.9318      2.00000
     13       4.3611      2.00000
     14       4.3611      2.00000
     15       4.3736      2.00000
     16       4.5022      2.00000
     17       4.9516      2.00000
     18       5.1519      2.00000
     19       5.1519      2.00000
     20       5.1749      2.00000
     21       6.8317      2.00000
     22       7.9674      2.00004
     23       7.9674      2.00004
     24       9.0280     -0.00000
     25      13.1508      0.00000
     26      14.1615      0.00000
     27      14.1615      0.00000
     28      15.2467      0.00000
     29      20.9435      0.00000
     30      21.8027      0.00000
     31      21.8027      0.00000
     32      22.6407      0.00000
     33      24.2376      0.00000
     34      24.2376      0.00000
     35      24.8273      0.00000
     36      25.1119      0.00000
     37      25.3035      0.00000
     38      26.4906      0.00000
     39      26.4906      0.00000
     40      27.2595      0.00000
     41      31.1752      0.00000
     42      31.4338      0.00000
     43      31.4338      0.00000
     44      31.7636      0.00000
     45      32.4333      0.00000
     46      32.9268      0.00000
     47      33.1129      0.00000
     48      33.1129      0.00000

 k-point    32 :       0.3333    0.3333    0.3333
  band No.  band energies     occupation 
      1       2.1271      2.00000
      2       2.4045      2.00000
      3       2.4045      2.00000
      4       2.4045      2.00000
      5       3.3360      2.00000
      6       3.3360      2.00000
      7       3.3360      2.00000
      8       3.7000      2.00000
      9       3.7000      2.00000
     10       3.9760      2.00000
     11       3.9760      2.00000
     12       3.9760      2.00000
     13       4.2513      2.00000
     14       4.2513      2.00000
     15       4.2513      2.00000
     16       5.0354      2.00000
     17       5.0354      2.00000
     18       5.0723      2.00000
     19       5.4349      2.00000
     20       5.4349      2.00000
     21       5.4349      2.00000
     22       8.9751     -0.00000
     23       8.9751     -0.00000
     24       8.9751     -0.00000
     25      13.0815      0.00000
     26      13.0815      0.00000
     27      13.0815      0.00000
     28      16.3345      0.00000
     29      21.8829      0.00000
     30      21.8829      0.00000
     31      21.8829      0.00000
     32      23.7501      0.00000
     33      23.7501      0.00000
     34      23.7501      0.00000
     35      24.3662      0.00000
     36      24.7780      0.00000
     37      24.7780      0.00000
     38      24.7780      0.00000
     39      27.2839      0.00000
     40      27.2839      0.00000
     41      31.2293      0.00000
     42      31.2293      0.00000
     43      32.3834      0.00000
     44      33.3104      0.00000
     45      33.3104      0.00000
     46      33.3291      0.00000
     47      33.3747      0.00000
     48      33.3747      0.00000

 k-point    33 :       0.4444    0.3333    0.3333
  band No.  band energies     occupation 
      1       2.1517      2.00000
      2       2.2540      2.00000
      3       2.3493      2.00000
      4       2.3493      2.00000
      5       3.3540      2.00000
      6       3.3540      2.00000
      7       3.4878      2.00000
      8       3.6169      2.00000
      9       3.7072      2.00000
     10       3.8024      2.00000
     11       3.8720      2.00000
     12       3.8720      2.00000
     13       4.5002      2.00000
     14       4.5065      2.00000
     15       4.5065      2.00000
     16       4.7760      2.00000
     17       5.2588      2.00000
     18       5.3790      2.00000
     19       5.3790      2.00000
     20       5.3987      2.00000
     21       6.1566      2.00000
     22       7.4677      2.00000
     23       9.3630     -0.00000
     24       9.3630     -0.00000
     25      12.2223      0.00000
     26      12.2223      0.00000
     27      13.9704      0.00000
     28      15.0615      0.00000
     29      22.3799      0.00000
     30      22.3799      0.00000
     31      23.3057      0.00000
     32      23.3057      0.00000
     33      23.5132      0.00000
     34      24.0403      0.00000
     35      24.6754      0.00000
     36      25.4046      0.00000
     37      25.7104      0.00000
     38      25.7104      0.00000
     39      25.8631      0.00000
     40      26.9754      0.00000
     41      31.2517      0.00000
     42      31.8205      0.00000
     43      31.9461      0.00000
     44      31.9461      0.00000
     45      32.4411      0.00000
     46      32.5349      0.00000
     47      33.5045      0.00000
     48      33.6128      0.00000

 k-point    34 :       0.4444    0.4444    0.3333
  band No.  band energies     occupation 
      1       2.1155      2.00000
      2       2.1862      2.00000
      3       2.1862      2.00000
      4       2.2188      2.00000
      5       3.4467      2.00000
      6       3.4880      2.00000
      7       3.4880      2.00000
      8       3.5904      2.00000
      9       3.6481      2.00000
     10       3.7157      2.00000
     11       3.7157      2.00000
     12       3.7358      2.00000
     13       4.8287      2.00000
     14       4.8459      2.00000
     15       4.8459      2.00000
     16       5.1016      2.00000
     17       5.1980      2.00000
     18       5.3439      2.00000
     19       5.3490      2.00000
     20       5.3490      2.00000
     21       6.9224      2.00000
     22       8.0789      2.01028
     23       8.0789      2.01028
     24       8.8415     -0.00000
     25      12.1561      0.00000
     26      12.8532      0.00000
     27      12.8532      0.00000
     28      13.8339      0.00000
     29      22.8307      0.00000
     30      23.3193      0.00000
     31      23.3193      0.00000
     32      23.7209      0.00000
     33      24.6303      0.00000
     34      24.6303      0.00000
     35      24.7793      0.00000
     36      25.4089      0.00000
     37      25.5947      0.00000
     38      26.0161      0.00000
     39      26.0161      0.00000
     40      26.8838      0.00000
     41      31.2297      0.00000
     42      31.5313      0.00000
     43      31.6109      0.00000
     44      31.6109      0.00000
     45      32.1457      0.00000
     46      32.2477      0.00000
     47      32.3983      0.00000
     48      32.3983      0.00000

 k-point    35 :       0.4444    0.4444    0.4444
  band No.  band energies     occupation 
      1       2.0275      2.00000
      2       2.0646      2.00000
      3       2.0646      2.00000
      4       2.0646      2.00000
      5       3.5337      2.00000
      6       3.5337      2.00000
      7       3.5337      2.00000
      8       3.5846      2.00000
      9       3.5846      2.00000
     10       3.6151      2.00000
     11       3.6151      2.00000
     12       3.6151      2.00000
     13       5.1993      2.00000
     14       5.1993      2.00000
     15       5.1993      2.00000
     16       5.3597      2.00000
     17       5.3597      2.00000
     18       5.4109      2.00000
     19       5.4109      2.00000
     20       5.4109      2.00000
     21       7.3852      2.00000
     22       8.1858      2.06063
     23       8.1858      2.06063
     24       8.1858      2.06063
     25      12.0865      0.00000
     26      12.0865      0.00000
     27      12.0865      0.00000
     28      12.7400      0.00000
     29      23.5833      0.00000
     30      23.5833      0.00000
     31      23.5833      0.00000
     32      23.7268      0.00000
     33      25.7210      0.00000
     34      25.7210      0.00000
     35      25.7210      0.00000
     36      25.8379      0.00000
     37      25.8379      0.00000
     38      25.8379      0.00000
     39      26.3637      0.00000
     40      26.3637      0.00000
     41      31.1924      0.00000
     42      31.1924      0.00000
     43      31.5360      0.00000
     44      31.5360      0.00000
     45      31.5360      0.00000
     46      31.6004      0.00000
     47      31.6004      0.00000
     48      31.6004      0.00000


--------------------------------------------------------------------------------------------------------


 soft charge-density along one line, spin component           1
         0         1         2         3         4         5         6         7         8         9
 total charge-density along one line
 
 pseudopotential strength for first ion, spin component:           1
 -4.100  -0.000  -0.000   0.000  -0.000  -4.330  -0.000  -0.000
 -0.000  -4.100   0.000   0.000  -0.000  -0.000  -4.330   0.000
 -0.000   0.000  -4.090  -0.000  -0.000  -0.000   0.000  -4.320
  0.000   0.000  -0.000  -4.100  -0.000   0.000   0.000  -0.000
 -0.000  -0.000  -0.000  -0.000  -4.090  -0.000  -0.000  -0.000
 -4.330  -0.000  -0.000   0.000  -0.000  -4.525  -0.000  -0.000
 -0.000  -4.330   0.000   0.000  -0.000  -0.000  -4.525   0.000
 -0.000   0.000  -4.320  -0.000  -0.000  -0.000   0.000  -4.515
  0.000   0.000  -0.000  -4.330  -0.000   0.000   0.000  -0.000
 -0.000  -0.000  -0.000  -0.000  -4.320  -0.000  -0.000  -0.000
 -0.000  -0.000   0.000   0.000   0.000  -0.000  -0.000   0.000
 -0.000  -0.000   0.000   0.000  -0.000  -0.000  -0.000   0.000
  0.000   0.000  -0.000   0.000  -0.000  -0.000   0.000  -0.000
  0.000   0.000   0.000   0.000  -0.000   0.000   0.000   0.000
  0.000   0.000   0.000   0.000  -0.000   0.000   0.000  -0.000
  0.000   0.000  -0.000   0.000  -0.000   0.000   0.000  -0.000
  0.000   0.000   0.000   0.000  -0.000   0.000   0.000   0.000
  0.000   0.000   0.000   0.000   0.000   0.000   0.000   0.000
 total augmentation occupancy for first ion, spin component:           1
  3.477  -0.000  -0.000  -0.000   0.000  -1.511   0.000   0.000  -0.000  -0.000   0.000  -0.000   0.000  -0.000   0.000  -0.000
 -0.000   3.477  -0.000   0.000   0.000  -0.000  -1.511   0.000  -0.000  -0.000  -0.000   0.000   0.000   0.000   0.000   0.000
 -0.000  -0.000   3.482  -0.000   0.000   0.000   0.000  -1.378   0.000   0.000   0.000  -0.000   0.000  -0.000  -0.000   0.000
  0.000   0.000  -0.000   3.477  -0.000  -0.000  -0.000   0.000  -1.511  -0.000   0.000  -0.000  -0.000  -0.000   0.000   0.000
  0.000   0.000   0.000  -0.000   3.482  -0.000  -0.000   0.000   0.000  -1.378   0.000  -0.000  -0.000   0.000  -0.000  -0.000
 -1.511  -0.000   0.000  -0.000  -0.000   1.486  -0.000  -0.000   0.000   0.000  -0.000   0.000  -0.000  -0.000   0.000   0.000
  0.000  -1.511   0.000  -0.000  -0.000   0.000   1.486   0.000  -0.000   0.000  -0.000   0.000  -0.000   0.000   0.000   0.000
  0.000   0.000  -1.378   0.000  -0.000   0.000   0.000   1.240   0.000  -0.000   0.000  -0.000   0.000   0.000   0.000   0.000
  0.000   0.000   0.000  -1.511   0.000  -0.000  -0.000   0.000   1.486  -0.000   0.000  -0.000  -0.000   0.000   0.000  -0.000
 -0.000  -0.000   0.000  -0.000  -1.378  -0.000   0.000  -0.000  -0.000   1.240   0.000   0.000   0.000  -0.000  -0.000   0.000
  0.000   0.000  -0.000  -0.000   0.000  -0.000  -0.000   0.000   0.000  -0.000   2.178  -0.408   0.000   0.000   0.000   0.000
 -0.000   0.000  -0.000  -0.000   0.000   0.000  -0.000  -0.000  -0.000   0.000  -0.408   0.095  -0.000   0.000   0.000   0.000
  0.000   0.000   0.000   0.000   0.000  -0.000   0.000   0.000  -0.000  -0.000   0.000   0.000   0.173  -0.000  -0.000  -0.010
  0.000   0.000  -0.000  -0.000   0.000  -0.000   0.000  -0.000   0.000  -0.000   0.000   0.000  -0.000   0.173   0.000  -0.000
 -0.000  -0.000  -0.000   0.000   0.000   0.000   0.000   0.000   0.000  -0.000   0.000   0.000  -0.000  -0.000   0.173  -0.000
 -0.000   0.000   0.000  -0.000   0.000   0.000   0.000   0.000  -0.000  -0.000   0.000   0.000  -0.010   0.000   0.000   0.001
  0.000   0.000   0.000   0.000   0.000  -0.000   0.000  -0.000   0.000  -0.000   0.000   0.000   0.000  -0.010  -0.000  -0.000
  0.000  -0.000  -0.000   0.000  -0.000   0.000   0.000   0.000  -0.000  -0.000   0.000   0.000   0.000  -0.000  -0.010  -0.000


------------------------ aborting loop because EDIFF is reached ----------------------------------------


    CHARGE:  cpu time    0.1324: real time    0.1326
    FORLOC:  cpu time    0.0002: real time    0.0002
    FORNL :  cpu time    0.1148: real time    0.1149
    STRESS:  cpu time    0.2660: real time    0.2660
    FORCOR:  cpu time    0.0143: real time    0.0150
    FORHAR:  cpu time    0.0014: real time    0.0014
    MIXING:  cpu time    0.0002: real time    0.0002
    OFIELD:  cpu time    0.0000: real time    0.0000

  FORCE on cell =-STRESS in cart. coord.  units (eV):
  Direction    XX          YY          ZZ          XY          YZ          ZX
  --------------------------------------------------------------------------------------
  Alpha Z   198.91349   198.91349   198.91349
  Ewald   -1302.12701 -1302.12701 -1302.12701    -0.00000    -0.00000     0.00000
  Hartree   253.68446   253.68446   253.68446    -0.00000    -0.00000    -0.00000
  E(xc)    -232.74112  -232.74112  -232.74112    -0.00000     0.00000    -0.00000
  Local     200.43122   200.43122   200.43122    -0.00000     0.00000    -0.00000
  n-local   -20.58239   -34.44808   -37.83655     0.53975     4.06059     1.70254
  augment   368.32370   368.32370   368.32370     0.00000     0.00000    -0.00000
  Kinetic   553.29110   545.14873   539.67234    -3.88447     0.05711    -1.19541
  Fock        0.00000     0.00000     0.00000     0.00000     0.00000     0.00000
  -------------------------------------------------------------------------------------
  Total       1.56646     1.56646     1.56646    -0.00000     0.00000    -0.00000
  in kB      36.68270    36.68270    36.68270    -0.00000     0.00000    -0.00000
  external pressure =       36.68 kB  Pullay stress =        0.00 kB


 VOLUME and BASIS-vectors are now :
 -----------------------------------------------------------------------------
  energy-cutoff  :      400.00
  volume of cell :       68.42
      direct lattice vectors                 reciprocal lattice vectors
     4.090000000  0.000000000  0.000000000     0.244498778  0.000000000  0.000000000
     0.000000000  4.090000000  0.000000000     0.000000000  0.244498778  0.000000000
     0.000000000  0.000000000  4.090000000     0.000000000  0.000000000  0.244498778

  length of vectors
     4.090000000  4.090000000  4.090000000     0.244498778  0.244498778  0.244498778


 FORCES acting on ions
    electron-ion (+dipol)            ewald-force                    non-local-force                 convergence-correction
 -----------------------------------------------------------------------------------------------
   0.408E-13 0.485E-13 0.154E-14   -.106E-13 0.211E-15 -.166E-14   -.165E-23 0.182E-22 -.972E-23   0.482E-14 -.327E-13 0.315E-14
   0.410E-13 -.638E-13 -.112E-12   -.884E-14 0.157E-14 0.360E-14   0.165E-23 -.165E-23 0.331E-23   -.761E-15 0.269E-13 0.200E-14
   -.870E-13 0.527E-13 0.851E-12   0.897E-14 -.192E-14 0.347E-14   0.331E-23 -.165E-23 0.000E+00   -.240E-13 -.136E-13 -.402E-13
   -.808E-13 0.495E-15 -.654E-12   0.107E-13 -.558E-15 -.886E-14   -.331E-23 0.496E-23 -.165E-22   -.318E-13 0.431E-13 0.545E-13
 -----------------------------------------------------------------------------------------------
   -.860E-13 0.378E-13 0.875E-13   0.273E-15 -.694E-15 -.345E-14   0.000E+00 0.199E-22 -.230E-22   -.518E-13 0.237E-13 0.194E-13
 
 
 POSITION                                       TOTAL-FORCE (eV/Angst)
 -----------------------------------------------------------------------------------
      0.00000      0.00000      0.00000        -0.000000      0.000000      0.000000
      0.00000      2.04500      2.04500         0.000000     -0.000000      0.000000
      2.04500      0.00000      2.04500         0.000000      0.000000     -0.000000
      2.04500      2.04500      0.00000        -0.000000      0.000000     -0.000000
 -----------------------------------------------------------------------------------
    total drift:                               -0.000000      0.000000      0.000000


--------------------------------------------------------------------------------------------------------



  FREE ENERGIE OF THE ION-ELECTRON SYSTEM (eV)
  ---------------------------------------------------
  free  energy   TOTEN  =       -10.84080583 eV

  energy  without entropy=      -10.83905514  energy(sigma->0) =      -10.84022227
 


--------------------------------------------------------------------------------------------------------


    POTLOK:  cpu time    0.0065: real time    0.0068


--------------------------------------------------------------------------------------------------------


     LOOP+:  cpu time    6.3823: real time    6.4842
    4ORBIT:  cpu time    0.0000: real time    0.0000

 total amount of memory used by VASP on root node    38691. kBytes
========================================================================

   base      :      30000. kBytes
   nonl-proj :       6492. kBytes
   fftplans  :        147. kBytes
   grid      :        485. kBytes
   one-center:         62. kBytes
   wavefun   :       1505. kBytes
 
  
  
 General timing and accounting informations for this job:
 ========================================================
  
                  Total CPU time used (sec):       23.548
                            User time (sec):       23.396
                          System time (sec):        0.152
                         Elapsed time (sec):       25.516
  
                   Maximum memory used (kb):       72152.
                   Average memory used (kb):           0.
  
                          Minor page faults:        16447
                          Major page faults:            9
                 Voluntary context switches:         1474
