<?xml version="1.0" encoding="ISO-8859-1"?>
<modeling>
 <generator>
  <i name="program" type="string">vasp </i>
  <i name="version" type="string">5.4.1  </i>
  <i name="subversion" type="string">05Feb16 (build Feb 08 2018 09:21:51) complex                          parallel </i>
  <i name="platform" type="string">LinuxIFC </i>
  <i name="date" type="string">2019 11 21 </i>
  <i name="time" type="string">13:19:05 </i>
 </generator>
 <incar>
  <i type="string" name="PREC">normal</i>
  <i name="ENCUT">    400.00000000</i>
  <i type="int" name="ISMEAR">     1</i>
  <i name="SIGMA">      0.10000000</i>
  <i type="logical" name="LWAVE"> F  </i>
  <i type="logical" name="LCHARG"> F  </i>
  <v type="int" name="KPOINT_BSE">    -1     0     0     0</v>
 </incar>
 <kpoints>
  <generation param="Monkhorst-Pack">
   <v type="int" name="divisions">       9        9        9 </v>
   <v name="usershift">      0.00000000       0.00000000       0.00000000 </v>
   <v name="genvec1">      0.11111111       0.00000000       0.00000000 </v>
   <v name="genvec2">      0.00000000       0.11111111       0.00000000 </v>
   <v name="genvec3">      0.00000000       0.00000000       0.11111111 </v>
   <v name="shift">      0.00000000       0.00000000       0.00000000 </v>
  </generation>
  <varray name="kpointlist" >
   <v>       0.00000000       0.00000000       0.00000000 </v>
   <v>       0.11111111       0.00000000       0.00000000 </v>
   <v>       0.22222222       0.00000000       0.00000000 </v>
   <v>       0.33333333       0.00000000       0.00000000 </v>
   <v>       0.44444444       0.00000000       0.00000000 </v>
   <v>       0.11111111       0.11111111       0.00000000 </v>
   <v>       0.22222222       0.11111111       0.00000000 </v>
   <v>       0.33333333       0.11111111       0.00000000 </v>
   <v>       0.44444444       0.11111111       0.00000000 </v>
   <v>       0.22222222       0.22222222       0.00000000 </v>
   <v>       0.33333333       0.22222222       0.00000000 </v>
   <v>       0.44444444       0.22222222       0.00000000 </v>
   <v>       0.33333333       0.33333333       0.00000000 </v>
   <v>       0.44444444       0.33333333       0.00000000 </v>
   <v>       0.44444444       0.44444444       0.00000000 </v>
   <v>       0.11111111       0.11111111       0.11111111 </v>
   <v>       0.22222222       0.11111111       0.11111111 </v>
   <v>       0.33333333       0.11111111       0.11111111 </v>
   <v>       0.44444444       0.11111111       0.11111111 </v>
   <v>       0.22222222       0.22222222       0.11111111 </v>
   <v>       0.33333333       0.22222222       0.11111111 </v>
   <v>       0.44444444       0.22222222       0.11111111 </v>
   <v>       0.33333333       0.33333333       0.11111111 </v>
   <v>       0.44444444       0.33333333       0.11111111 </v>
   <v>       0.44444444       0.44444444       0.11111111 </v>
   <v>       0.22222222       0.22222222       0.22222222 </v>
   <v>       0.33333333       0.22222222       0.22222222 </v>
   <v>       0.44444444       0.22222222       0.22222222 </v>
   <v>       0.33333333       0.33333333       0.22222222 </v>
   <v>       0.44444444       0.33333333       0.22222222 </v>
   <v>       0.44444444       0.44444444       0.22222222 </v>
   <v>       0.33333333       0.33333333       0.33333333 </v>
   <v>       0.44444444       0.33333333       0.33333333 </v>
   <v>       0.44444444       0.44444444       0.33333333 </v>
   <v>       0.44444444       0.44444444       0.44444444 </v>
  </varray>
  <varray name="weights" >
   <v>       0.00137174 </v>
   <v>       0.00823045 </v>
   <v>       0.00823045 </v>
   <v>       0.00823045 </v>
   <v>       0.00823045 </v>
   <v>       0.01646091 </v>
   <v>       0.03292181 </v>
   <v>       0.03292181 </v>
   <v>       0.03292181 </v>
   <v>       0.01646091 </v>
   <v>       0.03292181 </v>
   <v>       0.03292181 </v>
   <v>       0.01646091 </v>
   <v>       0.03292181 </v>
   <v>       0.01646091 </v>
   <v>       0.01097394 </v>
   <v>       0.03292181 </v>
   <v>       0.03292181 </v>
   <v>       0.03292181 </v>
   <v>       0.03292181 </v>
   <v>       0.06584362 </v>
   <v>       0.06584362 </v>
   <v>       0.03292181 </v>
   <v>       0.06584362 </v>
   <v>       0.03292181 </v>
   <v>       0.01097394 </v>
   <v>       0.03292181 </v>
   <v>       0.03292181 </v>
   <v>       0.03292181 </v>
   <v>       0.06584362 </v>
   <v>       0.03292181 </v>
   <v>       0.01097394 </v>
   <v>       0.03292181 </v>
   <v>       0.03292181 </v>
   <v>       0.01097394 </v>
  </varray>
 </kpoints>
 <parameters>
  <separator name="general" >
   <i type="string" name="SYSTEM">unknown system</i>
   <i type="logical" name="LCOMPAT"> F  </i>
  </separator>
  <separator name="electronic" >
   <i type="string" name="PREC">normal</i>
   <i name="ENMAX">    400.00000000</i>
   <i name="ENAUG">    412.49600000</i>
   <i name="EDIFF">      0.00010000</i>
   <i type="int" name="IALGO">    38</i>
   <i type="int" name="IWAVPR">    10</i>
   <i type="int" name="NBANDS">    48</i>
   <i name="NELECT">     44.00000000</i>
   <i type="int" name="TURBO">     0</i>
   <i type="int" name="IRESTART">     0</i>
   <i type="int" name="NREBOOT">     0</i>
   <i type="int" name="NMIN">     0</i>
   <i name="EREF">      0.00000000</i>
   <separator name="electronic smearing" >
    <i type="int" name="ISMEAR">     1</i>
    <i name="SIGMA">      0.10000000</i>
    <i name="KSPACING">      0.50000000</i>
    <i type="logical" name="KGAMMA"> T  </i>
   </separator>
   <separator name="electronic projectors" >
    <i type="logical" name="LREAL"> F  </i>
    <v name="ROPT">      0.00000000</v>
    <i type="int" name="LMAXPAW">  -100</i>
    <i type="int" name="LMAXMIX">     2</i>
    <i type="logical" name="NLSPLINE"> F  </i>
   </separator>
   <separator name="electronic startup" >
    <i type="int" name="ISTART">     0</i>
    <i type="int" name="ICHARG">     2</i>
    <i type="int" name="INIWAV">     1</i>
   </separator>
   <separator name="electronic spin" >
    <i type="int" name="ISPIN">     1</i>
    <i type="logical" name="LNONCOLLINEAR"> F  </i>
    <v name="MAGMOM">      1.00000000      1.00000000      1.00000000      1.00000000</v>
    <i name="NUPDOWN">     -1.00000000</i>
    <i type="logical" name="LSORBIT"> F  </i>
    <v name="SAXIS">      0.00000000      0.00000000      1.00000000</v>
    <i type="logical" name="LSPIRAL"> F  </i>
    <v name="QSPIRAL">      0.00000000      0.00000000      0.00000000</v>
    <i type="logical" name="LZEROZ"> F  </i>
   </separator>
   <separator name="electronic exchange-correlation" >
    <i type="logical" name="LASPH"> F  </i>
    <i type="logical" name="LMETAGGA"> F  </i>
   </separator>
   <separator name="electronic convergence" >
    <i type="int" name="NELM">    60</i>
    <i type="int" name="NELMDL">    -5</i>
    <i type="int" name="NELMIN">     2</i>
    <i name="ENINI">    400.00000000</i>
    <separator name="electronic convergence detail" >
     <i type="logical" name="LDIAG"> T  </i>
     <i type="logical" name="LSUBROT"> F  </i>
     <i name="WEIMIN">      0.00000000</i>
     <i name="EBREAK">      0.00000052</i>
     <i name="DEPER">      0.30000000</i>
     <i type="int" name="NRMM">     4</i>
     <i name="TIME">      0.40000000</i>
    </separator>
   </separator>
   <separator name="electronic mixer" >
    <i name="AMIX">      0.40000000</i>
    <i name="BMIX">      1.00000000</i>
    <i name="AMIN">      0.10000000</i>
    <i name="AMIX_MAG">      1.60000000</i>
    <i name="BMIX_MAG">      1.00000000</i>
    <separator name="electronic mixer details" >
     <i type="int" name="IMIX">     4</i>
     <i type="logical" name="MIXFIRST"> F  </i>
     <i type="int" name="MAXMIX">   -45</i>
     <i name="WC">    100.00000000</i>
     <i type="int" name="INIMIX">     1</i>
     <i type="int" name="MIXPRE">     1</i>
     <i type="int" name="MREMOVE">     5</i>
    </separator>
   </separator>
   <separator name="electronic dipolcorrection" >
    <i type="logical" name="LDIPOL"> F  </i>
    <i type="logical" name="LMONO"> F  </i>
    <i type="int" name="IDIPOL">     0</i>
    <i name="EPSILON">      1.00000000</i>
    <v name="DIPOL">   -100.00000000   -100.00000000   -100.00000000</v>
    <i name="EFIELD">      0.00000000</i>
   </separator>
  </separator>
  <separator name="grids" >
   <i type="int" name="NGX">    20</i>
   <i type="int" name="NGY">    20</i>
   <i type="int" name="NGZ">    20</i>
   <i type="int" name="NGXF">    40</i>
   <i type="int" name="NGYF">    40</i>
   <i type="int" name="NGZF">    40</i>
   <i type="logical" name="ADDGRID"> F  </i>
  </separator>
  <separator name="ionic" >
   <i type="int" name="NSW">     0</i>
   <i type="int" name="IBRION">    -1</i>
   <i type="int" name="ISIF">     2</i>
   <i name="PSTRESS">      0.00000000</i>
   <i name="EDIFFG">      0.00100000</i>
   <i type="int" name="NFREE">     0</i>
   <i name="POTIM">      0.50000000</i>
   <i name="SMASS">     -3.00000000</i>
   <i name="SCALEE">      1.00000000</i>
  </separator>
  <separator name="ionic md" >
   <i name="TEBEG">      0.00010000</i>
   <i name="TEEND">      0.00010000</i>
   <i type="int" name="NBLOCK">     1</i>
   <i type="int" name="KBLOCK">     1</i>
   <i type="int" name="NPACO">   256</i>
   <i name="APACO">     16.00000000</i>
  </separator>
  <separator name="symmetry" >
   <i type="int" name="ISYM">     2</i>
   <i name="SYMPREC">      0.00001000</i>
  </separator>
  <separator name="dos" >
   <i type="logical" name="LORBIT"> F  </i>
   <v name="RWIGS">     -1.00000000</v>
   <i type="int" name="NEDOS">   301</i>
   <i name="EMIN">     10.00000000</i>
   <i name="EMAX">    -10.00000000</i>
   <i name="EFERMI">      0.00000000</i>
  </separator>
  <separator name="writing" >
   <i type="int" name="NWRITE">     2</i>
   <i type="logical" name="LWAVE"> F  </i>
   <i type="logical" name="LCHARG"> F  </i>
   <i type="logical" name="LPARD"> F  </i>
   <i type="logical" name="LVTOT"> F  </i>
   <i type="logical" name="LVHAR"> F  </i>
   <i type="logical" name="LELF"> F  </i>
   <i type="logical" name="LOPTICS"> F  </i>
   <v name="STM">      0.00000000      0.00000000      0.00000000      0.00000000      0.00000000      0.00000000      0.00000000</v>
  </separator>
  <separator name="performance" >
   <i type="int" name="NPAR">    24</i>
   <i type="int" name="NSIM">     4</i>
   <i type="int" name="NBLK">    -1</i>
   <i type="logical" name="LPLANE"> T  </i>
   <i type="logical" name="LSCALAPACK"> F  </i>
   <i type="logical" name="LSCAAWARE"> F  </i>
   <i type="logical" name="LSCALU"> F  </i>
   <i type="logical" name="LASYNC"> F  </i>
   <i type="logical" name="LORBITALREAL"> F  </i>
  </separator>
  <separator name="miscellaneous" >
   <i type="int" name="IDIOT">     3</i>
   <i type="logical" name="LMUSIC"> F  </i>
   <v name="POMASS">    107.86800000</v>
   <v name="DARWINR">      0.00000000</v>
   <v name="DARWINV">      1.00000000</v>
   <i type="logical" name="LCORR"> T  </i>
  </separator>
  <i type="logical" name="GGA_COMPAT"> T  </i>
  <i type="logical" name="LBERRY"> F  </i>
  <i type="int" name="ICORELEVEL">     0</i>
  <i type="logical" name="LDAU"> F  </i>
  <i type="int" name="I_CONSTRAINED_M">     0</i>
  <separator name="electronic exchange-correlation" >
   <i type="string" name="GGA">--</i>
   <i type="int" name="VOSKOWN">     0</i>
   <i type="logical" name="LHFCALC"> F  </i>
   <i type="string" name="PRECFOCK"></i>
   <i type="logical" name="LSYMGRAD"> F  </i>
   <i type="logical" name="LHFONE"> F  </i>
   <i type="logical" name="LRHFCALC"> F  </i>
   <i type="logical" name="LTHOMAS"> F  </i>
   <i type="logical" name="LMODELHF"> F  </i>
   <i name="ENCUT4O">     -1.00000000</i>
   <i type="int" name="EXXOEP">     0</i>
   <i type="int" name="FOURORBIT">     0</i>
   <i name="AEXX">      0.00000000</i>
   <i name="HFALPHA">      0.00000000</i>
   <i name="MCALPHA">      0.00000000</i>
   <i name="ALDAX">      1.00000000</i>
   <i name="AGGAX">      1.00000000</i>
   <i name="ALDAC">      1.00000000</i>
   <i name="AGGAC">      1.00000000</i>
   <i type="int" name="NKREDX">     1</i>
   <i type="int" name="NKREDY">     1</i>
   <i type="int" name="NKREDZ">     1</i>
   <i type="logical" name="SHIFTRED"> F  </i>
   <i type="logical" name="ODDONLY"> F  </i>
   <i type="logical" name="EVENONLY"> F  </i>
   <i type="int" name="LMAXFOCK">     0</i>
   <i type="int" name="NMAXFOCKAE">     0</i>
   <i type="logical" name="LFOCKAEDFT"> F  </i>
   <i name="HFSCREEN">      0.00000000</i>
   <i name="HFSCREENC">      0.00000000</i>
   <i type="int" name="NBANDSGWLOW">     0</i>
  </separator>
  <separator name="vdW DFT" >
   <i type="logical" name="LUSE_VDW"> F  </i>
   <i name="Zab_VDW">     -0.84910000</i>
   <i name="PARAM1">      0.12340000</i>
   <i name="PARAM2">      1.00000000</i>
   <i name="PARAM3">      0.00000000</i>
  </separator>
  <separator name="model GW" >
   <i type="int" name="MODEL_GW">     0</i>
   <i name="MODEL_EPS0">     10.26268935</i>
   <i name="MODEL_ALPHA">      1.00000000</i>
  </separator>
  <separator name="linear response parameters" >
   <i type="logical" name="LEPSILON"> F  </i>
   <i type="logical" name="LRPA"> F  </i>
   <i type="logical" name="LNABLA"> F  </i>
   <i type="logical" name="LVEL"> F  </i>
   <i type="int" name="KINTER">     0</i>
   <i name="CSHIFT">      0.10000000</i>
   <i name="OMEGAMAX">     -1.00000000</i>
   <i name="DEG_THRESHOLD">      0.00200000</i>
  </separator>
  <separator name="orbital magnetization" >
   <i type="logical" name="NUCIND"> F  </i>
   <v name="MAGPOS">      0.00000000      0.00000000      0.00000000</v>
   <i type="logical" name="LNICSALL"> T  </i>
   <i type="logical" name="ORBITALMAG"> F  </i>
   <i type="logical" name="LMAGBLOCH"> F  </i>
   <i type="logical" name="LCHIMAG"> F  </i>
   <i type="logical" name="LGAUGE"> T  </i>
   <i type="int" name="MAGATOM">     0</i>
   <v name="MAGDIPOL">      0.00000000      0.00000000      0.00000000</v>
   <v name="AVECCONST">      0.00000000      0.00000000      0.00000000</v>
  </separator>
  <separator name="response functions" >
   <i type="logical" name="LADDER"> F  </i>
   <i type="logical" name="LFXC"> F  </i>
   <i type="logical" name="LHARTREE"> T  </i>
   <i type="int" name="IBSE">     0</i>
   <v type="int" name="KPOINT">    -1     0     0     0</v>
   <i type="logical" name="LTCTE"> F  </i>
   <i type="logical" name="LTETE"> F  </i>
   <i type="logical" name="LTRIPLET"> F  </i>
   <i type="logical" name="LFXCEPS"> F  </i>
   <i type="logical" name="LFXHEG"> F  </i>
   <i type="int" name="NATURALO">     0</i>
   <i type="logical" name="L2ORDER"> F  </i>
   <i type="logical" name="LUSEW"> F  </i>
   <i name="ENCUTGW">     -2.00000000</i>
   <i name="ENCUTGWSOFT">     -2.00000000</i>
   <i name="ENCUTLF">     -1.00000000</i>
   <i type="int" name="LMAXMP2">    -1</i>
   <i name="SCISSOR">      0.00000000</i>
   <i type="int" name="NOMEGA">     0</i>
   <i type="int" name="NOMEGAR">     0</i>
   <i type="int" name="NBANDSGW">    -1</i>
   <i type="int" name="NBANDSO">    -1</i>
   <i type="int" name="NBANDSV">    -1</i>
   <i type="int" name="NELM">     1</i>
   <i type="int" name="NELMHF">     1</i>
   <i type="int" name="DIM">     3</i>
   <i type="int" name="ANTIRES">     0</i>
   <i name="OMEGAMAX">    -30.00000000</i>
   <i name="OMEGAMIN">    -30.00000000</i>
   <i name="OMEGATL">   -200.00000000</i>
   <i type="int" name="OMEGAGRID">     0</i>
   <i name="CSHIFT">     -0.10000000</i>
   <i type="logical" name="SELFENERGY"> F  </i>
   <i type="logical" name="LSPECTRAL"> F  </i>
   <i type="logical" name="LSPECTRALGW"> F  </i>
   <i type="logical" name="LSINGLES"> F  </i>
   <i type="logical" name="LFERMIGW"> F  </i>
   <i type="logical" name="ODDONLYGW"> F  </i>
   <i type="logical" name="EVENONLYGW"> F  </i>
   <i type="int" name="NKREDLFX">     1</i>
   <i type="int" name="NKREDLFY">     1</i>
   <i type="int" name="NKREDLFZ">     1</i>
   <i type="int" name="MAXMEM">  1800</i>
   <i type="int" name="TELESCOPE">     0</i>
   <i type="int" name="TAUPAR">     1</i>
   <i type="int" name="OMEGAPAR">    -1</i>
   <i name="LAMBDA">      1.00000000</i>
  </separator>
  <separator name="External order field" >
   <i name="OFIELD_KAPPA">      0.00000000</i>
   <v name="OFIELD_K">      0.00000000      0.00000000      0.00000000</v>
   <i name="OFIELD_Q6_NEAR">      0.00000000</i>
   <i name="OFIELD_Q6_FAR">      0.00000000</i>
   <i name="OFIELD_A">      0.00000000</i>
  </separator>
 </parameters>
 <atominfo>
  <atoms>       4 </atoms>
  <types>       1 </types>
  <array name="atoms" >
   <dimension dim="1">ion</dimension>
   <field type="string">element</field>
   <field type="int">atomtype</field>
   <set>
    <rc><c>Ag</c><c>   1</c></rc>
    <rc><c>Ag</c><c>   1</c></rc>
    <rc><c>Ag</c><c>   1</c></rc>
    <rc><c>Ag</c><c>   1</c></rc>
   </set>
  </array>
  <array name="atomtypes" >
   <dimension dim="1">type</dimension>
   <field type="int">atomspertype</field>
   <field type="string">element</field>
   <field>mass</field>
   <field>valence</field>
   <field type="string">pseudopotential</field>
   <set>
    <rc><c>   4</c><c>Ag</c><c>    107.86800000</c><c>     11.00000000</c><c>  PAW_PBE Ag 02Apr2005                  </c></rc>
   </set>
  </array>
 </atominfo>
 <structure name="initialpos" >
  <crystal>
   <varray name="basis" >
    <v>       4.09000000       0.00000000       0.00000000 </v>
    <v>       0.00000000       4.09000000       0.00000000 </v>
    <v>       0.00000000       0.00000000       4.09000000 </v>
   </varray>
   <i name="volume">     68.41792900 </i>
   <varray name="rec_basis" >
    <v>       0.24449878       0.00000000       0.00000000 </v>
    <v>       0.00000000       0.24449878       0.00000000 </v>
    <v>       0.00000000       0.00000000       0.24449878 </v>
   </varray>
  </crystal>
  <varray name="positions" >
   <v>       0.00000000       0.00000000       0.00000000 </v>
   <v>       0.00000000       0.50000000       0.50000000 </v>
   <v>       0.50000000       0.00000000       0.50000000 </v>
   <v>       0.50000000       0.50000000       0.00000000 </v>
  </varray>
 </structure>
 <calculation>
  <scstep>
   <time name="dav">    0.51    0.51</time>
   <time name="total">    0.59    0.67</time>
   <energy>
    <i name="alphaZ">    198.91349099 </i>
    <i name="ewald">  -3906.37931032 </i>
    <i name="hartreedc">   -811.91229488 </i>
    <i name="XCdc">    -41.67125304 </i>
    <i name="pawpsdc">   4013.84859731 </i>
    <i name="pawaedc">  -3829.39709692 </i>
    <i name="eentropy">     -0.00420503 </i>
    <i name="bandstr">    422.33588648 </i>
    <i name="atom">   4149.03371350 </i>
    <i name="e_fr_energy">    194.76752809 </i>
    <i name="e_wo_entrp">    194.77173312 </i>
    <i name="e_0_energy">    194.76892977 </i>
   </energy>
  </scstep>
  <scstep>
   <time name="dav">    0.67    0.67</time>
   <time name="total">    0.67    0.67</time>
   <energy>
    <i name="e_fr_energy">     -8.85264258 </i>
    <i name="e_wo_entrp">     -8.85105598 </i>
    <i name="e_0_energy">     -8.85211372 </i>
   </energy>
  </scstep>
  <scstep>
   <time name="dav">    0.62    0.62</time>
   <time name="total">    0.63    0.63</time>
   <energy>
    <i name="e_fr_energy">    -11.85702176 </i>
    <i name="e_wo_entrp">    -11.85556487 </i>
    <i name="e_0_energy">    -11.85653613 </i>
   </energy>
  </scstep>
  <scstep>
   <time name="dav">    0.78    0.78</time>
   <time name="total">    0.78    0.78</time>
   <energy>
    <i name="e_fr_energy">    -11.86613405 </i>
    <i name="e_wo_entrp">    -11.86467788 </i>
    <i name="e_0_energy">    -11.86564866 </i>
   </energy>
  </scstep>
  <scstep>
   <time name="dav">    0.57    0.57</time>
   <time name="total">    0.59    0.59</time>
   <energy>
    <i name="e_fr_energy">    -11.86621694 </i>
    <i name="e_wo_entrp">    -11.86476078 </i>
    <i name="e_0_energy">    -11.86573155 </i>
   </energy>
  </scstep>
  <scstep>
   <time name="dav">    0.66    0.66</time>
   <time name="total">    0.68    0.68</time>
   <energy>
    <i name="e_fr_energy">    -10.88589697 </i>
    <i name="e_wo_entrp">    -10.88397037 </i>
    <i name="e_0_energy">    -10.88525477 </i>
   </energy>
  </scstep>
  <scstep>
   <time name="dav">    0.60    0.60</time>
   <time name="total">    0.62    0.62</time>
   <energy>
    <i name="e_fr_energy">    -10.85222720 </i>
    <i name="e_wo_entrp">    -10.85046740 </i>
    <i name="e_0_energy">    -10.85164060 </i>
   </energy>
  </scstep>
  <scstep>
   <time name="dav">    0.70    0.70</time>
   <time name="total">    0.72    0.72</time>
   <energy>
    <i name="e_fr_energy">    -10.84078333 </i>
    <i name="e_wo_entrp">    -10.83903205 </i>
    <i name="e_0_energy">    -10.84019957 </i>
   </energy>
  </scstep>
  <scstep>
   <time name="dav">    0.55    0.55</time>
   <time name="total">    0.56    0.56</time>
   <energy>
    <i name="alphaZ">    198.91349099 </i>
    <i name="ewald">  -3906.37931032 </i>
    <i name="hartreedc">   -761.10401255 </i>
    <i name="XCdc">    -43.52390456 </i>
    <i name="pawpsdc">   4468.74471009 </i>
    <i name="pawaedc">  -4295.02622778 </i>
    <i name="eentropy">     -0.00175068 </i>
    <i name="bandstr">    178.50248547 </i>
    <i name="atom">   4149.03371350 </i>
    <i name="e_fr_energy">    -10.84080583 </i>
    <i name="e_wo_entrp">    -10.83905514 </i>
    <i name="e_0_energy">    -10.84022227 </i>
   </energy>
  </scstep>
  <structure>
   <crystal>
    <varray name="basis" >
     <v>       4.09000000       0.00000000       0.00000000 </v>
     <v>       0.00000000       4.09000000       0.00000000 </v>
     <v>       0.00000000       0.00000000       4.09000000 </v>
    </varray>
    <i name="volume">     68.41792900 </i>
    <varray name="rec_basis" >
     <v>       0.24449878       0.00000000       0.00000000 </v>
     <v>       0.00000000       0.24449878       0.00000000 </v>
     <v>       0.00000000       0.00000000       0.24449878 </v>
    </varray>
   </crystal>
   <varray name="positions" >
    <v>       0.00000000       0.00000000       0.00000000 </v>
    <v>       0.00000000       0.50000000       0.50000000 </v>
    <v>       0.50000000       0.00000000       0.50000000 </v>
    <v>       0.50000000       0.50000000       0.00000000 </v>
   </varray>
  </structure>
  <varray name="forces" >
   <v>      -0.00000000       0.00000000       0.00000000 </v>
   <v>       0.00000000      -0.00000000       0.00000000 </v>
   <v>       0.00000000       0.00000000      -0.00000000 </v>
   <v>      -0.00000000       0.00000000      -0.00000000 </v>
  </varray>
  <varray name="stress" >
   <v>      36.68269717       0.00000000      -0.00000000 </v>
   <v>      -0.00000000      36.68269717       0.00000000 </v>
   <v>       0.00000000       0.00000000      36.68269717 </v>
  </varray>
  <energy>
   <i name="e_fr_energy">    -10.84080583 </i>
   <i name="e_wo_entrp">    -10.84022227 </i>
   <i name="e_0_energy">     -0.00175068 </i>
  </energy>
  <time name="totalsc">    6.38    6.48</time>
  <eigenvalues>
   <array>
    <dimension dim="1">band</dimension>
    <dimension dim="2">kpoint</dimension>
    <dimension dim="3">spin</dimension>
    <field>eigene</field>
    <field>occ</field>
    <set>
     <set comment="spin 1">
      <set comment="kpoint 1">
       <r>    0.6417    1.0000 </r>
       <r>    1.9638    1.0000 </r>
       <r>    1.9638    1.0000 </r>
       <r>    1.9638    1.0000 </r>
       <r>    2.1013    1.0000 </r>
       <r>    2.1013    1.0000 </r>
       <r>    2.1013    1.0000 </r>
       <r>    3.5886    1.0000 </r>
       <r>    3.5886    1.0000 </r>
       <r>    3.5886    1.0000 </r>
       <r>    4.6175    1.0000 </r>
       <r>    4.6175    1.0000 </r>
       <r>    5.3765    1.0000 </r>
       <r>    5.3765    1.0000 </r>
       <r>    5.3765    1.0000 </r>
       <r>    5.6143    1.0000 </r>
       <r>    5.6143    1.0000 </r>
       <r>    5.6143    1.0000 </r>
       <r>    5.6143    1.0000 </r>
       <r>    5.6143    1.0000 </r>
       <r>    5.6143    1.0000 </r>
       <r>    9.9954   -0.0000 </r>
       <r>    9.9954   -0.0000 </r>
       <r>    9.9954   -0.0000 </r>
       <r>   15.1024    0.0000 </r>
       <r>   15.1024    0.0000 </r>
       <r>   15.1024    0.0000 </r>
       <r>   19.0351    0.0000 </r>
       <r>   19.0351    0.0000 </r>
       <r>   19.0351    0.0000 </r>
       <r>   19.0351    0.0000 </r>
       <r>   19.0351    0.0000 </r>
       <r>   19.0351    0.0000 </r>
       <r>   24.4069    0.0000 </r>
       <r>   25.5320    0.0000 </r>
       <r>   25.5320    0.0000 </r>
       <r>   25.5320    0.0000 </r>
       <r>   25.5973    0.0000 </r>
       <r>   25.5973    0.0000 </r>
       <r>   25.5973    0.0000 </r>
       <r>   27.9640    0.0000 </r>
       <r>   27.9640    0.0000 </r>
       <r>   27.9640    0.0000 </r>
       <r>   32.7642    0.0000 </r>
       <r>   33.8845    0.0000 </r>
       <r>   33.8845    0.0000 </r>
       <r>   33.8845    0.0000 </r>
       <r>   37.8889    0.0000 </r>
      </set>
      <set comment="kpoint 2">
       <r>    0.7705    1.0000 </r>
       <r>    2.0163    1.0000 </r>
       <r>    2.0321    1.0000 </r>
       <r>    2.0321    1.0000 </r>
       <r>    2.1413    1.0000 </r>
       <r>    2.1628    1.0000 </r>
       <r>    2.1628    1.0000 </r>
       <r>    3.5380    1.0000 </r>
       <r>    3.6354    1.0000 </r>
       <r>    3.6354    1.0000 </r>
       <r>    4.5672    1.0000 </r>
       <r>    4.6391    1.0000 </r>
       <r>    5.3087    1.0000 </r>
       <r>    5.3087    1.0000 </r>
       <r>    5.3521    1.0000 </r>
       <r>    5.3781    1.0000 </r>
       <r>    5.3781    1.0000 </r>
       <r>    5.5313    1.0000 </r>
       <r>    5.5313    1.0000 </r>
       <r>    5.6144    1.0000 </r>
       <r>    5.6144    1.0000 </r>
       <r>    9.2092   -0.0000 </r>
       <r>   10.3379   -0.0000 </r>
       <r>   10.3379   -0.0000 </r>
       <r>   15.1156    0.0000 </r>
       <r>   15.1156    0.0000 </r>
       <r>   16.0843    0.0000 </r>
       <r>   18.6376    0.0000 </r>
       <r>   18.6376    0.0000 </r>
       <r>   18.6448    0.0000 </r>
       <r>   18.6448    0.0000 </r>
       <r>   19.2651    0.0000 </r>
       <r>   19.2651    0.0000 </r>
       <r>   24.4530    0.0000 </r>
       <r>   25.5062    0.0000 </r>
       <r>   25.5760    0.0000 </r>
       <r>   25.9538    0.0000 </r>
       <r>   25.9538    0.0000 </r>
       <r>   26.3008    0.0000 </r>
       <r>   26.3008    0.0000 </r>
       <r>   27.4469    0.0000 </r>
       <r>   27.6476    0.0000 </r>
       <r>   27.6476    0.0000 </r>
       <r>   33.5427    0.0000 </r>
       <r>   33.6255    0.0000 </r>
       <r>   33.6255    0.0000 </r>
       <r>   34.0934    0.0000 </r>
       <r>   36.4941    0.0000 </r>
      </set>
      <set comment="kpoint 3">
       <r>    1.1437    1.0000 </r>
       <r>    2.1606    1.0000 </r>
       <r>    2.2209    1.0000 </r>
       <r>    2.2209    1.0000 </r>
       <r>    2.2579    1.0000 </r>
       <r>    2.3465    1.0000 </r>
       <r>    2.3465    1.0000 </r>
       <r>    3.3947    1.0000 </r>
       <r>    3.7735    1.0000 </r>
       <r>    3.7735    1.0000 </r>
       <r>    4.4345    1.0000 </r>
       <r>    4.7021    1.0000 </r>
       <r>    4.8304    1.0000 </r>
       <r>    4.8304    1.0000 </r>
       <r>    5.1200    1.0000 </r>
       <r>    5.1200    1.0000 </r>
       <r>    5.2828    1.0000 </r>
       <r>    5.3043    1.0000 </r>
       <r>    5.3043    1.0000 </r>
       <r>    5.6145    1.0000 </r>
       <r>    5.6145    1.0000 </r>
       <r>    7.7065    1.0000 </r>
       <r>   11.2019    0.0000 </r>
       <r>   11.2019    0.0000 </r>
       <r>   15.1603    0.0000 </r>
       <r>   15.1603    0.0000 </r>
       <r>   17.6530    0.0000 </r>
       <r>   17.6530    0.0000 </r>
       <r>   17.8426    0.0000 </r>
       <r>   17.8426    0.0000 </r>
       <r>   18.1699    0.0000 </r>
       <r>   19.9295    0.0000 </r>
       <r>   19.9295    0.0000 </r>
       <r>   24.5797    0.0000 </r>
       <r>   25.4301    0.0000 </r>
       <r>   25.5500    0.0000 </r>
       <r>   26.4839    0.0000 </r>
       <r>   26.7072    0.0000 </r>
       <r>   26.7072    0.0000 </r>
       <r>   27.0262    0.0000 </r>
       <r>   27.0262    0.0000 </r>
       <r>   28.0241    0.0000 </r>
       <r>   28.0241    0.0000 </r>
       <r>   33.2464    0.0000 </r>
       <r>   33.4965    0.0000 </r>
       <r>   33.4965    0.0000 </r>
       <r>   34.7204    0.0000 </r>
       <r>   35.9774    0.0000 </r>
      </set>
      <set comment="kpoint 4">
       <r>    1.7040    1.0000 </r>
       <r>    2.3509    1.0000 </r>
       <r>    2.4409    1.0000 </r>
       <r>    2.4753    1.0000 </r>
       <r>    2.4753    1.0000 </r>
       <r>    2.6504    1.0000 </r>
       <r>    2.6504    1.0000 </r>
       <r>    3.1816    1.0000 </r>
       <r>    3.9958    1.0000 </r>
       <r>    3.9958    1.0000 </r>
       <r>    4.1961    1.0000 </r>
       <r>    4.1961    1.0000 </r>
       <r>    4.2934    1.0000 </r>
       <r>    4.7995    1.0000 </r>
       <r>    4.8640    1.0000 </r>
       <r>    4.8640    1.0000 </r>
       <r>    4.9849    1.0000 </r>
       <r>    4.9849    1.0000 </r>
       <r>    5.1784    1.0000 </r>
       <r>    5.6148    1.0000 </r>
       <r>    5.6148    1.0000 </r>
       <r>    6.2097    1.0000 </r>
       <r>   12.3520    0.0000 </r>
       <r>   12.3520    0.0000 </r>
       <r>   15.2440    0.0000 </r>
       <r>   15.2440    0.0000 </r>
       <r>   16.3880    0.0000 </r>
       <r>   16.3880    0.0000 </r>
       <r>   17.0902    0.0000 </r>
       <r>   17.0902    0.0000 </r>
       <r>   20.6127    0.0000 </r>
       <r>   20.9628    0.0000 </r>
       <r>   20.9628    0.0000 </r>
       <r>   24.7586    0.0000 </r>
       <r>   25.3076    0.0000 </r>
       <r>   25.3218    0.0000 </r>
       <r>   25.3218    0.0000 </r>
       <r>   25.5649    0.0000 </r>
       <r>   25.6398    0.0000 </r>
       <r>   28.4811    0.0000 </r>
       <r>   28.4811    0.0000 </r>
       <r>   30.2314    0.0000 </r>
       <r>   30.2314    0.0000 </r>
       <r>   30.4303    0.0000 </r>
       <r>   33.9474    0.0000 </r>
       <r>   33.9474    0.0000 </r>
       <r>   34.1278    0.0000 </r>
       <r>   34.1278    0.0000 </r>
      </set>
      <set comment="kpoint 5">
       <r>    2.2619    1.0000 </r>
       <r>    2.4681    1.0000 </r>
       <r>    2.6729    1.0000 </r>
       <r>    2.6792    1.0000 </r>
       <r>    2.6792    1.0000 </r>
       <r>    2.9299    1.0000 </r>
       <r>    3.0692    1.0000 </r>
       <r>    3.0692    1.0000 </r>
       <r>    3.5921    1.0000 </r>
       <r>    3.5921    1.0000 </r>
       <r>    4.2889    1.0000 </r>
       <r>    4.2889    1.0000 </r>
       <r>    4.3577    1.0000 </r>
       <r>    4.6301    1.0000 </r>
       <r>    4.6301    1.0000 </r>
       <r>    4.6575    1.0000 </r>
       <r>    4.6575    1.0000 </r>
       <r>    4.9207    1.0000 </r>
       <r>    5.0011    1.0000 </r>
       <r>    5.0523    1.0000 </r>
       <r>    5.6151    1.0000 </r>
       <r>    5.6151    1.0000 </r>
       <r>   13.6523    0.0000 </r>
       <r>   13.6523    0.0000 </r>
       <r>   15.0216    0.0000 </r>
       <r>   15.0216    0.0000 </r>
       <r>   15.3394    0.0000 </r>
       <r>   15.3394    0.0000 </r>
       <r>   16.6251    0.0000 </r>
       <r>   16.6251    0.0000 </r>
       <r>   22.2787    0.0000 </r>
       <r>   22.2787    0.0000 </r>
       <r>   23.0012    0.0000 </r>
       <r>   23.7762    0.0000 </r>
       <r>   23.7762    0.0000 </r>
       <r>   24.6248    0.0000 </r>
       <r>   24.9564    0.0000 </r>
       <r>   25.1457    0.0000 </r>
       <r>   26.1448    0.0000 </r>
       <r>   27.7750    0.0000 </r>
       <r>   30.1889    0.0000 </r>
       <r>   30.1889    0.0000 </r>
       <r>   32.0928    0.0000 </r>
       <r>   32.0928    0.0000 </r>
       <r>   32.3675    0.0000 </r>
       <r>   32.3675    0.0000 </r>
       <r>   34.9258    0.0000 </r>
       <r>   34.9258    0.0000 </r>
      </set>
      <set comment="kpoint 6">
       <r>    0.8960    1.0000 </r>
       <r>    2.0807    1.0000 </r>
       <r>    2.0852    1.0000 </r>
       <r>    2.0852    1.0000 </r>
       <r>    2.2013    1.0000 </r>
       <r>    2.2013    1.0000 </r>
       <r>    2.2394    1.0000 </r>
       <r>    3.5201    1.0000 </r>
       <r>    3.6519    1.0000 </r>
       <r>    3.6762    1.0000 </r>
       <r>    4.5544    1.0000 </r>
       <r>    4.6316    1.0000 </r>
       <r>    5.2001    1.0000 </r>
       <r>    5.2001    1.0000 </r>
       <r>    5.2259    1.0000 </r>
       <r>    5.2459    1.0000 </r>
       <r>    5.3782    1.0000 </r>
       <r>    5.3782    1.0000 </r>
       <r>    5.5309    1.0000 </r>
       <r>    5.5309    1.0000 </r>
       <r>    5.5570    1.0000 </r>
       <r>    9.5318   -0.0000 </r>
       <r>    9.5318   -0.0000 </r>
       <r>   10.6546   -0.0000 </r>
       <r>   15.1260    0.0000 </r>
       <r>   16.1169    0.0000 </r>
       <r>   16.1169    0.0000 </r>
       <r>   17.3804    0.0000 </r>
       <r>   18.8534    0.0000 </r>
       <r>   18.8534    0.0000 </r>
       <r>   18.8562    0.0000 </r>
       <r>   18.8562    0.0000 </r>
       <r>   19.4767    0.0000 </r>
       <r>   24.4225    0.0000 </r>
       <r>   25.4626    0.0000 </r>
       <r>   25.9424    0.0000 </r>
       <r>   25.9424    0.0000 </r>
       <r>   26.2958    0.0000 </r>
       <r>   26.2958    0.0000 </r>
       <r>   26.2980    0.0000 </r>
       <r>   27.4532    0.0000 </r>
       <r>   27.5564    0.0000 </r>
       <r>   28.4354    0.0000 </r>
       <r>   32.2402    0.0000 </r>
       <r>   33.8295    0.0000 </r>
       <r>   33.8614    0.0000 </r>
       <r>   35.0535    0.0000 </r>
       <r>   36.3110    0.0000 </r>
      </set>
      <set comment="kpoint 7">
       <r>    1.2593    1.0000 </r>
       <r>    2.2307    1.0000 </r>
       <r>    2.2324    1.0000 </r>
       <r>    2.2766    1.0000 </r>
       <r>    2.3137    1.0000 </r>
       <r>    2.3806    1.0000 </r>
       <r>    2.4486    1.0000 </r>
       <r>    3.3984    1.0000 </r>
       <r>    3.7750    1.0000 </r>
       <r>    3.7910    1.0000 </r>
       <r>    4.4474    1.0000 </r>
       <r>    4.6931    1.0000 </r>
       <r>    4.6990    1.0000 </r>
       <r>    4.7540    1.0000 </r>
       <r>    4.9558    1.0000 </r>
       <r>    5.0702    1.0000 </r>
       <r>    5.1585    1.0000 </r>
       <r>    5.3029    1.0000 </r>
       <r>    5.3160    1.0000 </r>
       <r>    5.5286    1.0000 </r>
       <r>    5.5300    1.0000 </r>
       <r>    8.0319    1.0007 </r>
       <r>   10.3174   -0.0000 </r>
       <r>   11.4736    0.0000 </r>
       <r>   15.1274    0.0000 </r>
       <r>   16.1195    0.0000 </r>
       <r>   16.2092    0.0000 </r>
       <r>   17.8551    0.0000 </r>
       <r>   18.0374    0.0000 </r>
       <r>   18.1981    0.0000 </r>
       <r>   19.4402    0.0000 </r>
       <r>   19.4558    0.0000 </r>
       <r>   19.4830    0.0000 </r>
       <r>   24.2699    0.0000 </r>
       <r>   25.0330    0.0000 </r>
       <r>   25.9120    0.0000 </r>
       <r>   25.9720    0.0000 </r>
       <r>   26.3249    0.0000 </r>
       <r>   26.9060    0.0000 </r>
       <r>   27.0401    0.0000 </r>
       <r>   28.0195    0.0000 </r>
       <r>   28.2090    0.0000 </r>
       <r>   29.3957    0.0000 </r>
       <r>   31.6579    0.0000 </r>
       <r>   33.6441    0.0000 </r>
       <r>   34.1744    0.0000 </r>
       <r>   34.5144    0.0000 </r>
       <r>   35.9533    0.0000 </r>
      </set>
      <set comment="kpoint 8">
       <r>    1.8030    1.0000 </r>
       <r>    2.4280    1.0000 </r>
       <r>    2.4697    1.0000 </r>
       <r>    2.4898    1.0000 </r>
       <r>    2.5351    1.0000 </r>
       <r>    2.6766    1.0000 </r>
       <r>    2.7454    1.0000 </r>
       <r>    3.1981    1.0000 </r>
       <r>    3.9238    1.0000 </r>
       <r>    3.9937    1.0000 </r>
       <r>    4.0909    1.0000 </r>
       <r>    4.1636    1.0000 </r>
       <r>    4.3770    1.0000 </r>
       <r>    4.6186    1.0000 </r>
       <r>    4.8251    1.0000 </r>
       <r>    4.8308    1.0000 </r>
       <r>    4.8934    1.0000 </r>
       <r>    4.9824    1.0000 </r>
       <r>    5.1911    1.0000 </r>
       <r>    5.5239    1.0000 </r>
       <r>    5.5284    1.0000 </r>
       <r>    6.5805    1.0000 </r>
       <r>   11.3174    0.0000 </r>
       <r>   12.5880    0.0000 </r>
       <r>   14.6013    0.0000 </r>
       <r>   15.5366    0.0000 </r>
       <r>   16.2744    0.0000 </r>
       <r>   16.5833    0.0000 </r>
       <r>   17.4072    0.0000 </r>
       <r>   18.7787    0.0000 </r>
       <r>   20.2861    0.0000 </r>
       <r>   20.4400    0.0000 </r>
       <r>   20.7062    0.0000 </r>
       <r>   23.7878    0.0000 </r>
       <r>   23.8213    0.0000 </r>
       <r>   25.8759    0.0000 </r>
       <r>   26.2839    0.0000 </r>
       <r>   26.5189    0.0000 </r>
       <r>   26.9469    0.0000 </r>
       <r>   27.3602    0.0000 </r>
       <r>   28.5165    0.0000 </r>
       <r>   30.0698    0.0000 </r>
       <r>   30.5939    0.0000 </r>
       <r>   31.5176    0.0000 </r>
       <r>   33.1829    0.0000 </r>
       <r>   33.9934    0.0000 </r>
       <r>   34.0779    0.0000 </r>
       <r>   34.2081    0.0000 </r>
      </set>
      <set comment="kpoint 9">
       <r>    2.3475    1.0000 </r>
       <r>    2.5518    1.0000 </r>
       <r>    2.7107    1.0000 </r>
       <r>    2.7126    1.0000 </r>
       <r>    2.7393    1.0000 </r>
       <r>    2.9584    1.0000 </r>
       <r>    3.0831    1.0000 </r>
       <r>    3.0918    1.0000 </r>
       <r>    3.5357    1.0000 </r>
       <r>    3.5875    1.0000 </r>
       <r>    3.9881    1.0000 </r>
       <r>    4.2372    1.0000 </r>
       <r>    4.2859    1.0000 </r>
       <r>    4.6084    1.0000 </r>
       <r>    4.6271    1.0000 </r>
       <r>    4.6439    1.0000 </r>
       <r>    4.6689    1.0000 </r>
       <r>    4.9911    1.0000 </r>
       <r>    5.0112    1.0000 </r>
       <r>    5.4829    1.0000 </r>
       <r>    5.5244    1.0000 </r>
       <r>    5.5265    1.0000 </r>
       <r>   12.3994    0.0000 </r>
       <r>   13.5079    0.0000 </r>
       <r>   13.8647    0.0000 </r>
       <r>   15.2207    0.0000 </r>
       <r>   15.7090    0.0000 </r>
       <r>   16.0437    0.0000 </r>
       <r>   17.4475    0.0000 </r>
       <r>   18.0118    0.0000 </r>
       <r>   21.4365    0.0000 </r>
       <r>   21.6114    0.0000 </r>
       <r>   22.6281    0.0000 </r>
       <r>   22.8230    0.0000 </r>
       <r>   23.1320    0.0000 </r>
       <r>   25.2811    0.0000 </r>
       <r>   25.8645    0.0000 </r>
       <r>   25.9502    0.0000 </r>
       <r>   27.1159    0.0000 </r>
       <r>   28.4873    0.0000 </r>
       <r>   29.1095    0.0000 </r>
       <r>   30.2418    0.0000 </r>
       <r>   30.7067    0.0000 </r>
       <r>   32.1614    0.0000 </r>
       <r>   33.6168    0.0000 </r>
       <r>   33.6655    0.0000 </r>
       <r>   34.0571    0.0000 </r>
       <r>   34.9009    0.0000 </r>
      </set>
      <set comment="kpoint 10">
       <r>    1.5907    1.0000 </r>
       <r>    2.3203    1.0000 </r>
       <r>    2.4322    1.0000 </r>
       <r>    2.4322    1.0000 </r>
       <r>    2.4798    1.0000 </r>
       <r>    2.4798    1.0000 </r>
       <r>    2.6792    1.0000 </r>
       <r>    3.3593    1.0000 </r>
       <r>    3.8336    1.0000 </r>
       <r>    3.8409    1.0000 </r>
       <r>    4.4038    1.0000 </r>
       <r>    4.4110    1.0000 </r>
       <r>    4.4110    1.0000 </r>
       <r>    4.4855    1.0000 </r>
       <r>    4.7891    1.0000 </r>
       <r>    4.9281    1.0000 </r>
       <r>    5.1564    1.0000 </r>
       <r>    5.1564    1.0000 </r>
       <r>    5.2992    1.0000 </r>
       <r>    5.2992    1.0000 </r>
       <r>    5.3902    1.0000 </r>
       <r>    8.7743   -0.0000 </r>
       <r>    8.7743   -0.0000 </r>
       <r>   12.2046    0.0000 </r>
       <r>   14.3239    0.0000 </r>
       <r>   15.4648    0.0000 </r>
       <r>   18.0316    0.0000 </r>
       <r>   18.0316    0.0000 </r>
       <r>   18.4308    0.0000 </r>
       <r>   18.4308    0.0000 </r>
       <r>   18.8154    0.0000 </r>
       <r>   18.8154    0.0000 </r>
       <r>   20.7191    0.0000 </r>
       <r>   23.5397    0.0000 </r>
       <r>   23.6024    0.0000 </r>
       <r>   25.2437    0.0000 </r>
       <r>   27.0845    0.0000 </r>
       <r>   27.0845    0.0000 </r>
       <r>   27.2425    0.0000 </r>
       <r>   28.0574    0.0000 </r>
       <r>   28.0574    0.0000 </r>
       <r>   29.7445    0.0000 </r>
       <r>   29.7520    0.0000 </r>
       <r>   31.3579    0.0000 </r>
       <r>   33.5575    0.0000 </r>
       <r>   33.7075    0.0000 </r>
       <r>   34.7291    0.0000 </r>
       <r>   35.4577    0.0000 </r>
      </set>
      <set comment="kpoint 11">
       <r>    2.0792    1.0000 </r>
       <r>    2.5113    1.0000 </r>
       <r>    2.6341    1.0000 </r>
       <r>    2.6444    1.0000 </r>
       <r>    2.7049    1.0000 </r>
       <r>    2.7519    1.0000 </r>
       <r>    2.9609    1.0000 </r>
       <r>    3.2265    1.0000 </r>
       <r>    3.8553    1.0000 </r>
       <r>    3.8574    1.0000 </r>
       <r>    4.0120    1.0000 </r>
       <r>    4.0494    1.0000 </r>
       <r>    4.0798    1.0000 </r>
       <r>    4.3681    1.0000 </r>
       <r>    4.7297    1.0000 </r>
       <r>    4.9056    1.0000 </r>
       <r>    4.9767    1.0000 </r>
       <r>    5.0319    1.0000 </r>
       <r>    5.0517    1.0000 </r>
       <r>    5.2944    1.0000 </r>
       <r>    5.3188    1.0000 </r>
       <r>    7.3197    1.0000 </r>
       <r>    9.6877   -0.0000 </r>
       <r>   12.9928    0.0000 </r>
       <r>   13.2410    0.0000 </r>
       <r>   15.6137    0.0000 </r>
       <r>   17.1388    0.0000 </r>
       <r>   17.2385    0.0000 </r>
       <r>   19.0007    0.0000 </r>
       <r>   19.0845    0.0000 </r>
       <r>   19.3006    0.0000 </r>
       <r>   20.8555    0.0000 </r>
       <r>   20.9169    0.0000 </r>
       <r>   22.3111    0.0000 </r>
       <r>   22.5835    0.0000 </r>
       <r>   25.9134    0.0000 </r>
       <r>   27.1648    0.0000 </r>
       <r>   27.4212    0.0000 </r>
       <r>   27.7891    0.0000 </r>
       <r>   28.2755    0.0000 </r>
       <r>   28.6203    0.0000 </r>
       <r>   29.7020    0.0000 </r>
       <r>   31.0935    0.0000 </r>
       <r>   31.8465    0.0000 </r>
       <r>   33.4969    0.0000 </r>
       <r>   33.8477    0.0000 </r>
       <r>   33.9397    0.0000 </r>
       <r>   34.4504    0.0000 </r>
      </set>
      <set comment="kpoint 12">
       <r>    2.5761    1.0000 </r>
       <r>    2.7765    1.0000 </r>
       <r>    2.7850    1.0000 </r>
       <r>    2.8269    1.0000 </r>
       <r>    2.9086    1.0000 </r>
       <r>    3.0348    1.0000 </r>
       <r>    3.1206    1.0000 </r>
       <r>    3.1909    1.0000 </r>
       <r>    3.4079    1.0000 </r>
       <r>    3.5666    1.0000 </r>
       <r>    3.7536    1.0000 </r>
       <r>    3.7917    1.0000 </r>
       <r>    4.2874    1.0000 </r>
       <r>    4.5542    1.0000 </r>
       <r>    4.5874    1.0000 </r>
       <r>    4.6223    1.0000 </r>
       <r>    4.6613    1.0000 </r>
       <r>    4.8382    1.0000 </r>
       <r>    5.2911    1.0000 </r>
       <r>    5.2951    1.0000 </r>
       <r>    5.4457    1.0000 </r>
       <r>    6.1767    1.0000 </r>
       <r>   10.6911   -0.0000 </r>
       <r>   11.7824    0.0000 </r>
       <r>   14.4621    0.0000 </r>
       <r>   15.7852    0.0000 </r>
       <r>   15.9538    0.0000 </r>
       <r>   16.4921    0.0000 </r>
       <r>   19.5280    0.0000 </r>
       <r>   20.0593    0.0000 </r>
       <r>   20.2242    0.0000 </r>
       <r>   20.3594    0.0000 </r>
       <r>   21.1366    0.0000 </r>
       <r>   21.4916    0.0000 </r>
       <r>   23.3469    0.0000 </r>
       <r>   25.6829    0.0000 </r>
       <r>   27.2796    0.0000 </r>
       <r>   27.3964    0.0000 </r>
       <r>   27.5772    0.0000 </r>
       <r>   28.8634    0.0000 </r>
       <r>   29.3214    0.0000 </r>
       <r>   30.0095    0.0000 </r>
       <r>   30.3929    0.0000 </r>
       <r>   32.3594    0.0000 </r>
       <r>   32.4623    0.0000 </r>
       <r>   33.6144    0.0000 </r>
       <r>   34.5872    0.0000 </r>
       <r>   34.7142    0.0000 </r>
      </set>
      <set comment="kpoint 13">
       <r>    2.4635    1.0000 </r>
       <r>    2.6342    1.0000 </r>
       <r>    2.8660    1.0000 </r>
       <r>    2.8660    1.0000 </r>
       <r>    2.9492    1.0000 </r>
       <r>    2.9492    1.0000 </r>
       <r>    3.2130    1.0000 </r>
       <r>    3.2193    1.0000 </r>
       <r>    3.5905    1.0000 </r>
       <r>    3.5905    1.0000 </r>
       <r>    3.8244    1.0000 </r>
       <r>    3.8368    1.0000 </r>
       <r>    4.1111    1.0000 </r>
       <r>    4.2576    1.0000 </r>
       <r>    4.5747    1.0000 </r>
       <r>    4.8166    1.0000 </r>
       <r>    4.8166    1.0000 </r>
       <r>    4.9728    1.0000 </r>
       <r>    4.9728    1.0000 </r>
       <r>    5.1299    1.0000 </r>
       <r>    5.4523    1.0000 </r>
       <r>    8.1875    1.0291 </r>
       <r>    8.1875    1.0291 </r>
       <r>   11.5224    0.0000 </r>
       <r>   14.1982    0.0000 </r>
       <r>   15.8873    0.0000 </r>
       <r>   17.9408    0.0000 </r>
       <r>   17.9408    0.0000 </r>
       <r>   17.9793    0.0000 </r>
       <r>   17.9793    0.0000 </r>
       <r>   20.9669    0.0000 </r>
       <r>   21.3092    0.0000 </r>
       <r>   21.3092    0.0000 </r>
       <r>   21.3693    0.0000 </r>
       <r>   22.5823    0.0000 </r>
       <r>   25.0809    0.0000 </r>
       <r>   27.4840    0.0000 </r>
       <r>   28.3636    0.0000 </r>
       <r>   28.7762    0.0000 </r>
       <r>   28.7762    0.0000 </r>
       <r>   29.3544    0.0000 </r>
       <r>   29.3544    0.0000 </r>
       <r>   30.1308    0.0000 </r>
       <r>   32.3873    0.0000 </r>
       <r>   33.6280    0.0000 </r>
       <r>   33.7351    0.0000 </r>
       <r>   33.7351    0.0000 </r>
       <r>   34.7971    0.0000 </r>
      </set>
      <set comment="kpoint 14">
       <r>    2.8444    1.0000 </r>
       <r>    2.8462    1.0000 </r>
       <r>    3.0008    1.0000 </r>
       <r>    3.0934    1.0000 </r>
       <r>    3.1214    1.0000 </r>
       <r>    3.1289    1.0000 </r>
       <r>    3.1685    1.0000 </r>
       <r>    3.3137    1.0000 </r>
       <r>    3.3884    1.0000 </r>
       <r>    3.4603    1.0000 </r>
       <r>    3.5079    1.0000 </r>
       <r>    3.6781    1.0000 </r>
       <r>    4.3259    1.0000 </r>
       <r>    4.3511    1.0000 </r>
       <r>    4.4629    1.0000 </r>
       <r>    4.5671    1.0000 </r>
       <r>    4.6079    1.0000 </r>
       <r>    4.6302    1.0000 </r>
       <r>    4.9815    1.0000 </r>
       <r>    5.0231    1.0000 </r>
       <r>    6.0697    1.0000 </r>
       <r>    6.9654    1.0000 </r>
       <r>    9.1555   -0.0000 </r>
       <r>   10.2522   -0.0000 </r>
       <r>   15.3565    0.0000 </r>
       <r>   16.3437    0.0000 </r>
       <r>   16.6385    0.0000 </r>
       <r>   17.0201    0.0000 </r>
       <r>   18.7855    0.0000 </r>
       <r>   19.0159    0.0000 </r>
       <r>   19.7942    0.0000 </r>
       <r>   20.1670    0.0000 </r>
       <r>   21.8922    0.0000 </r>
       <r>   22.5878    0.0000 </r>
       <r>   23.7096    0.0000 </r>
       <r>   25.9372    0.0000 </r>
       <r>   26.2238    0.0000 </r>
       <r>   28.1757    0.0000 </r>
       <r>   28.8679    0.0000 </r>
       <r>   28.9195    0.0000 </r>
       <r>   29.2089    0.0000 </r>
       <r>   29.3935    0.0000 </r>
       <r>   30.5997    0.0000 </r>
       <r>   32.6174    0.0000 </r>
       <r>   33.0890    0.0000 </r>
       <r>   33.4727    0.0000 </r>
       <r>   34.0059    0.0000 </r>
       <r>   35.1757    0.0000 </r>
      </set>
      <set comment="kpoint 15">
       <r>    2.9473    1.0000 </r>
       <r>    3.0117    1.0000 </r>
       <r>    3.1033    1.0000 </r>
       <r>    3.1033    1.0000 </r>
       <r>    3.1945    1.0000 </r>
       <r>    3.2033    1.0000 </r>
       <r>    3.2033    1.0000 </r>
       <r>    3.3862    1.0000 </r>
       <r>    3.5151    1.0000 </r>
       <r>    3.5151    1.0000 </r>
       <r>    3.5820    1.0000 </r>
       <r>    3.7088    1.0000 </r>
       <r>    4.2087    1.0000 </r>
       <r>    4.3140    1.0000 </r>
       <r>    4.3687    1.0000 </r>
       <r>    4.3687    1.0000 </r>
       <r>    4.4486    1.0000 </r>
       <r>    4.6780    1.0000 </r>
       <r>    4.6780    1.0000 </r>
       <r>    4.8032    1.0000 </r>
       <r>    6.8597    1.0000 </r>
       <r>    7.8745    1.0000 </r>
       <r>    7.8745    1.0000 </r>
       <r>    8.9546   -0.0000 </r>
       <r>   16.4585    0.0000 </r>
       <r>   16.9279    0.0000 </r>
       <r>   17.6968    0.0000 </r>
       <r>   17.6968    0.0000 </r>
       <r>   17.7364    0.0000 </r>
       <r>   17.7364    0.0000 </r>
       <r>   18.6589    0.0000 </r>
       <r>   18.8901    0.0000 </r>
       <r>   24.2800    0.0000 </r>
       <r>   24.2800    0.0000 </r>
       <r>   24.8892    0.0000 </r>
       <r>   25.2372    0.0000 </r>
       <r>   25.9764    0.0000 </r>
       <r>   27.3624    0.0000 </r>
       <r>   27.3624    0.0000 </r>
       <r>   27.4934    0.0000 </r>
       <r>   30.1292    0.0000 </r>
       <r>   30.6788    0.0000 </r>
       <r>   30.6788    0.0000 </r>
       <r>   32.2913    0.0000 </r>
       <r>   33.7254    0.0000 </r>
       <r>   34.1203    0.0000 </r>
       <r>   34.4400    0.0000 </r>
       <r>   34.4400    0.0000 </r>
      </set>
      <set comment="kpoint 16">
       <r>    1.0171    1.0000 </r>
       <r>    2.1301    1.0000 </r>
       <r>    2.1301    1.0000 </r>
       <r>    2.1301    1.0000 </r>
       <r>    2.2805    1.0000 </r>
       <r>    2.2805    1.0000 </r>
       <r>    2.2805    1.0000 </r>
       <r>    3.5143    1.0000 </r>
       <r>    3.6854    1.0000 </r>
       <r>    3.6854    1.0000 </r>
       <r>    4.5868    1.0000 </r>
       <r>    4.5868    1.0000 </r>
       <r>    5.1333    1.0000 </r>
       <r>    5.1333    1.0000 </r>
       <r>    5.1333    1.0000 </r>
       <r>    5.1720    1.0000 </r>
       <r>    5.1720    1.0000 </r>
       <r>    5.1720    1.0000 </r>
       <r>    5.5351    1.0000 </r>
       <r>    5.5351    1.0000 </r>
       <r>    5.5351    1.0000 </r>
       <r>    9.8225   -0.0000 </r>
       <r>    9.8225   -0.0000 </r>
       <r>    9.8225   -0.0000 </r>
       <r>   16.1315    0.0000 </r>
       <r>   16.1315    0.0000 </r>
       <r>   16.1315    0.0000 </r>
       <r>   17.6000    0.0000 </r>
       <r>   17.6000    0.0000 </r>
       <r>   17.6000    0.0000 </r>
       <r>   19.6934    0.0000 </r>
       <r>   19.6934    0.0000 </r>
       <r>   19.6934    0.0000 </r>
       <r>   24.1748    0.0000 </r>
       <r>   25.4352    0.0000 </r>
       <r>   25.4352    0.0000 </r>
       <r>   25.4352    0.0000 </r>
       <r>   25.7242    0.0000 </r>
       <r>   27.5734    0.0000 </r>
       <r>   27.5734    0.0000 </r>
       <r>   27.5734    0.0000 </r>
       <r>   28.0989    0.0000 </r>
       <r>   28.0989    0.0000 </r>
       <r>   32.0317    0.0000 </r>
       <r>   33.3722    0.0000 </r>
       <r>   33.3722    0.0000 </r>
       <r>   36.0251    0.0000 </r>
       <r>   37.2628    0.0000 </r>
      </set>
      <set comment="kpoint 17">
       <r>    1.3656    1.0000 </r>
       <r>    2.2620    1.0000 </r>
       <r>    2.2745    1.0000 </r>
       <r>    2.2745    1.0000 </r>
       <r>    2.4051    1.0000 </r>
       <r>    2.4915    1.0000 </r>
       <r>    2.4915    1.0000 </r>
       <r>    3.4205    1.0000 </r>
       <r>    3.7843    1.0000 </r>
       <r>    3.7857    1.0000 </r>
       <r>    4.4829    1.0000 </r>
       <r>    4.6415    1.0000 </r>
       <r>    4.6415    1.0000 </r>
       <r>    4.6797    1.0000 </r>
       <r>    4.8759    1.0000 </r>
       <r>    4.9793    1.0000 </r>
       <r>    5.0350    1.0000 </r>
       <r>    5.0350    1.0000 </r>
       <r>    5.4615    1.0000 </r>
       <r>    5.5043    1.0000 </r>
       <r>    5.5043    1.0000 </r>
       <r>    8.3047    0.3930 </r>
       <r>   10.5533   -0.0000 </r>
       <r>   10.5533   -0.0000 </r>
       <r>   15.8901    0.0000 </r>
       <r>   15.8901    0.0000 </r>
       <r>   16.6471    0.0000 </r>
       <r>   16.6471    0.0000 </r>
       <r>   17.8884    0.0000 </r>
       <r>   18.5064    0.0000 </r>
       <r>   19.6255    0.0000 </r>
       <r>   19.6255    0.0000 </r>
       <r>   20.3237    0.0000 </r>
       <r>   23.3608    0.0000 </r>
       <r>   25.2534    0.0000 </r>
       <r>   25.3715    0.0000 </r>
       <r>   25.9553    0.0000 </r>
       <r>   25.9553    0.0000 </r>
       <r>   27.0941    0.0000 </r>
       <r>   27.6521    0.0000 </r>
       <r>   28.5732    0.0000 </r>
       <r>   29.4183    0.0000 </r>
       <r>   29.4183    0.0000 </r>
       <r>   31.2363    0.0000 </r>
       <r>   33.1077    0.0000 </r>
       <r>   33.6440    0.0000 </r>
       <r>   35.2386    0.0000 </r>
       <r>   35.9950    0.0000 </r>
      </set>
      <set comment="kpoint 18">
       <r>    1.8808    1.0000 </r>
       <r>    2.4300    1.0000 </r>
       <r>    2.5120    1.0000 </r>
       <r>    2.5120    1.0000 </r>
       <r>    2.6047    1.0000 </r>
       <r>    2.7803    1.0000 </r>
       <r>    2.7803    1.0000 </r>
       <r>    3.2443    1.0000 </r>
       <r>    3.8939    1.0000 </r>
       <r>    3.9506    1.0000 </r>
       <r>    4.0761    1.0000 </r>
       <r>    4.0761    1.0000 </r>
       <r>    4.4827    1.0000 </r>
       <r>    4.5039    1.0000 </r>
       <r>    4.7188    1.0000 </r>
       <r>    4.8208    1.0000 </r>
       <r>    4.8216    1.0000 </r>
       <r>    4.8216    1.0000 </r>
       <r>    5.3348    1.0000 </r>
       <r>    5.4782    1.0000 </r>
       <r>    5.4782    1.0000 </r>
       <r>    6.8383    1.0000 </r>
       <r>   11.5088    0.0000 </r>
       <r>   11.5088    0.0000 </r>
       <r>   14.8140    0.0000 </r>
       <r>   14.8140    0.0000 </r>
       <r>   16.7440    0.0000 </r>
       <r>   16.7440    0.0000 </r>
       <r>   18.9046    0.0000 </r>
       <r>   18.9320    0.0000 </r>
       <r>   18.9320    0.0000 </r>
       <r>   20.7600    0.0000 </r>
       <r>   21.3154    0.0000 </r>
       <r>   22.2554    0.0000 </r>
       <r>   25.0231    0.0000 </r>
       <r>   25.3269    0.0000 </r>
       <r>   25.6479    0.0000 </r>
       <r>   27.3376    0.0000 </r>
       <r>   27.3376    0.0000 </r>
       <r>   27.8298    0.0000 </r>
       <r>   27.8675    0.0000 </r>
       <r>   30.4866    0.0000 </r>
       <r>   31.4095    0.0000 </r>
       <r>   31.4095    0.0000 </r>
       <r>   33.3915    0.0000 </r>
       <r>   33.4782    0.0000 </r>
       <r>   34.1641    0.0000 </r>
       <r>   34.1641    0.0000 </r>
      </set>
      <set comment="kpoint 19">
       <r>    2.3838    1.0000 </r>
       <r>    2.5503    1.0000 </r>
       <r>    2.7644    1.0000 </r>
       <r>    2.7644    1.0000 </r>
       <r>    2.8279    1.0000 </r>
       <r>    3.0363    1.0000 </r>
       <r>    3.0721    1.0000 </r>
       <r>    3.0721    1.0000 </r>
       <r>    3.5784    1.0000 </r>
       <r>    3.5784    1.0000 </r>
       <r>    3.9011    1.0000 </r>
       <r>    4.1071    1.0000 </r>
       <r>    4.1728    1.0000 </r>
       <r>    4.4374    1.0000 </r>
       <r>    4.6291    1.0000 </r>
       <r>    4.6291    1.0000 </r>
       <r>    4.8654    1.0000 </r>
       <r>    4.9917    1.0000 </r>
       <r>    5.1709    1.0000 </r>
       <r>    5.4671    1.0000 </r>
       <r>    5.4671    1.0000 </r>
       <r>    5.6562    1.0000 </r>
       <r>   12.5545    0.0000 </r>
       <r>   12.5545    0.0000 </r>
       <r>   13.6798    0.0000 </r>
       <r>   13.6798    0.0000 </r>
       <r>   17.1074    0.0000 </r>
       <r>   17.1074    0.0000 </r>
       <r>   18.2068    0.0000 </r>
       <r>   18.2068    0.0000 </r>
       <r>   19.9625    0.0000 </r>
       <r>   21.0991    0.0000 </r>
       <r>   22.5970    0.0000 </r>
       <r>   23.1436    0.0000 </r>
       <r>   24.0811    0.0000 </r>
       <r>   24.6685    0.0000 </r>
       <r>   25.4285    0.0000 </r>
       <r>   26.2956    0.0000 </r>
       <r>   28.3415    0.0000 </r>
       <r>   28.9230    0.0000 </r>
       <r>   28.9230    0.0000 </r>
       <r>   29.2447    0.0000 </r>
       <r>   31.6047    0.0000 </r>
       <r>   31.6047    0.0000 </r>
       <r>   33.9924    0.0000 </r>
       <r>   34.3081    0.0000 </r>
       <r>   34.3215    0.0000 </r>
       <r>   34.3215    0.0000 </r>
      </set>
      <set comment="kpoint 20">
       <r>    1.6651    1.0000 </r>
       <r>    2.3514    1.0000 </r>
       <r>    2.3862    1.0000 </r>
       <r>    2.3862    1.0000 </r>
       <r>    2.6256    1.0000 </r>
       <r>    2.6256    1.0000 </r>
       <r>    2.7240    1.0000 </r>
       <r>    3.4339    1.0000 </r>
       <r>    3.8141    1.0000 </r>
       <r>    3.8251    1.0000 </r>
       <r>    4.3818    1.0000 </r>
       <r>    4.3818    1.0000 </r>
       <r>    4.4134    1.0000 </r>
       <r>    4.4817    1.0000 </r>
       <r>    4.7490    1.0000 </r>
       <r>    4.8159    1.0000 </r>
       <r>    4.8806    1.0000 </r>
       <r>    4.8806    1.0000 </r>
       <r>    5.4353    1.0000 </r>
       <r>    5.4398    1.0000 </r>
       <r>    5.4398    1.0000 </r>
       <r>    8.9721   -0.0000 </r>
       <r>    8.9721   -0.0000 </r>
       <r>   11.1736    0.0000 </r>
       <r>   14.5185    0.0000 </r>
       <r>   16.6036    0.0000 </r>
       <r>   16.6036    0.0000 </r>
       <r>   16.6502    0.0000 </r>
       <r>   18.5921    0.0000 </r>
       <r>   18.5921    0.0000 </r>
       <r>   20.1630    0.0000 </r>
       <r>   20.1630    0.0000 </r>
       <r>   20.8999    0.0000 </r>
       <r>   22.0544    0.0000 </r>
       <r>   24.8382    0.0000 </r>
       <r>   25.2025    0.0000 </r>
       <r>   25.9308    0.0000 </r>
       <r>   25.9308    0.0000 </r>
       <r>   27.2698    0.0000 </r>
       <r>   29.3704    0.0000 </r>
       <r>   29.5143    0.0000 </r>
       <r>   29.5143    0.0000 </r>
       <r>   30.2383    0.0000 </r>
       <r>   31.3943    0.0000 </r>
       <r>   32.2624    0.0000 </r>
       <r>   33.7016    0.0000 </r>
       <r>   35.5149    0.0000 </r>
       <r>   35.5156    0.0000 </r>
      </set>
      <set comment="kpoint 21">
       <r>    2.0868    1.0000 </r>
       <r>    2.5175    1.0000 </r>
       <r>    2.5300    1.0000 </r>
       <r>    2.6088    1.0000 </r>
       <r>    2.8468    1.0000 </r>
       <r>    2.8997    1.0000 </r>
       <r>    2.9888    1.0000 </r>
       <r>    3.3640    1.0000 </r>
       <r>    3.8440    1.0000 </r>
       <r>    3.8790    1.0000 </r>
       <r>    3.9268    1.0000 </r>
       <r>    4.0150    1.0000 </r>
       <r>    4.0639    1.0000 </r>
       <r>    4.5202    1.0000 </r>
       <r>    4.6263    1.0000 </r>
       <r>    4.6396    1.0000 </r>
       <r>    4.7345    1.0000 </r>
       <r>    4.9864    1.0000 </r>
       <r>    5.3206    1.0000 </r>
       <r>    5.3603    1.0000 </r>
       <r>    5.3675    1.0000 </r>
       <r>    7.4684    1.0000 </r>
       <r>    9.8338   -0.0000 </r>
       <r>   11.9916    0.0000 </r>
       <r>   13.1962    0.0000 </r>
       <r>   15.3231    0.0000 </r>
       <r>   16.9832    0.0000 </r>
       <r>   17.4322    0.0000 </r>
       <r>   18.8423    0.0000 </r>
       <r>   19.4402    0.0000 </r>
       <r>   20.7704    0.0000 </r>
       <r>   20.9390    0.0000 </r>
       <r>   20.9914    0.0000 </r>
       <r>   21.0219    0.0000 </r>
       <r>   24.0823    0.0000 </r>
       <r>   25.8687    0.0000 </r>
       <r>   25.9790    0.0000 </r>
       <r>   26.6253    0.0000 </r>
       <r>   27.2919    0.0000 </r>
       <r>   28.6844    0.0000 </r>
       <r>   29.7462    0.0000 </r>
       <r>   30.5085    0.0000 </r>
       <r>   31.1773    0.0000 </r>
       <r>   31.8470    0.0000 </r>
       <r>   33.3440    0.0000 </r>
       <r>   34.0473    0.0000 </r>
       <r>   34.1951    0.0000 </r>
       <r>   34.4638    0.0000 </r>
      </set>
      <set comment="kpoint 22">
       <r>    2.4696    1.0000 </r>
       <r>    2.5978    1.0000 </r>
       <r>    2.7913    1.0000 </r>
       <r>    2.8942    1.0000 </r>
       <r>    3.0269    1.0000 </r>
       <r>    3.0973    1.0000 </r>
       <r>    3.1094    1.0000 </r>
       <r>    3.2593    1.0000 </r>
       <r>    3.5836    1.0000 </r>
       <r>    3.6736    1.0000 </r>
       <r>    3.7353    1.0000 </r>
       <r>    3.7821    1.0000 </r>
       <r>    4.1062    1.0000 </r>
       <r>    4.3486    1.0000 </r>
       <r>    4.5084    1.0000 </r>
       <r>    4.5559    1.0000 </r>
       <r>    4.8205    1.0000 </r>
       <r>    5.1227    1.0000 </r>
       <r>    5.3185    1.0000 </r>
       <r>    5.3212    1.0000 </r>
       <r>    5.4119    1.0000 </r>
       <r>    6.2375    1.0000 </r>
       <r>   10.8011   -0.0000 </r>
       <r>   11.8384    0.0000 </r>
       <r>   13.1281    0.0000 </r>
       <r>   14.1616    0.0000 </r>
       <r>   17.5356    0.0000 </r>
       <r>   18.2888    0.0000 </r>
       <r>   18.4343    0.0000 </r>
       <r>   19.5583    0.0000 </r>
       <r>   19.6295    0.0000 </r>
       <r>   20.3249    0.0000 </r>
       <r>   22.0282    0.0000 </r>
       <r>   23.1152    0.0000 </r>
       <r>   23.3702    0.0000 </r>
       <r>   25.3934    0.0000 </r>
       <r>   26.2540    0.0000 </r>
       <r>   27.1010    0.0000 </r>
       <r>   27.4215    0.0000 </r>
       <r>   28.3544    0.0000 </r>
       <r>   30.1588    0.0000 </r>
       <r>   30.6545    0.0000 </r>
       <r>   31.1166    0.0000 </r>
       <r>   32.1479    0.0000 </r>
       <r>   32.5048    0.0000 </r>
       <r>   33.6612    0.0000 </r>
       <r>   34.3467    0.0000 </r>
       <r>   35.1951    0.0000 </r>
      </set>
      <set comment="kpoint 23">
       <r>    2.3456    1.0000 </r>
       <r>    2.6231    1.0000 </r>
       <r>    2.6879    1.0000 </r>
       <r>    2.6879    1.0000 </r>
       <r>    3.1247    1.0000 </r>
       <r>    3.1247    1.0000 </r>
       <r>    3.1978    1.0000 </r>
       <r>    3.4653    1.0000 </r>
       <r>    3.6718    1.0000 </r>
       <r>    3.6718    1.0000 </r>
       <r>    3.8584    1.0000 </r>
       <r>    3.8897    1.0000 </r>
       <r>    3.9418    1.0000 </r>
       <r>    4.4453    1.0000 </r>
       <r>    4.4719    1.0000 </r>
       <r>    4.5347    1.0000 </r>
       <r>    4.5347    1.0000 </r>
       <r>    5.2101    1.0000 </r>
       <r>    5.2101    1.0000 </r>
       <r>    5.2260    1.0000 </r>
       <r>    5.4037    1.0000 </r>
       <r>    8.2822    0.5813 </r>
       <r>    8.2822    0.5813 </r>
       <r>   11.5313    0.0000 </r>
       <r>   12.9527    0.0000 </r>
       <r>   16.0865    0.0000 </r>
       <r>   16.0865    0.0000 </r>
       <r>   17.4114    0.0000 </r>
       <r>   19.4005    0.0000 </r>
       <r>   19.9777    0.0000 </r>
       <r>   19.9777    0.0000 </r>
       <r>   21.3655    0.0000 </r>
       <r>   21.3655    0.0000 </r>
       <r>   22.7097    0.0000 </r>
       <r>   22.9651    0.0000 </r>
       <r>   25.0081    0.0000 </r>
       <r>   26.7828    0.0000 </r>
       <r>   27.3001    0.0000 </r>
       <r>   27.3001    0.0000 </r>
       <r>   29.3088    0.0000 </r>
       <r>   30.0287    0.0000 </r>
       <r>   30.9478    0.0000 </r>
       <r>   30.9478    0.0000 </r>
       <r>   31.1719    0.0000 </r>
       <r>   33.8755    0.0000 </r>
       <r>   33.8755    0.0000 </r>
       <r>   34.4996    0.0000 </r>
       <r>   34.6534    0.0000 </r>
      </set>
      <set comment="kpoint 24">
       <r>    2.5672    1.0000 </r>
       <r>    2.6874    1.0000 </r>
       <r>    2.7830    1.0000 </r>
       <r>    2.8663    1.0000 </r>
       <r>    3.1618    1.0000 </r>
       <r>    3.2248    1.0000 </r>
       <r>    3.4223    1.0000 </r>
       <r>    3.4867    1.0000 </r>
       <r>    3.5311    1.0000 </r>
       <r>    3.6473    1.0000 </r>
       <r>    3.7154    1.0000 </r>
       <r>    3.7903    1.0000 </r>
       <r>    4.0658    1.0000 </r>
       <r>    4.2855    1.0000 </r>
       <r>    4.3306    1.0000 </r>
       <r>    4.3976    1.0000 </r>
       <r>    4.6698    1.0000 </r>
       <r>    4.9759    1.0000 </r>
       <r>    5.1235    1.0000 </r>
       <r>    5.1297    1.0000 </r>
       <r>    6.0414    1.0000 </r>
       <r>    6.9949    1.0000 </r>
       <r>    9.2227   -0.0000 </r>
       <r>   10.3029   -0.0000 </r>
       <r>   13.8430    0.0000 </r>
       <r>   14.8943    0.0000 </r>
       <r>   17.0460    0.0000 </r>
       <r>   18.0630    0.0000 </r>
       <r>   18.1574    0.0000 </r>
       <r>   18.9389    0.0000 </r>
       <r>   20.8731    0.0000 </r>
       <r>   21.8845    0.0000 </r>
       <r>   21.9457    0.0000 </r>
       <r>   22.6566    0.0000 </r>
       <r>   23.7173    0.0000 </r>
       <r>   25.7277    0.0000 </r>
       <r>   26.1103    0.0000 </r>
       <r>   27.5137    0.0000 </r>
       <r>   27.6186    0.0000 </r>
       <r>   28.2239    0.0000 </r>
       <r>   30.2782    0.0000 </r>
       <r>   30.7007    0.0000 </r>
       <r>   31.0043    0.0000 </r>
       <r>   32.3025    0.0000 </r>
       <r>   32.5159    0.0000 </r>
       <r>   33.4424    0.0000 </r>
       <r>   34.9176    0.0000 </r>
       <r>   35.0956    0.0000 </r>
      </set>
      <set comment="kpoint 25">
       <r>    2.6616    1.0000 </r>
       <r>    2.7602    1.0000 </r>
       <r>    2.7602    1.0000 </r>
       <r>    2.7780    1.0000 </r>
       <r>    3.3054    1.0000 </r>
       <r>    3.3509    1.0000 </r>
       <r>    3.3509    1.0000 </r>
       <r>    3.4621    1.0000 </r>
       <r>    3.7865    1.0000 </r>
       <r>    3.7865    1.0000 </r>
       <r>    3.9068    1.0000 </r>
       <r>    3.9181    1.0000 </r>
       <r>    4.0199    1.0000 </r>
       <r>    4.1670    1.0000 </r>
       <r>    4.1940    1.0000 </r>
       <r>    4.1940    1.0000 </r>
       <r>    4.6627    1.0000 </r>
       <r>    4.8796    1.0000 </r>
       <r>    4.8796    1.0000 </r>
       <r>    4.9486    1.0000 </r>
       <r>    6.8477    1.0000 </r>
       <r>    7.8975    1.0000 </r>
       <r>    7.8975    1.0000 </r>
       <r>    8.9873   -0.0000 </r>
       <r>   14.7544    0.0000 </r>
       <r>   15.8214    0.0000 </r>
       <r>   15.8214    0.0000 </r>
       <r>   16.9118    0.0000 </r>
       <r>   18.8035    0.0000 </r>
       <r>   19.7552    0.0000 </r>
       <r>   19.7552    0.0000 </r>
       <r>   20.7481    0.0000 </r>
       <r>   24.2585    0.0000 </r>
       <r>   24.2585    0.0000 </r>
       <r>   24.9433    0.0000 </r>
       <r>   25.1055    0.0000 </r>
       <r>   25.7221    0.0000 </r>
       <r>   27.0629    0.0000 </r>
       <r>   27.0629    0.0000 </r>
       <r>   27.4440    0.0000 </r>
       <r>   30.4778    0.0000 </r>
       <r>   30.9678    0.0000 </r>
       <r>   30.9678    0.0000 </r>
       <r>   32.3573    0.0000 </r>
       <r>   32.7723    0.0000 </r>
       <r>   33.7214    0.0000 </r>
       <r>   33.8677    0.0000 </r>
       <r>   33.8677    0.0000 </r>
      </set>
      <set comment="kpoint 26">
       <r>    1.8642    1.0000 </r>
       <r>    2.4229    1.0000 </r>
       <r>    2.4229    1.0000 </r>
       <r>    2.4229    1.0000 </r>
       <r>    2.8648    1.0000 </r>
       <r>    2.8648    1.0000 </r>
       <r>    2.8648    1.0000 </r>
       <r>    3.6290    1.0000 </r>
       <r>    3.7967    1.0000 </r>
       <r>    3.7967    1.0000 </r>
       <r>    4.2243    1.0000 </r>
       <r>    4.2243    1.0000 </r>
       <r>    4.2243    1.0000 </r>
       <r>    4.5831    1.0000 </r>
       <r>    4.5831    1.0000 </r>
       <r>    4.5831    1.0000 </r>
       <r>    4.6686    1.0000 </r>
       <r>    4.6686    1.0000 </r>
       <r>    5.4759    1.0000 </r>
       <r>    5.4759    1.0000 </r>
       <r>    5.4759    1.0000 </r>
       <r>    9.4972   -0.0000 </r>
       <r>    9.4972   -0.0000 </r>
       <r>    9.4972   -0.0000 </r>
       <r>   15.0403    0.0000 </r>
       <r>   15.0403    0.0000 </r>
       <r>   15.0403    0.0000 </r>
       <r>   18.8145    0.0000 </r>
       <r>   18.8145    0.0000 </r>
       <r>   18.8145    0.0000 </r>
       <r>   20.5789    0.0000 </r>
       <r>   21.4352    0.0000 </r>
       <r>   21.4352    0.0000 </r>
       <r>   21.4352    0.0000 </r>
       <r>   25.1100    0.0000 </r>
       <r>   25.1100    0.0000 </r>
       <r>   25.1100    0.0000 </r>
       <r>   25.1394    0.0000 </r>
       <r>   28.1182    0.0000 </r>
       <r>   28.1182    0.0000 </r>
       <r>   31.1037    0.0000 </r>
       <r>   31.5296    0.0000 </r>
       <r>   31.5296    0.0000 </r>
       <r>   31.5296    0.0000 </r>
       <r>   31.9541    0.0000 </r>
       <r>   31.9541    0.0000 </r>
       <r>   35.4271    0.0000 </r>
       <r>   35.4271    0.0000 </r>
      </set>
      <set comment="kpoint 27">
       <r>    2.1212    1.0000 </r>
       <r>    2.4838    1.0000 </r>
       <r>    2.5517    1.0000 </r>
       <r>    2.5517    1.0000 </r>
       <r>    3.0879    1.0000 </r>
       <r>    3.0879    1.0000 </r>
       <r>    3.1011    1.0000 </r>
       <r>    3.6957    1.0000 </r>
       <r>    3.8303    1.0000 </r>
       <r>    3.8507    1.0000 </r>
       <r>    3.9456    1.0000 </r>
       <r>    3.9456    1.0000 </r>
       <r>    3.9868    1.0000 </r>
       <r>    4.3301    1.0000 </r>
       <r>    4.4397    1.0000 </r>
       <r>    4.4397    1.0000 </r>
       <r>    4.7875    1.0000 </r>
       <r>    4.8989    1.0000 </r>
       <r>    5.4130    1.0000 </r>
       <r>    5.4130    1.0000 </r>
       <r>    5.4391    1.0000 </r>
       <r>    7.9021    1.0000 </r>
       <r>   10.2161   -0.0000 </r>
       <r>   10.2161   -0.0000 </r>
       <r>   13.6810    0.0000 </r>
       <r>   13.6810    0.0000 </r>
       <r>   15.8292    0.0000 </r>
       <r>   19.2074    0.0000 </r>
       <r>   19.2089    0.0000 </r>
       <r>   19.2089    0.0000 </r>
       <r>   21.1779    0.0000 </r>
       <r>   21.3915    0.0000 </r>
       <r>   21.3915    0.0000 </r>
       <r>   22.3037    0.0000 </r>
       <r>   24.8296    0.0000 </r>
       <r>   25.0683    0.0000 </r>
       <r>   25.7803    0.0000 </r>
       <r>   25.7803    0.0000 </r>
       <r>   26.4867    0.0000 </r>
       <r>   28.9911    0.0000 </r>
       <r>   30.0486    0.0000 </r>
       <r>   31.8063    0.0000 </r>
       <r>   32.3398    0.0000 </r>
       <r>   32.6041    0.0000 </r>
       <r>   33.0002    0.0000 </r>
       <r>   33.0002    0.0000 </r>
       <r>   34.4937    0.0000 </r>
       <r>   34.4939    0.0000 </r>
      </set>
      <set comment="kpoint 28">
       <r>    2.3497    1.0000 </r>
       <r>    2.4754    1.0000 </r>
       <r>    2.7306    1.0000 </r>
       <r>    2.7306    1.0000 </r>
       <r>    3.0988    1.0000 </r>
       <r>    3.0988    1.0000 </r>
       <r>    3.4001    1.0000 </r>
       <r>    3.6840    1.0000 </r>
       <r>    3.7075    1.0000 </r>
       <r>    3.7885    1.0000 </r>
       <r>    3.8645    1.0000 </r>
       <r>    3.8645    1.0000 </r>
       <r>    3.9331    1.0000 </r>
       <r>    4.1044    1.0000 </r>
       <r>    4.3267    1.0000 </r>
       <r>    4.3267    1.0000 </r>
       <r>    5.1271    1.0000 </r>
       <r>    5.3169    1.0000 </r>
       <r>    5.3434    1.0000 </r>
       <r>    5.3434    1.0000 </r>
       <r>    5.4487    1.0000 </r>
       <r>    6.5276    1.0000 </r>
       <r>   10.9516   -0.0000 </r>
       <r>   10.9516   -0.0000 </r>
       <r>   12.6429    0.0000 </r>
       <r>   12.6429    0.0000 </r>
       <r>   16.8168    0.0000 </r>
       <r>   17.9513    0.0000 </r>
       <r>   19.7835    0.0000 </r>
       <r>   19.7835    0.0000 </r>
       <r>   20.6321    0.0000 </r>
       <r>   20.6321    0.0000 </r>
       <r>   23.3496    0.0000 </r>
       <r>   23.4711    0.0000 </r>
       <r>   24.4074    0.0000 </r>
       <r>   24.8892    0.0000 </r>
       <r>   25.3875    0.0000 </r>
       <r>   26.9500    0.0000 </r>
       <r>   27.0341    0.0000 </r>
       <r>   27.0341    0.0000 </r>
       <r>   31.4399    0.0000 </r>
       <r>   31.8054    0.0000 </r>
       <r>   31.8054    0.0000 </r>
       <r>   32.1221    0.0000 </r>
       <r>   33.0372    0.0000 </r>
       <r>   33.1672    0.0000 </r>
       <r>   33.7300    0.0000 </r>
       <r>   33.8791    0.0000 </r>
      </set>
      <set comment="kpoint 29">
       <r>    2.1946    1.0000 </r>
       <r>    2.5177    1.0000 </r>
       <r>    2.5177    1.0000 </r>
       <r>    2.5494    1.0000 </r>
       <r>    3.2187    1.0000 </r>
       <r>    3.2675    1.0000 </r>
       <r>    3.2675    1.0000 </r>
       <r>    3.7200    1.0000 </r>
       <r>    3.7815    1.0000 </r>
       <r>    3.9090    1.0000 </r>
       <r>    3.9090    1.0000 </r>
       <r>    4.0449    1.0000 </r>
       <r>    4.2052    1.0000 </r>
       <r>    4.2181    1.0000 </r>
       <r>    4.2225    1.0000 </r>
       <r>    4.2225    1.0000 </r>
       <r>    4.7606    1.0000 </r>
       <r>    5.2625    1.0000 </r>
       <r>    5.3666    1.0000 </r>
       <r>    5.3953    1.0000 </r>
       <r>    5.3953    1.0000 </r>
       <r>    8.5600   -0.0005 </r>
       <r>    8.5600   -0.0005 </r>
       <r>   10.5927   -0.0000 </r>
       <r>   12.4855    0.0000 </r>
       <r>   14.4309    0.0000 </r>
       <r>   14.4309    0.0000 </r>
       <r>   17.7848    0.0000 </r>
       <r>   19.6430    0.0000 </r>
       <r>   21.5467    0.0000 </r>
       <r>   21.5467    0.0000 </r>
       <r>   22.0392    0.0000 </r>
       <r>   22.0392    0.0000 </r>
       <r>   23.0962    0.0000 </r>
       <r>   24.3015    0.0000 </r>
       <r>   24.8455    0.0000 </r>
       <r>   25.7898    0.0000 </r>
       <r>   25.7898    0.0000 </r>
       <r>   26.4491    0.0000 </r>
       <r>   28.8594    0.0000 </r>
       <r>   30.6305    0.0000 </r>
       <r>   30.8403    0.0000 </r>
       <r>   32.5679    0.0000 </r>
       <r>   32.5679    0.0000 </r>
       <r>   33.4917    0.0000 </r>
       <r>   33.9934    0.0000 </r>
       <r>   34.0621    0.0000 </r>
       <r>   34.5356    0.0000 </r>
      </set>
      <set comment="kpoint 30">
       <r>    2.3023    1.0000 </r>
       <r>    2.4223    1.0000 </r>
       <r>    2.5698    1.0000 </r>
       <r>    2.5754    1.0000 </r>
       <r>    3.2353    1.0000 </r>
       <r>    3.2462    1.0000 </r>
       <r>    3.4714    1.0000 </r>
       <r>    3.6266    1.0000 </r>
       <r>    3.8246    1.0000 </r>
       <r>    3.9083    1.0000 </r>
       <r>    4.0065    1.0000 </r>
       <r>    4.0912    1.0000 </r>
       <r>    4.0983    1.0000 </r>
       <r>    4.1492    1.0000 </r>
       <r>    4.1902    1.0000 </r>
       <r>    4.2123    1.0000 </r>
       <r>    5.0227    1.0000 </r>
       <r>    5.2713    1.0000 </r>
       <r>    5.2905    1.0000 </r>
       <r>    5.3013    1.0000 </r>
       <r>    5.9903    1.0000 </r>
       <r>    7.1260    1.0000 </r>
       <r>    9.3719   -0.0000 </r>
       <r>   10.2329   -0.0000 </r>
       <r>   12.4340    0.0000 </r>
       <r>   13.2688    0.0000 </r>
       <r>   15.3870    0.0000 </r>
       <r>   16.5105    0.0000 </r>
       <r>   20.2785    0.0000 </r>
       <r>   21.1136    0.0000 </r>
       <r>   22.1230    0.0000 </r>
       <r>   22.7778    0.0000 </r>
       <r>   22.8678    0.0000 </r>
       <r>   23.5777    0.0000 </r>
       <r>   23.8126    0.0000 </r>
       <r>   25.4152    0.0000 </r>
       <r>   25.8625    0.0000 </r>
       <r>   26.1951    0.0000 </r>
       <r>   26.6196    0.0000 </r>
       <r>   27.5152    0.0000 </r>
       <r>   31.4198    0.0000 </r>
       <r>   31.5712    0.0000 </r>
       <r>   31.5712    0.0000 </r>
       <r>   32.0432    0.0000 </r>
       <r>   32.2658    0.0000 </r>
       <r>   33.3008    0.0000 </r>
       <r>   34.5191    0.0000 </r>
       <r>   34.5282    0.0000 </r>
      </set>
      <set comment="kpoint 31">
       <r>    2.3292    1.0000 </r>
       <r>    2.4232    1.0000 </r>
       <r>    2.4232    1.0000 </r>
       <r>    2.4729    1.0000 </r>
       <r>    3.3525    1.0000 </r>
       <r>    3.4218    1.0000 </r>
       <r>    3.4218    1.0000 </r>
       <r>    3.5571    1.0000 </r>
       <r>    3.7994    1.0000 </r>
       <r>    3.8880    1.0000 </r>
       <r>    3.8880    1.0000 </r>
       <r>    3.9318    1.0000 </r>
       <r>    4.3611    1.0000 </r>
       <r>    4.3611    1.0000 </r>
       <r>    4.3736    1.0000 </r>
       <r>    4.5022    1.0000 </r>
       <r>    4.9516    1.0000 </r>
       <r>    5.1519    1.0000 </r>
       <r>    5.1519    1.0000 </r>
       <r>    5.1749    1.0000 </r>
       <r>    6.8317    1.0000 </r>
       <r>    7.9674    1.0000 </r>
       <r>    7.9674    1.0000 </r>
       <r>    9.0280   -0.0000 </r>
       <r>   13.1508    0.0000 </r>
       <r>   14.1615    0.0000 </r>
       <r>   14.1615    0.0000 </r>
       <r>   15.2467    0.0000 </r>
       <r>   20.9435    0.0000 </r>
       <r>   21.8027    0.0000 </r>
       <r>   21.8027    0.0000 </r>
       <r>   22.6407    0.0000 </r>
       <r>   24.2376    0.0000 </r>
       <r>   24.2376    0.0000 </r>
       <r>   24.8273    0.0000 </r>
       <r>   25.1119    0.0000 </r>
       <r>   25.3035    0.0000 </r>
       <r>   26.4906    0.0000 </r>
       <r>   26.4906    0.0000 </r>
       <r>   27.2595    0.0000 </r>
       <r>   31.1752    0.0000 </r>
       <r>   31.4338    0.0000 </r>
       <r>   31.4338    0.0000 </r>
       <r>   31.7636    0.0000 </r>
       <r>   32.4333    0.0000 </r>
       <r>   32.9268    0.0000 </r>
       <r>   33.1129    0.0000 </r>
       <r>   33.1129    0.0000 </r>
      </set>
      <set comment="kpoint 32">
       <r>    2.1271    1.0000 </r>
       <r>    2.4045    1.0000 </r>
       <r>    2.4045    1.0000 </r>
       <r>    2.4045    1.0000 </r>
       <r>    3.3360    1.0000 </r>
       <r>    3.3360    1.0000 </r>
       <r>    3.3360    1.0000 </r>
       <r>    3.7000    1.0000 </r>
       <r>    3.7000    1.0000 </r>
       <r>    3.9760    1.0000 </r>
       <r>    3.9760    1.0000 </r>
       <r>    3.9760    1.0000 </r>
       <r>    4.2513    1.0000 </r>
       <r>    4.2513    1.0000 </r>
       <r>    4.2513    1.0000 </r>
       <r>    5.0354    1.0000 </r>
       <r>    5.0354    1.0000 </r>
       <r>    5.0723    1.0000 </r>
       <r>    5.4349    1.0000 </r>
       <r>    5.4349    1.0000 </r>
       <r>    5.4349    1.0000 </r>
       <r>    8.9751   -0.0000 </r>
       <r>    8.9751   -0.0000 </r>
       <r>    8.9751   -0.0000 </r>
       <r>   13.0815    0.0000 </r>
       <r>   13.0815    0.0000 </r>
       <r>   13.0815    0.0000 </r>
       <r>   16.3345    0.0000 </r>
       <r>   21.8829    0.0000 </r>
       <r>   21.8829    0.0000 </r>
       <r>   21.8829    0.0000 </r>
       <r>   23.7501    0.0000 </r>
       <r>   23.7501    0.0000 </r>
       <r>   23.7501    0.0000 </r>
       <r>   24.3662    0.0000 </r>
       <r>   24.7780    0.0000 </r>
       <r>   24.7780    0.0000 </r>
       <r>   24.7780    0.0000 </r>
       <r>   27.2839    0.0000 </r>
       <r>   27.2839    0.0000 </r>
       <r>   31.2293    0.0000 </r>
       <r>   31.2293    0.0000 </r>
       <r>   32.3834    0.0000 </r>
       <r>   33.3104    0.0000 </r>
[...]
       <r>   31.8205    0.0000 </r>
       <r>   31.9461    0.0000 </r>
       <r>   31.9461    0.0000 </r>
       <r>   32.4411    0.0000 </r>
       <r>   32.5349    0.0000 </r>
       <r>   33.5045    0.0000 </r>
       <r>   33.6128    0.0000 </r>
      </set>
      <set comment="kpoint 34">
       <r>    2.1155    1.0000 </r>
       <r>    2.1862    1.0000 </r>
       <r>    2.1862    1.0000 </r>
       <r>    2.2188    1.0000 </r>
       <r>    3.4467    1.0000 </r>
       <r>    3.4880    1.0000 </r>
       <r>    3.4880    1.0000 </r>
       <r>    3.5904    1.0000 </r>
       <r>    3.6481    1.0000 </r>
       <r>    3.7157    1.0000 </r>
       <r>    3.7157    1.0000 </r>
       <r>    3.7358    1.0000 </r>
       <r>    4.8287    1.0000 </r>
       <r>    4.8459    1.0000 </r>
       <r>    4.8459    1.0000 </r>
       <r>    5.1016    1.0000 </r>
       <r>    5.1980    1.0000 </r>
       <r>    5.3439    1.0000 </r>
       <r>    5.3490    1.0000 </r>
       <r>    5.3490    1.0000 </r>
       <r>    6.9224    1.0000 </r>
       <r>    8.0789    1.0051 </r>
       <r>    8.0789    1.0051 </r>
       <r>    8.8415   -0.0000 </r>
       <r>   12.1561    0.0000 </r>
       <r>   12.8532    0.0000 </r>
       <r>   12.8532    0.0000 </r>
       <r>   13.8339    0.0000 </r>
       <r>   22.8307    0.0000 </r>
       <r>   23.3193    0.0000 </r>
       <r>   23.3193    0.0000 </r>
       <r>   23.7209    0.0000 </r>
       <r>   24.6303    0.0000 </r>
       <r>   24.6303    0.0000 </r>
       <r>   24.7793    0.0000 </r>
       <r>   25.4089    0.0000 </r>
       <r>   25.5947    0.0000 </r>
       <r>   26.0161    0.0000 </r>
       <r>   26.0161    0.0000 </r>
       <r>   26.8838    0.0000 </r>
       <r>   31.2297    0.0000 </r>
       <r>   31.5313    0.0000 </r>
       <r>   31.6109    0.0000 </r>
       <r>   31.6109    0.0000 </r>
       <r>   32.1457    0.0000 </r>
       <r>   32.2477    0.0000 </r>
       <r>   32.3983    0.0000 </r>
       <r>   32.3983    0.0000 </r>
      </set>
      <set comment="kpoint 35">
       <r>    2.0275    1.0000 </r>
       <r>    2.0646    1.0000 </r>
       <r>    2.0646    1.0000 </r>
       <r>    2.0646    1.0000 </r>
       <r>    3.5337    1.0000 </r>
       <r>    3.5337    1.0000 </r>
       <r>    3.5337    1.0000 </r>
       <r>    3.5846    1.0000 </r>
       <r>    3.5846    1.0000 </r>
       <r>    3.6151    1.0000 </r>
       <r>    3.6151    1.0000 </r>
       <r>    3.6151    1.0000 </r>
       <r>    5.1993    1.0000 </r>
       <r>    5.1993    1.0000 </r>
       <r>    5.1993    1.0000 </r>
       <r>    5.3597    1.0000 </r>
       <r>    5.3597    1.0000 </r>
       <r>    5.4109    1.0000 </r>
       <r>    5.4109    1.0000 </r>
       <r>    5.4109    1.0000 </r>
       <r>    7.3852    1.0000 </r>
       <r>    8.1858    1.0303 </r>
       <r>    8.1858    1.0303 </r>
       <r>    8.1858    1.0303 </r>
       <r>   12.0865    0.0000 </r>
       <r>   12.0865    0.0000 </r>
       <r>   12.0865    0.0000 </r>
       <r>   12.7400    0.0000 </r>
       <r>   23.5833    0.0000 </r>
       <r>   23.5833    0.0000 </r>
       <r>   23.5833    0.0000 </r>
       <r>   23.7268    0.0000 </r>
       <r>   25.7210    0.0000 </r>
       <r>   25.7210    0.0000 </r>
       <r>   25.7210    0.0000 </r>
       <r>   25.8379    0.0000 </r>
       <r>   25.8379    0.0000 </r>
       <r>   25.8379    0.0000 </r>
       <r>   26.3637    0.0000 </r>
       <r>   26.3637    0.0000 </r>
       <r>   31.1924    0.0000 </r>
       <r>   31.1924    0.0000 </r>
       <r>   31.5360    0.0000 </r>
       <r>   31.5360    0.0000 </r>
       <r>   31.5360    0.0000 </r>
       <r>   31.6004    0.0000 </r>
       <r>   31.6004    0.0000 </r>
       <r>   31.6004    0.0000 </r>
      </set>
     </set>
    </set>
   </array>
  </eigenvalues>
  <separator name="orbital magnetization" >
   <v name="MAGDIPOLOUT">      0.00000000      0.00000000      0.00000000</v>
  </separator>
  <dos>
   <i name="efermi">      8.29189387 </i>
   <total>
    <array>
     <dimension dim="1">gridpoints</dimension>
     <dimension dim="2">spin</dimension>
     <field>energy</field>
     <field>total</field>
     <field>integrated</field>
     <set>
      <set comment="spin 1">
       <r>    -1.2207     0.0000     0.0000 </r>
       <r>    -1.0841     0.0000     0.0000 </r>
       <r>    -0.9475     0.0000     0.0000 </r>
       <r>    -0.8109     0.0000     0.0000 </r>
       <r>    -0.6744     0.0000     0.0000 </r>
       <r>    -0.5378     0.0000     0.0000 </r>
       <r>    -0.4012     0.0000     0.0000 </r>
       <r>    -0.2647    -0.0000    -0.0000 </r>
       <r>    -0.1281    -0.0000    -0.0000 </r>
       <r>     0.0085    -0.0000    -0.0000 </r>
       <r>     0.1451    -0.0000    -0.0000 </r>
       <r>     0.2816    -0.0000    -0.0000 </r>
       <r>     0.4182    -0.0001    -0.0000 </r>
       <r>     0.5548    -0.0006    -0.0001 </r>
       <r>     0.6914     0.0179     0.0024 </r>
       <r>     0.8279     0.1221     0.0190 </r>
       <r>     0.9645     0.2493     0.0531 </r>
       <r>     1.1011     0.1644     0.0755 </r>
       <r>     1.2376     0.2508     0.1098 </r>
       <r>     1.3742     0.6331     0.1962 </r>
       <r>     1.5108     0.1940     0.2227 </r>
       <r>     1.6474     0.3820     0.2749 </r>
       <r>     1.7839     0.6301     0.3609 </r>
       <r>     1.9205     0.7803     0.4675 </r>
       <r>     2.0571     1.4145     0.6607 </r>
       <r>     2.1937     5.7903     1.4515 </r>
       <r>     2.3302     8.1499     2.5645 </r>
       <r>     2.4668    12.1703     4.2267 </r>
       <r>     2.6034    15.2454     6.3088 </r>
       <r>     2.7400    11.5787     7.8901 </r>
       <r>     2.8765    11.2422     9.4255 </r>
       <r>     3.0131     6.4551    10.3071 </r>
       <r>     3.1497    11.2215    11.8396 </r>
       <r>     3.2862    10.3342    13.2510 </r>
       <r>     3.4228     9.1843    14.5053 </r>
       <r>     3.5594    11.3388    16.0539 </r>
       <r>     3.6960    12.1675    17.7157 </r>
       <r>     3.8325    16.2326    19.9326 </r>
       <r>     3.9691    16.3566    22.1665 </r>
       <r>     4.1057    11.3522    23.7169 </r>
       <r>     4.2423    10.3204    25.1264 </r>
       <r>     4.3788    10.7441    26.5937 </r>
       <r>     4.5154    11.8435    28.2112 </r>
       <r>     4.6520    13.6486    30.0753 </r>
       <r>     4.7885    11.0732    31.5875 </r>
       <r>     4.9251    11.1794    33.1143 </r>
       <r>     5.0617    10.8347    34.5941 </r>
       <r>     5.1983    10.0120    35.9615 </r>
       <r>     5.3348    14.3407    37.9200 </r>
       <r>     5.4714    17.4251    40.2998 </r>
       <r>     5.6080     7.9521    41.3858 </r>
       <r>     5.7446     0.9065    41.5096 </r>
       <r>     5.8811    -0.1223    41.4929 </r>
       <r>     6.0177     1.0733    41.6395 </r>
       <r>     6.1543     1.8450    41.8915 </r>
       <r>     6.2909     1.5236    42.0996 </r>
       <r>     6.4274     0.0613    42.1080 </r>
       <r>     6.5640     0.5667    42.1854 </r>
       <r>     6.7006     0.3818    42.2375 </r>
       <r>     6.8371     0.7612    42.3415 </r>
       <r>     6.9737     1.9971    42.6142 </r>
       <r>     7.1103     1.2936    42.7909 </r>
       <r>     7.2469     0.5962    42.8723 </r>
       <r>     7.3834     0.4889    42.9391 </r>
       <r>     7.5200     1.3950    43.1296 </r>
       <r>     7.6566     0.1937    43.1561 </r>
       <r>     7.7932     0.0358    43.1610 </r>
       <r>     7.9297     1.7262    43.3967 </r>
       <r>     8.0663     1.9933    43.6689 </r>
       <r>     8.2029     1.3321    43.8509 </r>
       <r>     8.3394     1.5795    44.0666 </r>
       <r>     8.4760     0.1940    44.0931 </r>
       <r>     8.6126     0.8218    44.2053 </r>
       <r>     8.7492     0.2617    44.2411 </r>
       <r>     8.8857     0.7371    44.3417 </r>
       <r>     9.0223     2.1450    44.6347 </r>
       <r>     9.1589     0.9609    44.7659 </r>
       <r>     9.2955     1.2500    44.9366 </r>
       <r>     9.4320     1.7836    45.1802 </r>
       <r>     9.5686     0.9392    45.3085 </r>
       <r>     9.7052     0.3937    45.3622 </r>
       <r>     9.8418     1.0860    45.5106 </r>
       <r>     9.9783     0.6301    45.5966 </r>
       <r>    10.1149    -0.0874    45.5847 </r>
       <r>    10.2515     1.8518    45.8376 </r>
       <r>    10.3880     2.3208    46.1545 </r>
       <r>    10.5246     0.2858    46.1936 </r>
       <r>    10.6612     1.4104    46.3862 </r>
       <r>    10.7978     0.9437    46.5151 </r>
       <r>    10.9343     0.8835    46.6357 </r>
       <r>    11.0709     0.6002    46.7177 </r>
       <r>    11.2075     0.4756    46.7827 </r>
       <r>    11.3441     0.5512    46.8579 </r>
       <r>    11.4806     0.8128    46.9689 </r>
       <r>    11.6172     1.5611    47.1822 </r>
       <r>    11.7538     0.0923    47.1948 </r>
       <r>    11.8903     1.1859    47.3567 </r>
       <r>    12.0269     0.9036    47.4801 </r>
       <r>    12.1635     1.0747    47.6269 </r>
       <r>    12.3001     1.2696    47.8003 </r>
       <r>    12.4366     1.1610    47.9588 </r>
       <r>    12.5732     1.9176    48.2207 </r>
       <r>    12.7098     1.5222    48.4286 </r>
       <r>    12.8464     0.5643    48.5057 </r>
       <r>    12.9829     1.0939    48.6551 </r>
       <r>    13.1195     1.3445    48.8387 </r>
       <r>    13.2561     2.6337    49.1984 </r>
       <r>    13.3927     0.8269    49.3114 </r>
       <r>    13.5292     0.2257    49.3422 </r>
       <r>    13.6658     1.0761    49.4891 </r>
       <r>    13.8024     1.7078    49.7224 </r>
       <r>    13.9389     1.6657    49.9499 </r>
       <r>    14.0755     0.3505    49.9978 </r>
       <r>    14.2121     1.8166    50.2458 </r>
       <r>    14.3487     0.5266    50.3178 </r>
       <r>    14.4852     1.3591    50.5034 </r>
       <r>    14.6218     0.9645    50.6351 </r>
       <r>    14.7584     0.4859    50.7015 </r>
       <r>    14.8950     1.5707    50.9160 </r>
       <r>    15.0315     0.9817    51.0500 </r>
       <r>    15.1681     1.7943    51.2951 </r>
       <r>    15.3047     1.8097    51.5423 </r>
       <r>    15.4412     2.2484    51.8493 </r>
       <r>    15.5778     0.7383    51.9502 </r>
       <r>    15.7144     0.6995    52.0457 </r>
       <r>    15.8510     1.9774    52.3158 </r>
       <r>    15.9875     1.8088    52.5628 </r>
       <r>    16.1241     2.1548    52.8571 </r>
       <r>    16.2607     1.6048    53.0762 </r>
       <r>    16.3973     0.9972    53.2124 </r>
       <r>    16.5338     1.5256    53.4208 </r>
       <r>    16.6704     3.3417    53.8772 </r>
       <r>    16.8070     1.7317    54.1137 </r>
       <r>    16.9436     1.0095    54.2516 </r>
       <r>    17.0801     2.6325    54.6111 </r>
       <r>    17.2167     1.7019    54.8435 </r>
       <r>    17.3533     0.4652    54.9071 </r>
       <r>    17.4898     2.4303    55.2390 </r>
       <r>    17.6264     1.4474    55.4366 </r>
       <r>    17.7630     1.2273    55.6043 </r>
       <r>    17.8996     1.5275    55.8129 </r>
       <r>    18.0361     2.6552    56.1755 </r>
       <r>    18.1727     2.4636    56.5120 </r>
       <r>    18.3093     2.1178    56.8012 </r>
       <r>    18.4459     1.2070    56.9661 </r>
       <r>    18.5824     1.4893    57.1695 </r>
       <r>    18.7190     1.1889    57.3318 </r>
       <r>    18.8556     3.3720    57.7924 </r>
       <r>    18.9921     3.9182    58.3275 </r>
       <r>    19.1287     1.2757    58.5017 </r>
       <r>    19.2653     1.5188    58.7091 </r>
       <r>    19.4019     1.2585    58.8810 </r>
       <r>    19.5384     3.0871    59.3026 </r>
       <r>    19.6750     3.1114    59.7276 </r>
       <r>    19.8116     2.5827    60.0803 </r>
       <r>    19.9482     1.1306    60.2347 </r>
       <r>    20.0847     1.4528    60.4331 </r>
       <r>    20.2213     1.7153    60.6674 </r>
       <r>    20.3579     3.1095    61.0920 </r>
       <r>    20.4945     1.0227    61.2317 </r>
       <r>    20.6310     0.6807    61.3247 </r>
       <r>    20.7676     2.2507    61.6321 </r>
       <r>    20.9042     2.9549    62.0356 </r>
       <r>    21.0407     3.9885    62.5804 </r>
       <r>    21.1773     2.3309    62.8987 </r>
       <r>    21.3139     1.0517    63.0423 </r>
       <r>    21.4505     3.0990    63.4656 </r>
       <r>    21.5870     1.8129    63.7132 </r>
       <r>    21.7236     0.4716    63.7776 </r>
       <r>    21.8602     1.3954    63.9682 </r>
       <r>    21.9968     2.8319    64.3549 </r>
       <r>    22.1333     2.6191    64.7126 </r>
       <r>    22.2699     0.9908    64.8479 </r>
       <r>    22.4065     1.7914    65.0926 </r>
       <r>    22.5430     0.4893    65.1594 </r>
       <r>    22.6796     3.0126    65.5709 </r>
       <r>    22.8162     2.1771    65.8682 </r>
       <r>    22.9528     1.7797    66.1112 </r>
       <r>    23.0893     1.0320    66.2522 </r>
       <r>    23.2259     1.7387    66.4897 </r>
       <r>    23.3625     2.9330    66.8902 </r>
       <r>    23.4991     2.1110    67.1785 </r>
       <r>    23.6356     2.0091    67.4529 </r>
       <r>    23.7722     2.9651    67.8579 </r>
       <r>    23.9088     2.0251    68.1344 </r>
       <r>    24.0453     0.5097    68.2040 </r>
       <r>    24.1819     1.5990    68.4224 </r>
       <r>    24.3185     2.9102    68.8199 </r>
       <r>    24.4551     1.2558    68.9914 </r>
       <r>    24.5916     0.4736    69.0561 </r>
       <r>    24.7282     1.8811    69.3130 </r>
       <r>    24.8648     2.6936    69.6808 </r>
       <r>    25.0014     2.0941    69.9668 </r>
       <r>    25.1379     2.8721    70.3591 </r>
       <r>    25.2745     2.0820    70.6434 </r>
       <r>    25.4111     4.4765    71.2548 </r>
       <r>    25.5477     2.8525    71.6444 </r>
       <r>    25.6842     1.9819    71.9151 </r>
       <r>    25.8208     4.9471    72.5907 </r>
       <r>    25.9574     7.4157    73.6035 </r>
       <r>    26.0939     3.9373    74.1412 </r>
       <r>    26.2305     2.0997    74.4280 </r>
       <r>    26.3671     3.3792    74.8895 </r>
       <r>    26.5037     1.8447    75.1414 </r>
       <r>    26.6402     2.2940    75.4547 </r>
       <r>    26.7768     1.0611    75.5996 </r>
       <r>    26.9134     1.0580    75.7441 </r>
       <r>    27.0500     3.4120    76.2101 </r>
       <r>    27.1865     3.6128    76.7035 </r>
       <r>    27.3231     3.8171    77.2248 </r>
       <r>    27.4597     4.6999    77.8667 </r>
       <r>    27.5962     3.9600    78.4076 </r>
       <r>    27.7328     1.7232    78.6429 </r>
       <r>    27.8694     1.1084    78.7943 </r>
       <r>    28.0060     0.7234    78.8931 </r>
       <r>    28.1425     1.5329    79.1024 </r>
       <r>    28.2791     2.1414    79.3949 </r>
       <r>    28.4157     1.9601    79.6626 </r>
       <r>    28.5523     1.4719    79.8636 </r>
       <r>    28.6888     1.4349    80.0596 </r>
       <r>    28.8254     1.1718    80.2196 </r>
       <r>    28.9620     2.5504    80.5679 </r>
       <r>    29.0986     0.8051    80.6779 </r>
       <r>    29.2351     0.7863    80.7853 </r>
       <r>    29.3717     2.3267    81.1030 </r>
       <r>    29.5083     2.4949    81.4438 </r>
       <r>    29.6448     0.5005    81.5121 </r>
       <r>    29.7814     1.5502    81.7238 </r>
       <r>    29.9180     0.3066    81.7657 </r>
       <r>    30.0546     1.1777    81.9265 </r>
       <r>    30.1911     2.2972    82.2403 </r>
       <r>    30.3277     2.2392    82.5461 </r>
       <r>    30.4643     1.1110    82.6978 </r>
       <r>    30.6009     2.2884    83.0103 </r>
       <r>    30.7374     3.2270    83.4511 </r>
       <r>    30.8740     0.7211    83.5496 </r>
       <r>    31.0106     2.2629    83.8586 </r>
       <r>    31.1471     2.6216    84.2167 </r>
       <r>    31.2837     3.4383    84.6862 </r>
       <r>    31.4203     2.3441    85.0064 </r>
       <r>    31.5569     4.6143    85.6366 </r>
       <r>    31.6934     4.1200    86.1993 </r>
       <r>    31.8300     2.3028    86.5138 </r>
       <r>    31.9666     2.5449    86.8613 </r>
       <r>    32.1032     1.9584    87.1288 </r>
       <r>    32.2397     2.9813    87.5359 </r>
       <r>    32.3763     4.2328    88.1140 </r>
       <r>    32.5129     4.0915    88.6728 </r>
       <r>    32.6495     2.9622    89.0774 </r>
       <r>    32.7860     0.4374    89.1371 </r>
       <r>    32.9226     0.4009    89.1919 </r>
       <r>    33.0592     1.7621    89.4325 </r>
       <r>    33.1957     2.4935    89.7731 </r>
       <r>    33.3323     1.9829    90.0439 </r>
       <r>    33.4689     3.5874    90.5338 </r>
       <r>    33.6055     3.5035    91.0123 </r>
       <r>    33.7420     4.8324    91.6723 </r>
       <r>    33.8786     2.9124    92.0700 </r>
       <r>    34.0152     3.7694    92.5848 </r>
       <r>    34.1518     3.8937    93.1166 </r>
       <r>    34.2883     2.7495    93.4921 </r>
       <r>    34.4249     2.4341    93.8246 </r>
       <r>    34.5615     5.2317    94.5391 </r>
       <r>    34.6980     1.7389    94.7766 </r>
       <r>    34.8346     0.8326    94.8903 </r>
       <r>    34.9712     1.4790    95.0923 </r>
       <r>    35.1078     1.0107    95.2303 </r>
       <r>    35.2443     1.9768    95.5003 </r>
       <r>    35.3809     0.3956    95.5543 </r>
       <r>    35.5175     0.9961    95.6903 </r>
       <r>    35.6541     0.5137    95.7605 </r>
       <r>    35.7906    -0.0495    95.7537 </r>
       <r>    35.9272     0.1887    95.7795 </r>
       <r>    36.0638     1.0349    95.9208 </r>
       <r>    36.2004     0.0361    95.9258 </r>
       <r>    36.3369     0.1697    95.9490 </r>
       <r>    36.4735     0.1175    95.9650 </r>
       <r>    36.6101     0.0797    95.9759 </r>
       <r>    36.7466    -0.0041    95.9753 </r>
       <r>    36.8832    -0.0001    95.9753 </r>
       <r>    37.0198    -0.0003    95.9753 </r>
       <r>    37.1564    -0.0047    95.9746 </r>
       <r>    37.2929     0.1242    95.9916 </r>
       <r>    37.4295     0.0446    95.9977 </r>
       <r>    37.5661    -0.0032    95.9973 </r>
       <r>    37.7027    -0.0003    95.9972 </r>
       <r>    37.8392     0.0029    95.9976 </r>
       <r>    37.9758     0.0176    96.0000 </r>
       <r>    38.1124    -0.0000    96.0000 </r>
       <r>    38.2489    -0.0001    96.0000 </r>
       <r>    38.3855    -0.0000    96.0000 </r>
       <r>    38.5221    -0.0000    96.0000 </r>
       <r>    38.6587     0.0000    96.0000 </r>
       <r>    38.7952     0.0000    96.0000 </r>
       <r>    38.9318     0.0000    96.0000 </r>
       <r>    39.0684     0.0000    96.0000 </r>
       <r>    39.2050     0.0000    96.0000 </r>
       <r>    39.3415     0.0000    96.0000 </r>
       <r>    39.4781     0.0000    96.0000 </r>
       <r>    39.6147     0.0000    96.0000 </r>
       <r>    39.7513     0.0000    96.0000 </r>
      </set>
     </set>
    </array>
   </total>
  </dos>
 </calculation>
 <structure name="finalpos" >
  <crystal>
   <varray name="basis" >
    <v>       4.09000000       0.00000000       0.00000000 </v>
    <v>       0.00000000       4.09000000       0.00000000 </v>
    <v>       0.00000000       0.00000000       4.09000000 </v>
   </varray>
   <i name="volume">     68.41792900 </i>
   <varray name="rec_basis" >
    <v>       0.24449878       0.00000000       0.00000000 </v>
    <v>       0.00000000       0.24449878       0.00000000 </v>
    <v>       0.00000000       0.00000000       0.24449878 </v>
   </varray>
  </crystal>
  <varray name="positions" >
   <v>       0.00000000       0.00000000       0.00000000 </v>
   <v>       0.00000000       0.50000000       0.50000000 </v>
   <v>       0.50000000       0.00000000       0.50000000 </v>
   <v>       0.50000000       0.50000000       0.00000000 </v>
  </varray>
 </structure>
</modeling>
