----- GAMESS execution script 'rungms' -----
This job is running on host crcfe02.crc.nd.edu
under operating system Linux at Thu Dec 12 13:19:59 EST 2019
Available scratch disk space (Kbyte units) at beginning of the job is
Filesystem      1K-blocks  Used  Available Use% Mounted on
AFS            2147483647     0 2147483647   0% /afs
GAMESS temporary binary files will be written to /afs/crc.nd.edu/user/c/cdrisko
GAMESS supplementary output files will be written to /afs/crc.nd.edu/user/c/cdrisko/scr
Copying input file acetaldehyde.inp to your run's scratch directory...

 Distributed Data Interface kickoff program.
 Initiating 1 compute processes on 1 nodes to run the following command:
 /afs/crc.nd.edu/x86_64_linux/g/gamess/nov-2017/gamess/gamess.00.x acetaldehyde 

          ******************************************************
          *         GAMESS VERSION = 11 NOV 2017 (R3)         *
          *             FROM IOWA STATE UNIVERSITY             *
          * M.W.SCHMIDT, K.K.BALDRIDGE, J.A.BOATZ, S.T.ELBERT, *
          *   M.S.GORDON, J.H.JENSEN, S.KOSEKI, N.MATSUNAGA,   *
          *          K.A.NGUYEN, S.J.SU, T.L.WINDUS,           *
          *       TOGETHER WITH M.DUPUIS, J.A.MONTGOMERY       *
          *         J.COMPUT.CHEM.  14, 1347-1363(1993)        *
          **************** 64 BIT INTEL VERSION ****************

  SINCE 1993, STUDENTS AND POSTDOCS WORKING AT IOWA STATE UNIVERSITY
  AND ALSO IN THEIR VARIOUS JOBS AFTER LEAVING ISU HAVE MADE IMPORTANT
  CONTRIBUTIONS TO THE CODE:
     IVANA ADAMOVIC, CHRISTINE AIKENS, YURI ALEXEEV, POOJA ARORA,
     ANDREY ASADCHEV, ROB BELL, PRADIPTA BANDYOPADHYAY, JONATHAN BENTZ,
     BRETT BODE, KURT BRORSEN, CALEB CARLIN, GALINA CHABAN, WEI CHEN,
     CHEOL HO CHOI, PAUL DAY, ALBERT DEFUSCO, NUWAN DESILVA, TIM DUDLEY,
     DMITRI FEDOROV, ALEX FINDLATER, GRAHAM FLETCHER, MARK FREITAG,
     KURT GLAESEMANN, ANASTASIA GUININA,
     DAN KEMP, GRANT MERRILL, NORIYUKI MINEZAWA, JONATHAN MULLIN,
     TAKESHI NAGATA, SEAN NEDD, HEATHER NETZLOFF, BOSILJKA NJEGIC, RYAN OLSON,
     MIKE PAK, BUU PHAM,
     SPENCER PRUITT, LUKE ROSKOP, JIM SHOEMAKER, LYUDMILA SLIPCHENKO,
     TONY SMITH, SAROM SOK LEANG, JIE SONG, TETSUYA TAKETSUGU, SIMON WEBB,
     PENG XU, SOOHAENG YOO, FEDERICO ZAHARIEV

  ADDITIONAL CODE HAS BEEN PROVIDED BY COLLABORATORS IN OTHER GROUPS:
     IOWA STATE UNIVERSITY:
          JOE IVANIC, AARON WEST, LAIMUTIS BYTAUTAS, KLAUS RUEDENBERG
     UNIVERSITY OF TOKYO: KIMIHIKO HIRAO, TAKAHITO NAKAJIMA,
          TAKAO TSUNEDA, MUNEAKI KAMIYA, SUSUMU YANAGISAWA,
          KIYOSHI YAGI, MAHITO CHIBA, SEIKEN TOKURA, NAOAKI KAWAKAMI
     UNIVERSITY OF AARHUS: FRANK JENSEN
     UNIVERSITY OF IOWA: VISVALDAS KAIRYS, HUI LI
     NATIONAL INST. OF STANDARDS AND TECHNOLOGY: WALT STEVENS, DAVID GARMER
     UNIVERSITY OF PISA: BENEDETTA MENNUCCI, JACOPO TOMASI
     UNIVERSITY OF MEMPHIS: HENRY KURTZ, PRAKASHAN KORAMBATH
     UNIVERSITY OF ALBERTA: TOBY ZENG, MARIUSZ KLOBUKOWSKI
     UNIVERSITY OF NEW ENGLAND: MARK SPACKMAN
     MIE UNIVERSITY: HIROAKI UMEDA
     NAT. INST. OF ADVANCED INDUSTRIAL SCIENCE AND TECHNOLOGY: KAZUO KITAURA
     MICHIGAN STATE UNIVERSITY:
          KAROL KOWALSKI, MARTA WLOCH, JEFFREY GOUR, JESSE LUTZ,
          WEI LI, PIOTR PIECUCH
     UNIVERSITY OF SILESIA: MONIKA MUSIAL, STANISLAW KUCHARSKI
     FACULTES UNIVERSITAIRES NOTRE-DAME DE LA PAIX:
          OLIVIER QUINET, BENOIT CHAMPAGNE
     UNIVERSITY OF CALIFORNIA - SANTA BARBARA: BERNARD KIRTMAN
     INSTITUTE FOR MOLECULAR SCIENCE:
          KAZUYA ISHIMURA, MICHIO KATOUDA, AND SHIGERU NAGASE
     UNIVERSITY OF NOTRE DAME: ANNA POMOGAEVA, DAN CHIPMAN
     KYUSHU UNIVERSITY:
          HARUYUKI NAKANO,
          FENG LONG GU, JACEK KORCHOWIEC, MARCIN MAKOWSKI, AND YURIKO AOKI,
          HIROTOSHI MORI AND EISAKU MIYOSHI
     PENNSYLVANIA STATE UNIVERSITY:
          TZVETELIN IORDANOV, CHET SWALINA, JONATHAN SKONE,
          SHARON HAMMES-SCHIFFER
     WASEDA UNIVERSITY:
          MASATO KOBAYASHI, TOMOKO AKAMA, TSUGUKI TOUMA,
          TAKESHI YOSHIKAWA, YASUHIRO IKABATA, JUNJI SEINO,
          YUYA NAKAJIMA, HIROMI NAKAI
     NANJING UNIVERSITY: SHUHUA LI
     UNIVERSITY OF NEBRASKA:
          PEIFENG SU, DEJUN SI, NANDUN THELLAMUREGE, YALI WANG, HUI LI
     UNIVERSITY OF ZURICH: ROBERTO PEVERATI, KIM BALDRIDGE
     N. COPERNICUS UNIVERSITY AND JACKSON STATE UNIVERSITY:
          MARIA BARYSZ
     UNIVERSITY OF COPENHAGEN: Jimmy Kromann, CASPER STEINMANN
     TOKYO INSTITUTE OF TECHNOLOGY: HIROYA NAKATA
     NAGOYA UNIVERSITY: YOSHIO NISHIMOTO, STEPHAN IRLE
     MOSCOW STATE UNIVERSITY: VLADIMIR MIRONOV

 EXECUTION OF GAMESS BEGUN Thu Dec 12 13:20:00 2019

            ECHO OF THE FIRST FEW INPUT CARDS -
 INPUT CARD> $CONTRL SCFTYP=RHF DFTTYP=B3LYP RUNTYP=ENERGY                                  
 INPUT CARD>       ISPHER=1 MULT=1 COORD=ZMT NZVAR=15 $END                                  
 INPUT CARD> $BASIS GBASIS=N31 NGAUSS=6 NDFUNC=1 $END                                       
 INPUT CARD> $STATPT IFREEZ(1)=9 $END                                                       
 INPUT CARD> $DATA                                                                          
 INPUT CARD>Title Single Point Energy Calculation of Acetaldehyde                           
 INPUT CARD>C1                                                                              
 INPUT CARD>C                                                                               
 INPUT CARD>C      1   1.5086892                                                            
 INPUT CARD>O      2   1.2107245  1  124.7161                                               
 INPUT CARD>H      2   1.1145804  1  114.7739  3  180.0000  0                               
 INPUT CARD>H      1   1.0926781  2  110.5176  3  160.      0                               
 INPUT CARD>H      1   1.0983769  2  109.8265  3  121.4889  0                               
 INPUT CARD>H      1   1.0983769  2  109.8265  3 -121.4889  0                               
 INPUT CARD> $END                                                                           
    1000000 WORDS OF MEMORY AVAILABLE

     BASIS OPTIONS
     -------------
     GBASIS=N31          IGAUSS=       6      POLAR=POPN31  
     NDFUNC=       1     NFFUNC=       0     DIFFSP=       F
     NPFUNC=       0      DIFFS=       F     BASNAM=        


     RUN TITLE
     ---------
 Title Single Point Energy Calculation of Acetaldehyde                           

 THE POINT GROUP OF THE MOLECULE IS C1      
 THE ORDER OF THE PRINCIPAL AXIS IS     0

 YOUR FULLY SUBSTITUTED Z-MATRIX IS
 C   
 C      1   1.5086892
 O      2   1.2107245  1  124.7161
 H      2   1.1145804  1  114.7739  3  180.0000  0
 H      1   1.0926781  2  110.5176  3  160.0000  0
 H      1   1.0983769  2  109.8265  3  121.4889  0
 H      1   1.0983769  2  109.8265  3 -121.4889  0

 THE MOMENTS OF INERTIA ARE (AMU-ANGSTROM**2)
 IXX=     7.505   IYY=    52.939   IZZ=    57.103

 ATOM      ATOMIC                      COORDINATES (BOHR)
           CHARGE         X                   Y                   Z
 C           6.0    -2.3276827276        0.5301151473        0.0296357538
 C           6.0     0.2313886567       -0.7266053720        0.0374190963
 O           8.0     2.2295390885        0.3858184183       -0.0301560666
 H           1.0     0.1810480134       -2.8309282663        0.1121623660
 H           1.0    -3.7873460109       -0.8040425652       -0.5645546282
 H           1.0    -3.4326240828       -0.1328671823       -1.5975718623
 H           1.0    -3.3852569300       -0.0158031748        1.7301520241

          INTERNUCLEAR DISTANCES (ANGS.)
          ------------------------------

                1 C          2 C          3 O          4 H          5 H     

   1 C       0.0000000    1.5086892 *  2.4129941 *  2.2198436 *  1.0926781 *
   2 C       1.5086892 *  0.0000000    1.2107245 *  1.1145804 *  2.1507392 *
   3 O       2.4129941 *  1.2107245 *  0.0000000    2.0194911 *  3.2579556  
   4 H       2.2198436 *  1.1145804 *  2.0194911 *  0.0000000    2.3850790 *
   5 H       1.0926781 *  2.1507392 *  3.2579556    2.3850790 *  0.0000000  
   6 H       1.0983769 *  2.1463151 *  3.1210656    2.5522231 *  0.6783856 *
   7 H       1.0983769 *  2.1463151 *  3.1210656    2.5522231 *  1.3014615 *

                6 H          7 H     

   1 C       1.0983769 *  1.0983769 *
   2 C       2.1463151 *  2.1463151 *
   3 O       3.1210656    3.1210656  
   4 H       2.5522231 *  2.5522231 *
   5 H       0.6783856 *  1.3014615 *
   6 H       0.0000000    1.7622233 *
   7 H       1.7622233 *  0.0000000  

  * ... LESS THAN  3.000


     ATOMIC BASIS SET
     ----------------
 THE CONTRACTED PRIMITIVE FUNCTIONS HAVE BEEN UNNORMALIZED
 THE CONTRACTED BASIS FUNCTIONS ARE NOW NORMALIZED TO UNITY

  SHELL TYPE  PRIMITIVE        EXPONENT          CONTRACTION COEFFICIENT(S)

 C         

      1   S       1          3047.5248800    0.001834737132
      1   S       2           457.3695180    0.014037322813
      1   S       3           103.9486850    0.068842622264
      1   S       4            29.2101553    0.232184443216
      1   S       5             9.2866630    0.467941348435
      1   S       6             3.1639270    0.362311985337

      2   L       7             7.8682723   -0.119332419775    0.068999066591
      2   L       8             1.8812885   -0.160854151696    0.316423960957
      2   L       9             0.5442493    1.143456437840    0.744308290898

      3   L      10             0.1687145    1.000000000000    1.000000000000

      4   D      11             0.8000000    1.000000000000

 C         

      5   S      12          3047.5248800    0.001834737132
      5   S      13           457.3695180    0.014037322813
      5   S      14           103.9486850    0.068842622264
      5   S      15            29.2101553    0.232184443216
      5   S      16             9.2866630    0.467941348435
      5   S      17             3.1639270    0.362311985337

      6   L      18             7.8682723   -0.119332419775    0.068999066591
      6   L      19             1.8812885   -0.160854151696    0.316423960957
      6   L      20             0.5442493    1.143456437840    0.744308290898

      7   L      21             0.1687145    1.000000000000    1.000000000000

      8   D      22             0.8000000    1.000000000000

 O         

      9   S      23          5484.6716600    0.001831074430
      9   S      24           825.2349460    0.013950172200
      9   S      25           188.0469580    0.068445078098
      9   S      26            52.9645000    0.232714335992
      9   S      27            16.8975704    0.470192897984
      9   S      28             5.7996353    0.358520852987

     10   L      29            15.5396162   -0.110777549525    0.070874268231
     10   L      30             3.5999336   -0.148026262701    0.339752839147
     10   L      31             1.0137618    1.130767015354    0.727158577316

     11   L      32             0.2700058    1.000000000000    1.000000000000

     12   D      33             0.8000000    1.000000000000

 H         

     13   S      34            18.7311370    0.033494604338
     13   S      35             2.8253944    0.234726953484
     13   S      36             0.6401217    0.813757326146

     14   S      37             0.1612778    1.000000000000

 H         

     15   S      38            18.7311370    0.033494604338
     15   S      39             2.8253944    0.234726953484
     15   S      40             0.6401217    0.813757326146

     16   S      41             0.1612778    1.000000000000

 H         

     17   S      42            18.7311370    0.033494604338
     17   S      43             2.8253944    0.234726953484
     17   S      44             0.6401217    0.813757326146

     18   S      45             0.1612778    1.000000000000

 H         

     19   S      46            18.7311370    0.033494604338
     19   S      47             2.8253944    0.234726953484
     19   S      48             0.6401217    0.813757326146

     20   S      49             0.1612778    1.000000000000

 TOTAL NUMBER OF BASIS SET SHELLS             =   20
 NUMBER OF CARTESIAN GAUSSIAN BASIS FUNCTIONS =   53
 NOTE: THIS RUN WILL RESTRICT THE MO VARIATION SPACE TO SPHERICAL HARMONICS.
 THE NUMBER OF ORBITALS KEPT IN THE VARIATIONAL SPACE WILL BE PRINTED LATER.
 NUMBER OF ELECTRONS                          =   24
 CHARGE OF MOLECULE                           =    0
 SPIN MULTIPLICITY                            =    1
 NUMBER OF OCCUPIED ORBITALS (ALPHA)          =   12
 NUMBER OF OCCUPIED ORBITALS (BETA )          =   12
 TOTAL NUMBER OF ATOMS                        =    7
 THE NUCLEAR REPULSION ENERGY IS       69.7662329560

     LEBEDEV GRID-BASED DFT OPTIONS
     ------------------------------
     DFTTYP=B3LYP   
     NRAD  =      96     NLEB  =     302
     NRAD0 =      24     NLEB0 =     110
     SWOFF =    5.00E-03 (PURE SCF -> DFT)
     SWITCH=    3.00E-04 (COARSE -> TIGHT GRID)
     THRESH=    0.00E+00 GTHRE=    1.00E+00

 GRIMME'S EMPIRICAL DISPERSION CORRECTION= F

     $CONTRL OPTIONS
     ---------------
 SCFTYP=RHF          RUNTYP=ENERGY       EXETYP=RUN     
 MPLEVL=       0     CITYP =NONE         CCTYP =NONE         VBTYP =NONE    
 DFTTYP=B3LYP        TDDFT =NONE    
 MULT  =       1     ICHARG=       0     NZVAR =      15     COORD =ZMT     
 PP    =NONE         RELWFN=NONE         LOCAL =NONE         NUMGRD=       F
 ISPHER=       1     NOSYM =       0     MAXIT =      30     UNITS =ANGS    
 PLTORB=       F     MOLPLT=       F     AIMPAC=       F     FRIEND=        
 NPRINT=       7     IREST =       0     GEOM  =INPUT   
 NORMF =       0     NORMP =       0     ITOL  =      20     ICUT  =       9
 INTTYP=BEST         GRDTYP=BEST         QMTTOL= 1.0E-06

     $SYSTEM OPTIONS
     ---------------
  REPLICATED MEMORY=     1000000 WORDS (ON EVERY NODE).
 DISTRIBUTED MEMDDI=           0 MILLION WORDS IN AGGREGATE,
 MEMDDI DISTRIBUTED OVER   1 PROCESSORS IS           0 WORDS/PROCESSOR.
 TOTAL MEMORY REQUESTED ON EACH PROCESSOR=     1000000 WORDS.
 TIMLIM=      525600.00 MINUTES, OR     365.0 DAYS.
 PARALL= F  BALTYP=  DLB     KDIAG=    0  COREFL= F
 MXSEQ2=     300 MXSEQ3=     150  mem10=         0

          ----------------
          PROPERTIES INPUT
          ----------------

     MOMENTS            FIELD           POTENTIAL          DENSITY
 IEMOM =       1   IEFLD =       0   IEPOT =       0   IEDEN =       0
 WHERE =COMASS     WHERE =NUCLEI     WHERE =NUCLEI     WHERE =NUCLEI  
 OUTPUT=BOTH       OUTPUT=BOTH       OUTPUT=BOTH       OUTPUT=BOTH    
 IEMINT=       0   IEFINT=       0                     IEDINT=       0
                                                       MORB  =       0
          EXTRAPOLATION IN EFFECT
          DIIS IN EFFECT
 ORBITAL PRINTING OPTION: NPREO=     1    53     2     1

     -------------------------------
     INTEGRAL TRANSFORMATION OPTIONS
     -------------------------------
     NWORD  =            0
     CUTOFF = 1.0E-09     MPTRAN =       0
     DIRTRF =       F     AOINTS =DUP     

          ----------------------
          INTEGRAL INPUT OPTIONS
          ----------------------
 NOPK  =       1 NORDER=       0 SCHWRZ=       T

   --- ENCODED Z MATRIX ---
 COORD  TYPE   I   J   K   L   M   N
    1      1    2   1
    2      1    3   2
    3      2    3   2   1
    4      1    4   2
    5      2    4   2   1
    6      3    4   2   1   3
    7      1    5   1
    8      2    5   1   2
    9      3    5   1   2   3
   10      1    6   1
   11      2    6   1   2
   12      3    6   1   2   3
   13      1    7   1
   14      2    7   1   2
   15      3    7   1   2   3

 THE DETERMINANT OF THE G MATRIX IS 10**(    -8)


                     --------------------
                     INTERNAL COORDINATES
                     --------------------

                 - - ATOMS - -         COORDINATE      COORDINATE
 NO.   TYPE    I  J  K  L  M  N        (BOHR,RAD)       (ANG,DEG)
 ----------------------------------------------------------------
   1 STRETCH   2  1                     2.8510092       1.5086892
   2 STRETCH   3  2                     2.2879376       1.2107245
   3 BEND      3  2  1                  2.1767066     124.7161000
   4 STRETCH   4  2                     2.1062515       1.1145804
   5 BEND      4  2  1                  2.0031825     114.7739000
   6 TORSION   4  2  1  3               3.1415927     180.0000000
   7 STRETCH   5  1                     2.0648622       1.0926781
   8 BEND      5  1  2                  1.9288960     110.5176000
   9 TORSION   5  1  2  3               2.7925268     160.0000000
  10 STRETCH   6  1                     2.0756314       1.0983769
  11 BEND      6  1  2                  1.9168340     109.8265000
  12 TORSION   6  1  2  3               2.1203813     121.4889000
  13 STRETCH   7  1                     2.0756314       1.0983769
  14 BEND      7  1  2                  1.9168340     109.8265000
  15 TORSION   7  1  2  3              -2.1203813    -121.4889000

     ------------------------------------------
     THE POINT GROUP IS C1 , NAXIS= 0, ORDER= 1
     ------------------------------------------

 -- VARIATIONAL SPACE WILL BE RESTRICTED TO PURE SPHERICAL HARMONICS ONLY --
 AFTER EXCLUDING CONTAMINANT COMBINATIONS FROM THE CARTESIAN GAUSSIAN BASIS
 SET, THE NUMBER OF SPHERICAL HARMONICS KEPT IN THE VARIATION SPACE IS   50

     DIMENSIONS OF THE SYMMETRY SUBSPACES ARE
 A   =   50

 ..... DONE SETTING UP THE RUN .....
 STEP CPU TIME =     0.01 TOTAL CPU TIME =          0.0 (      0.0 MIN)
 TOTAL WALL CLOCK TIME=          0.0 SECONDS, CPU UTILIZATION IS    50.00%

          ********************
          1 ELECTRON INTEGRALS
          ********************
 ...... END OF ONE-ELECTRON INTEGRALS ......
 STEP CPU TIME =     0.00 TOTAL CPU TIME =          0.0 (      0.0 MIN)
 TOTAL WALL CLOCK TIME=          0.0 SECONDS, CPU UTILIZATION IS    50.00%

          -------------
          GUESS OPTIONS
          -------------
          GUESS =HUCKEL            NORB  =       0          NORDER=       0
          MIX   =       F          PRTMO =       F          PUNMO =       F
          TOLZ  = 1.0E-08          TOLE  = 1.0E-05
          SYMDEN=       F          PURIFY=       F

 INITIAL GUESS ORBITALS GENERATED BY HUCKEL   ROUTINE.
 HUCKEL GUESS REQUIRES     27154 WORDS.

 STATISTICS FOR GENERATION OF SYMMETRY ORBITAL -Q- MATRIX
 NUMBER OF CARTESIAN ATOMIC ORBITALS=         53
 NUMBER OF SPHERICAL CONTAMINANTS DROPPED=     3
 NUMBER OF LINEARLY DEPENDENT MOS DROPPED=     0
 TOTAL NUMBER OF MOS IN VARIATION SPACE=      50

 SYMMETRIES FOR INITIAL GUESS ORBITALS FOLLOW.   BOTH SET(S).
    12 ORBITALS ARE OCCUPIED (    3 CORE ORBITALS).
     4=A        5=A        6=A        7=A        8=A        9=A       10=A   
    11=A       12=A       13=A       14=A       15=A       16=A       17=A   
    18=A       19=A       20=A       21=A       22=A   
 ...... END OF INITIAL ORBITAL SELECTION ......
 STEP CPU TIME =     0.00 TOTAL CPU TIME =          0.0 (      0.0 MIN)
 TOTAL WALL CLOCK TIME=          0.0 SECONDS, CPU UTILIZATION IS    33.33%

                    ----------------------
                    AO INTEGRAL TECHNOLOGY
                    ----------------------
     S,P,L SHELL ROTATED AXIS INTEGRALS, REPROGRAMMED BY
        KAZUYA ISHIMURA (IMS) AND JOSE SIERRA (SYNSTAR).
     S,P,D,L SHELL ROTATED AXIS INTEGRALS PROGRAMMED BY
        KAZUYA ISHIMURA (INSTITUTE FOR MOLECULAR SCIENCE).
     S,P,D,F,G SHELL TO TOTAL QUARTET ANGULAR MOMENTUM SUM 5,
        ERIC PROGRAM BY GRAHAM FLETCHER (ELORET AND NASA ADVANCED
        SUPERCOMPUTING DIVISION, AMES RESEARCH CENTER).
     S,P,D,F,G,L SHELL GENERAL RYS QUADRATURE PROGRAMMED BY
        MICHEL DUPUIS (PACIFIC NORTHWEST NATIONAL LABORATORY).

          --------------------
          2 ELECTRON INTEGRALS
          --------------------

 THE -PK- OPTION IS OFF, THE INTEGRALS ARE NOT IN SUPERMATRIX FORM.
 STORING   15000 INTEGRALS/RECORD ON DISK, USING 12 BYTES/INTEGRAL.
 TWO ELECTRON INTEGRAL EVALUATION REQUIRES   90606 WORDS OF MEMORY.
 SCHWARZ INEQUALITY OVERHEAD:      1430 INTEGRALS, T=        0.00
 II,JST,KST,LST =  1  1  1  1 NREC =         1 INTLOC =    1
 II,JST,KST,LST =  2  1  1  1 NREC =         1 INTLOC =    2
 II,JST,KST,LST =  3  1  1  1 NREC =         1 INTLOC =   34
 II,JST,KST,LST =  4  1  1  1 NREC =         1 INTLOC =  214
 II,JST,KST,LST =  5  1  1  1 NREC =         1 INTLOC = 1189
 II,JST,KST,LST =  6  1  1  1 NREC =         1 INTLOC = 3195
 II,JST,KST,LST =  7  1  1  1 NREC =         2 INTLOC =  920
 II,JST,KST,LST =  8  1  1  1 NREC =         3 INTLOC = 8146
 II,JST,KST,LST =  9  1  1  1 NREC =         7 INTLOC = 6015
 II,JST,KST,LST = 10  1  1  1 NREC =         8 INTLOC = 3221
 II,JST,KST,LST = 11  1  1  1 NREC =        13 INTLOC =  530
 II,JST,KST,LST = 12  1  1  1 NREC =        19 INTLOC =14271
 II,JST,KST,LST = 13  1  1  1 NREC =        34 INTLOC = 9735
 II,JST,KST,LST = 14  1  1  1 NREC =        37 INTLOC =12617
 II,JST,KST,LST = 15  1  1  1 NREC =        41 INTLOC = 4146
 II,JST,KST,LST = 16  1  1  1 NREC =        44 INTLOC =10349
 II,JST,KST,LST = 17  1  1  1 NREC =        48 INTLOC = 8554
 II,JST,KST,LST = 18  1  1  1 NREC =        52 INTLOC = 7615
 II,JST,KST,LST = 19  1  1  1 NREC =        56 INTLOC =13297
 II,JST,KST,LST = 20  1  1  1 NREC =        61 INTLOC = 4722
 SCHWARZ INEQUALITY TEST SKIPPED         974 INTEGRAL BLOCKS.
 TOTAL NUMBER OF NONZERO TWO-ELECTRON INTEGRALS =              978393
         66 INTEGRAL RECORDS WERE STORED ON DISK FILE  8.
  ...... END OF TWO-ELECTRON INTEGRALS .....
 STEP CPU TIME =     0.11 TOTAL CPU TIME =          0.1 (      0.0 MIN)
 TOTAL WALL CLOCK TIME=          0.1 SECONDS, CPU UTILIZATION IS    92.31%

          --------------------------
             R-B3LYP SCF CALCULATION
          --------------------------

     NUCLEAR ENERGY =        69.7662329560
     MAXIT =   30     NPUNCH=    2
     EXTRAP=T  DAMP=F  SHIFT=F  RSTRCT=F  DIIS=T  DEM=F  SOSCF=F
         DENSITY MATRIX CONVERGENCE THRESHOLD=  1.00E-05
     COARSE -> FINE DFT GRID SWITCH THRESHOLD=  3.00E-04 (SWITCH IN $DFT)
                   HF -> DFT SWITCH THRESHOLD=  5.00E-03 (SWOFF IN $DFT)
     MEMORY REQUIRED FOR RHF ITERS=    307426 WORDS.

 DFT CODE IS SWITCHING FROM THE FINE GRID NRAD= 96,  NLEB=  302
                      TO THE COARSE GRID NRAD0= 24, NLEB0=  110

     EXCHANGE FUNCTIONAL   =B88&HFX   
     CORRELATION FUNCTIONAL=LYP88&VWN5
     DFT THRESHOLD         =.197E-07
     GRID CHANGE THRESHOLD =.300E-03
 FOR AN EULER-MACLAURIN QUADRATURE USING  96 RADIAL POINTS:
 SMALLEST GAUSSIAN PRIMITIVE EXPONENT=        0.1612777588 OF TYPE -S-
 ON ATOM NUMBER   4 HAS RADIAL NORMALIZATION=  1.000000
  LARGEST GAUSSIAN PRIMITIVE EXPONENT=     5484.6716600000 OF TYPE -S-
 ON ATOM NUMBER   3 HAS RADIAL NORMALIZATION=  1.000000
 DFT IS SWITCHED OFF, PERFORMING PURE SCF UNTIL SWOFF THRESHOLD IS REACHED.

 ITER EX DEM     TOTAL ENERGY        E CHANGE  DENSITY CHANGE    DIIS ERROR
   1  0  0     -152.1014188862  -152.1014188862   0.285289361   0.513052284
          * * *   INITIATING DIIS PROCEDURE   * * *
   2  1  0     -152.6287734335    -0.5273545472   0.143602626   0.107033289
   3  2  0     -152.6622913939    -0.0335179605   0.074805693   0.092903062
   4  3  0     -152.6861467718    -0.0238553779   0.029317428   0.008811349
   5  4  0     -152.6871279696    -0.0009811978   0.009483679   0.002586571
   6  5  0     -152.6872360923    -0.0001081227   0.006179455   0.001488438
   7  6  0     -152.6872572449    -0.0000211526   0.002505103   0.000476333
 CONVERGED TO SWOFF, SO DFT CALCULATION IS NOW SWITCHED ON.
          * * *   INITIATING DIIS PROCEDURE   * * *
   8  7  0     -153.5102179860    -0.8229607411   0.116610715   0.050342372
   9  8  0     -153.5214004086    -0.0111824226   0.061582486   0.027858624
  10  9  0     -153.5184743758     0.0029260328   0.045031580   0.037959584
  11 10  0     -153.5246625106    -0.0061881348   0.009007120   0.007262055
  12 11  0     -153.5248222857    -0.0001597752   0.004280194   0.001066332
  13 12  0     -153.5248279149    -0.0000056291   0.000532034   0.000165553
  14 13  0     -153.5248280285    -0.0000001136   0.000090723   0.000063389
 DFT CODE IS SWITCHING BACK TO THE FINE GRID
          * * *   INITIATING DIIS PROCEDURE   * * *
  15 14  0     -153.5242190222     0.0006090063   0.002521341   0.001758957
  16 15  0     -153.5242275884    -0.0000085662   0.000748651   0.000247673
  17 16  0     -153.5242271997     0.0000003887   0.000467066   0.000418280
  18 17  0     -153.5242278817    -0.0000006821   0.000065180   0.000056882
  19 18  0     -153.5242278913    -0.0000000095   0.000032029   0.000012191
  20 19  0     -153.5242278918    -0.0000000006   0.000017566   0.000004742
  21 20  0     -153.5242278920    -0.0000000002   0.000003073   0.000000832

          -----------------
          DENSITY CONVERGED
          -----------------
     TIME TO FORM FOCK OPERATORS=       4.9 SECONDS (       0.2 SEC/ITER)
     TIME TO SOLVE SCF EQUATIONS=       0.0 SECONDS (       0.0 SEC/ITER)

 FINAL R-B3LYP ENERGY IS     -153.5242278920 AFTER  21 ITERATIONS
 DFT EXCHANGE + CORRELATION ENERGY =       -16.8370255191
 TOTAL ELECTRON NUMBER             =        24.0000850295

          ------------
          EIGENVECTORS
          ------------

                      1          2          3          4          5
                  -19.1518   -10.2805   -10.1927    -1.0475    -0.8706
                     A          A          A          A          A   
    1  C  1  S   -0.000030   0.000799   0.995240  -0.019364  -0.152770
    2  C  1  S   -0.000638  -0.001316   0.036823   0.038167   0.296692
    3  C  1  X   -0.000280  -0.000923  -0.000904   0.020707  -0.098157
    4  C  1  Y    0.000055   0.000358  -0.003219  -0.013232  -0.138444
    5  C  1  Z   -0.000006  -0.000027  -0.000271  -0.002372  -0.057373
    6  C  1  S    0.001302   0.006698  -0.031228   0.015431   0.208950
    7  C  1  X   -0.001208   0.002297   0.001258   0.003940  -0.017440
    8  C  1  Y   -0.001597  -0.002499   0.007694   0.003904  -0.034296
    9  C  1  Z    0.000090   0.000183  -0.000555  -0.000431  -0.004972
   10  C  1 XX   -0.000374  -0.000873   0.000209   0.004764   0.003720
   11  C  1 YY    0.000393   0.000236  -0.000152  -0.002451  -0.002043
   12  C  1 ZZ   -0.000019   0.000637  -0.000056  -0.002313  -0.001677
   13  C  1 XY   -0.000069   0.000890   0.000057  -0.002044   0.018764
   14  C  1 XZ    0.000025   0.000007   0.000111   0.000298   0.009199
   15  C  1 YZ    0.000008   0.000033   0.000068   0.000637   0.010771
   16  C  2  S    0.000237   0.995155  -0.000800  -0.117612  -0.034982
   17  C  2  S    0.000091   0.035765  -0.001484   0.224919   0.065386
   18  C  2  X   -0.000065   0.001739   0.000519   0.159273  -0.108076
   19  C  2  Y   -0.000235   0.001236  -0.000336   0.092417  -0.005544
   20  C  2  Z    0.000008  -0.000046   0.000009  -0.005150  -0.003522
   21  C  2  S    0.008643  -0.016303   0.007351   0.084592   0.045329
   22  C  2  X    0.005700   0.006284  -0.005567  -0.017048  -0.024489
   23  C  2  Y    0.004868   0.002481  -0.000276  -0.019755  -0.010476
   24  C  2  Z   -0.000248  -0.000205   0.000155   0.000565  -0.003735
   25  C  2 XX   -0.000606   0.001434  -0.000864   0.018502   0.005064
   26  C  2 YY    0.000319  -0.000249   0.000354  -0.003192  -0.001462
   27  C  2 ZZ    0.000287  -0.001184   0.000509  -0.015310  -0.003602
   28  C  2 XY   -0.000746   0.001197   0.000861   0.021535  -0.008836
   29  C  2 XZ    0.000040  -0.000075  -0.000036  -0.001135   0.001587
   30  C  2 YZ    0.000008  -0.000049  -0.000002  -0.000522  -0.000130
   31  O  3  S    0.995117  -0.000046  -0.000030  -0.194441   0.032008
   32  O  3  S    0.029448   0.000480  -0.000646   0.429794  -0.074110
   33  O  3  X   -0.002019   0.000994   0.000104  -0.143226   0.007078
   34  O  3  Y   -0.001118   0.000480  -0.000012  -0.079983   0.012511
   35  O  3  Z    0.000086  -0.000033   0.000007   0.005115  -0.001888
   36  O  3  S   -0.019509  -0.006081   0.002368   0.376912  -0.058247
   37  O  3  X    0.005209   0.003817  -0.000375  -0.042848  -0.002643
   38  O  3  Y    0.002573   0.002593  -0.000660  -0.023373   0.001160
   39  O  3  Z   -0.000174  -0.000144   0.000006   0.001816   0.000937
   40  O  3 XX   -0.000188  -0.001224  -0.000051   0.006810   0.001030
   41  O  3 YY    0.000106   0.000111   0.000230  -0.003919  -0.000751
   42  O  3 ZZ    0.000082   0.001113  -0.000179  -0.002891  -0.000279
   43  O  3 XY   -0.000103  -0.001442   0.000118   0.009726  -0.000845
   44  O  3 XZ    0.000010   0.000093  -0.000008  -0.000810   0.000138
   45  O  3 YZ    0.000000   0.000063  -0.000019   0.000008   0.000082
   46  H  4  S   -0.000208  -0.000931  -0.000651   0.027956   0.020860
   47  H  4  S    0.001186   0.005114  -0.000339  -0.012772  -0.002320
   48  H  5  S   -0.000376  -0.000432  -0.000156   0.012962   0.257180
   49  H  5  S    0.000174  -0.000748   0.004667   0.000788   0.071174
   50  H  6  S   -0.000000  -0.000470  -0.000496   0.011892   0.233673
   51  H  6  S   -0.000709   0.001061   0.003890   0.000540   0.029020
   52  H  7  S   -0.000111  -0.000612  -0.000297   0.007299   0.102873
   53  H  7  S   -0.000702   0.000516   0.006313  -0.000259   0.006023

                      6          7          8          9         10
                   -0.6264    -0.5133    -0.4708    -0.4346    -0.3770
                     A          A          A          A          A   
    1  C  1  S   -0.027952  -0.081441  -0.009336  -0.006740   0.018998
    2  C  1  S    0.045071   0.157890   0.009017   0.003476  -0.034156
    3  C  1  X    0.228601   0.127456  -0.178388   0.135178   0.055190
    4  C  1  Y   -0.028909   0.018504  -0.019636  -0.054221  -0.020956
    5  C  1  Z    0.084572   0.188619   0.304966  -0.089412  -0.113562
    6  C  1  S    0.082057   0.232942   0.056263   0.053557  -0.077343
    7  C  1  X    0.051360   0.019677  -0.072858   0.066633   0.038505
    8  C  1  Y   -0.020873  -0.010216  -0.027112  -0.040596   0.000322
    9  C  1  Z    0.012645   0.044761   0.086031  -0.030487  -0.026221
   10  C  1 XX    0.000440   0.004954  -0.002750  -0.006569  -0.000518
   11  C  1 YY    0.003711  -0.008347   0.001252   0.009282   0.003381
   12  C  1 ZZ   -0.004151   0.003393   0.001498  -0.002713  -0.002863
   13  C  1 XY   -0.024444  -0.005256   0.012851  -0.013197  -0.003960
   14  C  1 XZ   -0.008641  -0.012643  -0.015141   0.002665   0.017779
   15  C  1 YZ   -0.008103  -0.015717  -0.024669   0.007568   0.007583
   16  C  2  S   -0.149266   0.033306   0.028516   0.023554  -0.006655
   17  C  2  S    0.311228  -0.067467  -0.065108  -0.066725   0.013580
   18  C  2  X   -0.176102  -0.161032   0.053647  -0.323207  -0.043741
   19  C  2  Y   -0.095007   0.319944  -0.231067  -0.147687   0.022209
   20  C  2  Z    0.019975   0.052456   0.140985  -0.058894   0.326051
   21  C  2  S    0.266511  -0.076659  -0.050843  -0.011886   0.016784
   22  C  2  X   -0.072184  -0.026542   0.051652  -0.059390  -0.022268
   23  C  2  Y   -0.059970   0.115683  -0.050196  -0.035515   0.003769
   24  C  2  Z    0.008761   0.031319   0.076927  -0.038648   0.189881
   25  C  2 XX   -0.008131   0.005023   0.000828  -0.009100  -0.002593
   26  C  2 YY    0.012908  -0.007719   0.000632   0.006687   0.003338
   27  C  2 ZZ   -0.004776   0.002696  -0.001461   0.002413  -0.000745
   28  C  2 XY   -0.010898  -0.003318  -0.000865  -0.011504   0.001098
   29  C  2 XZ   -0.001031  -0.003427  -0.003874   0.000335   0.026994
   30  C  2 YZ    0.000570   0.003050   0.005145  -0.002583   0.011783
   31  O  3  S    0.080427  -0.018638  -0.031748  -0.078132  -0.002702
   32  O  3  S   -0.191870   0.043976   0.074527   0.169687   0.003377
   33  O  3  X   -0.081744  -0.044606   0.206140   0.419320   0.013491
   34  O  3  Y   -0.042456   0.199608  -0.066123   0.256824   0.073323
   35  O  3  Z    0.008437   0.032326   0.102456  -0.078972   0.490551
   36  O  3  S   -0.201881   0.054898   0.103942   0.338689   0.025709
   37  O  3  X   -0.054767  -0.022538   0.113809   0.213356   0.002014
   38  O  3  Y   -0.024342   0.103754  -0.036483   0.133111   0.042341
   39  O  3  Z    0.004033   0.014026   0.051617  -0.042660   0.307452
   40  O  3 XX    0.005706   0.010205  -0.014200  -0.012391   0.000789
   41  O  3 YY   -0.000224  -0.012015   0.009499   0.001085  -0.003045
   42  O  3 ZZ   -0.005481   0.001810   0.004701   0.011305   0.002256
   43  O  3 XY    0.005894  -0.011080   0.000679  -0.015575  -0.003138
   44  O  3 XZ   -0.000861  -0.002707  -0.006747   0.005025  -0.027132
   45  O  3 YZ   -0.000591  -0.000588  -0.003850   0.002939  -0.015605
   46  H  4  S    0.158615  -0.187350   0.095572   0.062599   0.004152
   47  H  4  S    0.058203  -0.122771   0.090807   0.065129  -0.000051
   48  H  5  S   -0.151680  -0.101057  -0.003904  -0.037286   0.037055
   49  H  5  S   -0.087166  -0.088089   0.051830  -0.038114   0.026148
   50  H  6  S   -0.151506  -0.139099  -0.136795   0.003630   0.086264
   51  H  6  S   -0.060707  -0.093645  -0.164816   0.022756   0.095849
   52  H  7  S    0.001873   0.130217   0.232040  -0.086267  -0.119535
   53  H  7  S    0.008015   0.098436   0.186880  -0.076392  -0.126326

                     11         12         13         14         15
                   -0.2698    -0.2313    -0.0327     0.0517     0.1096
                     A          A          A          A          A   
    1  C  1  S    0.087577  -0.054626   0.008436  -0.109082  -0.067725
    2  C  1  S   -0.173274   0.123659  -0.004465   0.102647   0.094816
    3  C  1  X   -0.135239  -0.127505   0.052959  -0.279895   0.053817
    4  C  1  Y   -0.166277   0.438376   0.064287  -0.214097   0.094706
    5  C  1  Z    0.082159  -0.070865   0.039281  -0.147078   0.100870
    6  C  1  S   -0.441540   0.086037  -0.127814   1.953528   0.903965
    7  C  1  X   -0.018467  -0.177591   0.053495  -0.603985  -0.011048
    8  C  1  Y   -0.050795   0.363013   0.097217  -0.644595   0.055936
    9  C  1  Z    0.036292  -0.038612   0.128162  -0.259528   0.196324
   10  C  1 XX   -0.001227   0.008232   0.003108   0.002016   0.019516
   11  C  1 YY    0.015492  -0.030959  -0.003024   0.002380   0.009969
   12  C  1 ZZ   -0.014265   0.022727  -0.000084  -0.004396  -0.029485
   13  C  1 XY    0.012450  -0.001282  -0.003410   0.023963   0.018459
   14  C  1 XZ   -0.003210   0.003088   0.029943   0.013745  -0.000105
   15  C  1 YZ   -0.004757   0.000248  -0.010068   0.010754   0.001337
   16  C  2  S   -0.009223   0.009861  -0.003369   0.000654   0.056806
   17  C  2  S    0.016800  -0.042850   0.008335   0.033274  -0.044196
   18  C  2  X    0.010426   0.095706  -0.004968   0.038146   0.010534
   19  C  2  Y   -0.044001  -0.137004   0.025864  -0.114153   0.160198
   20  C  2  Z    0.002459  -0.004609   0.490934   0.079694  -0.061825
   21  C  2  S   -0.019567   0.142263   0.045883  -0.152538  -0.935328
   22  C  2  X   -0.105722   0.018072   0.012832   0.183953   0.100754
   23  C  2  Y   -0.010109   0.094498   0.044305  -0.139557   0.396213
   24  C  2  Z    0.004747  -0.009675   0.526291   0.138585  -0.111623
   25  C  2 XX   -0.027431  -0.027434  -0.002894   0.006251   0.002047
   26  C  2 YY    0.027027   0.031282   0.001386  -0.000939   0.011824
   27  C  2 ZZ    0.000405  -0.003848   0.001508  -0.005312  -0.013871
   28  C  2 XY    0.027939  -0.000084  -0.004728   0.008180  -0.009053
   29  C  2 XZ   -0.005332   0.003985  -0.027728   0.000681  -0.002502
   30  C  2 YZ   -0.001360  -0.001664  -0.014873  -0.007094   0.005665
   31  O  3  S   -0.003563   0.006836   0.003047  -0.009433  -0.003074
   32  O  3  S    0.001544  -0.008849  -0.006837   0.030161   0.001419
   33  O  3  X   -0.284308  -0.069756   0.017814  -0.078679   0.003895
   34  O  3  Y    0.460986   0.243063  -0.024043   0.061949  -0.069381
   35  O  3  Z   -0.057479   0.024536  -0.431518  -0.048174   0.028505
   36  O  3  S    0.076805  -0.103217  -0.031749   0.030901   0.040815
   37  O  3  X   -0.215538  -0.020150   0.021223  -0.101982  -0.007151
   38  O  3  Y    0.309553   0.184998  -0.021573   0.080064  -0.111942
   39  O  3  Z   -0.041296   0.018737  -0.442730  -0.067418   0.047313
   40  O  3 XX    0.015945   0.000357  -0.000728   0.002723   0.003693
   41  O  3 YY   -0.015937  -0.001082   0.000742  -0.001679   0.002633
   42  O  3 ZZ   -0.000008   0.000725  -0.000014  -0.001045  -0.006326
   43  O  3 XY   -0.007946  -0.006087  -0.000724   0.002820  -0.002405
   44  O  3 XZ    0.001542  -0.000758  -0.000078   0.000264  -0.000115
   45  O  3 YZ    0.002078  -0.000541   0.000620  -0.001352   0.001420
   46  H  4  S    0.108826   0.158242   0.006399   0.022559   0.072375
   47  H  4  S    0.161208   0.282933   0.021219  -0.219117   0.966838
   48  H  5  S    0.116891  -0.120006   0.055849  -0.025679   0.177894
   49  H  5  S    0.338436  -0.319852   0.090547  -1.157262   1.567703
   50  H  6  S   -0.013570   0.048851   0.099292  -0.011661  -0.135975
   51  H  6  S   -0.144898   0.252994   0.266633  -0.818230  -1.507144
   52  H  7  S    0.036957   0.010623  -0.106710  -0.022456  -0.137576
   53  H  7  S    0.047418   0.078740  -0.230267  -0.666997  -1.128035

                     16         17         18         19         20
                    0.1356     0.1589     0.2612     0.2794     0.4927
                     A          A          A          A          A   
    1  C  1  S    0.008934  -0.035762  -0.026871   0.075412  -0.044696
    2  C  1  S    0.001899   0.000307  -0.044255  -0.091932   0.105686
    3  C  1  X   -0.102581   0.024583   0.107497  -0.235355   0.063960
    4  C  1  Y    0.097418  -0.138619  -0.058458  -0.054439  -0.061016
    5  C  1  Z    0.311882   0.326380  -0.018943   0.017680   0.208464
    6  C  1  S   -0.109353   0.826976   1.317520  -0.788491   0.412523
    7  C  1  X   -0.367905   0.226585   0.963100  -1.551686  -0.221741
    8  C  1  Y    0.340910  -0.588254  -0.616427  -0.073290  -0.256939
    9  C  1  Z    0.834642   0.999232  -0.035942   0.075393  -0.634318
   10  C  1 XX    0.016451  -0.018978   0.000461   0.053680  -0.012318
   11  C  1 YY   -0.002807  -0.001950  -0.008014  -0.031158   0.010529
   12  C  1 ZZ   -0.013644   0.020928   0.007553  -0.022522   0.001790
   13  C  1 XY   -0.003652   0.000010   0.026495   0.000631  -0.023669
   14  C  1 XZ   -0.002792  -0.002741   0.002984   0.003263  -0.063958
   15  C  1 YZ   -0.009234  -0.009049   0.009218  -0.002894  -0.061256
   16  C  2  S   -0.092235   0.070728  -0.003500  -0.082257   0.010630
   17  C  2  S    0.151562  -0.109836  -0.025498   0.123035  -0.068093
   18  C  2  X   -0.067481   0.082319   0.266005  -0.264441   0.061704
   19  C  2  Y   -0.222172   0.099865  -0.088700   0.436807   0.015824
   20  C  2  Z   -0.073313  -0.048312  -0.032957  -0.019991   0.663620
   21  C  2  S    1.446639  -1.187894   0.353830   1.879038   0.296065
   22  C  2  X   -0.151919   0.355812   2.255767   0.229417   0.551282
   23  C  2  Y   -0.447007   0.200026   0.075461   1.662500   0.037611
   24  C  2  Z   -0.245866  -0.286972  -0.032164  -0.073610  -0.473900
   25  C  2 XX   -0.004470   0.003396  -0.011310   0.000318   0.034411
   26  C  2 YY    0.003951  -0.003467   0.004582  -0.014188  -0.025073
   27  C  2 ZZ    0.000519   0.000071   0.006728   0.013870  -0.009338
   28  C  2 XY    0.000280   0.002756  -0.017684   0.010705   0.002500
   29  C  2 XZ   -0.007106  -0.008882  -0.000122  -0.000919   0.019735
   30  C  2 YZ    0.014888   0.013593   0.000996   0.001848  -0.011959
   31  O  3  S    0.010964  -0.008236   0.082684   0.060905   0.015175
   32  O  3  S   -0.022798   0.028494  -0.124421  -0.070535  -0.015398
   33  O  3  X    0.045452  -0.061438   0.074100   0.153399  -0.066265
   34  O  3  Y    0.071937  -0.012533   0.154872  -0.024759   0.068209
   35  O  3  Z    0.040556   0.033307   0.000830   0.003232   0.007396
   36  O  3  S   -0.122196   0.016337  -1.644213  -1.307445  -0.440581
   37  O  3  X    0.058196  -0.065686   0.479415   0.677119   0.141406
   38  O  3  Y    0.140730  -0.025241   0.548035   0.015551   0.139262
   39  O  3  Z    0.086592   0.085681  -0.020341  -0.006499   0.003008
   40  O  3 XX   -0.004207   0.002531  -0.023040  -0.011966  -0.019585
   41  O  3 YY   -0.000085  -0.000185   0.008102  -0.010305   0.005872
   42  O  3 ZZ    0.004292  -0.002346   0.014937   0.022271   0.013713
   43  O  3 XY    0.000759  -0.000910  -0.029105  -0.025108  -0.009335
   44  O  3 XZ   -0.002223  -0.003966   0.003258   0.001787  -0.034698
   45  O  3 YZ    0.003804   0.002916   0.001849   0.002099  -0.030856
   46  H  4  S   -0.043150   0.037828  -0.017952  -0.052745  -0.112735
   47  H  4  S   -1.310378   0.833945  -0.312705   1.049833  -0.004296
   48  H  5  S    0.093710  -0.064966   0.164487   0.024575  -0.382499
   49  H  5  S    0.462402  -1.633682   0.124959  -0.801384   0.558885
   50  H  6  S   -0.017157   0.126994   0.075050  -0.006649  -0.480054
   51  H  6  S    0.348175   2.017550  -0.258769   0.212345  -0.228141
   52  H  7  S   -0.074271   0.057315   0.030998  -0.019207   0.241934
   53  H  7  S   -1.231428  -0.884520   0.154786  -0.208227  -0.293382

                     21         22         23         24         25
                    0.5406     0.5715     0.6031     0.6580     0.6827
                     A          A          A          A          A   
    1  C  1  S    0.010640  -0.041338   0.007619  -0.032248  -0.031012
    2  C  1  S   -0.230494   0.088365  -0.257175   0.027727   0.266287
    3  C  1  X   -0.693842  -0.086341  -0.530113  -0.197324   0.213689
    4  C  1  Y    0.644903   0.368017  -0.675933   0.052077  -0.081448
    5  C  1  Z   -0.001977   0.208092   0.093763  -0.528129  -0.334867
    6  C  1  S    0.138471   0.538304  -0.648810   0.503484  -0.852024
    7  C  1  X    0.979516   0.008695   0.458388   0.321536  -0.891907
    8  C  1  Y   -0.566349  -0.703065   0.982052  -0.121012   0.188744
    9  C  1  Z    0.052934  -0.798410  -0.341978   1.202982   0.751757
   10  C  1 XX   -0.000965  -0.006093  -0.068117  -0.044649  -0.039029
   11  C  1 YY   -0.024133  -0.010106   0.078547   0.058907   0.009583
   12  C  1 ZZ    0.025097   0.016199  -0.010430  -0.014258   0.029446
   13  C  1 XY    0.031810  -0.033838   0.039120  -0.077828   0.015890
   14  C  1 XZ    0.006490  -0.056206  -0.026608   0.032047   0.009013
   15  C  1 YZ    0.002553  -0.046146  -0.016846   0.034374   0.018606
   16  C  2  S   -0.049898  -0.006683  -0.005208   0.020349  -0.049296
   17  C  2  S   -0.067571  -0.046136  -0.485039  -0.572996   0.092667
   18  C  2  X    0.115185   0.004348   0.253451  -0.351436   0.933207
   19  C  2  Y    0.106567   0.048115  -0.195164   0.044881   0.294126
   20  C  2  Z    0.272596  -0.715846  -0.164246   0.074079  -0.011526
   21  C  2  S   -0.390597   0.040826   0.764674   0.574583   1.195134
   22  C  2  X   -0.411349   0.486552  -0.735730   0.729579  -1.142347
   23  C  2  Y   -0.130294  -0.063230   0.251113  -0.801305   0.059698
   24  C  2  Z   -0.353504   1.189278   0.336307  -0.377076  -0.174586
   25  C  2 XX   -0.109451  -0.001726   0.013502   0.076715  -0.029975
   26  C  2 YY    0.010815  -0.026113  -0.054485  -0.103912  -0.035197
   27  C  2 ZZ    0.098636   0.027839   0.040983   0.027198   0.065172
   28  C  2 XY    0.038156   0.015618   0.042468   0.088281  -0.101624
   29  C  2 XZ    0.001739   0.010616   0.007490  -0.005373   0.006040
   30  C  2 YZ    0.011505  -0.039583  -0.012049   0.028824   0.018112
   31  O  3  S    0.009988   0.011358   0.014906  -0.007920   0.044436
   32  O  3  S   -0.099809  -0.022252  -0.119680   0.032868  -0.168009
   33  O  3  X    0.167689  -0.051773   0.076640  -0.286314   0.218394
   34  O  3  Y   -0.068644   0.079446  -0.166895   0.084400   0.207119
   35  O  3  Z    0.021881  -0.083676  -0.028623  -0.011339  -0.027748
   36  O  3  S    0.338838  -0.265860   0.133293  -0.226202   0.027656
   37  O  3  X   -0.028783   0.098371   0.065875  -0.020848   0.411754
   38  O  3  Y   -0.087048   0.076938   0.008937   0.089747   0.126324
   39  O  3  Z    0.043836  -0.153742  -0.040787   0.086242   0.042071
   40  O  3 XX    0.033027  -0.005803  -0.018265  -0.059635   0.053503
   41  O  3 YY   -0.023685  -0.001209   0.007553   0.007680  -0.003928
   42  O  3 ZZ   -0.009342   0.007012   0.010712   0.051955  -0.049575
   43  O  3 XY    0.017143   0.004017  -0.014754  -0.056415   0.113238
   44  O  3 XZ   -0.018831   0.050717   0.013263  -0.012169  -0.013631
   45  O  3 YZ   -0.007665   0.010691   0.000339   0.016145   0.005364
   46  H  4  S   -0.096449  -0.184883  -0.155883  -0.530312  -0.212243
   47  H  4  S   -0.056100  -0.034957   0.140127  -0.267982   0.057866
   48  H  5  S    0.077463  -0.333433  -0.045291  -0.209632  -0.150432
   49  H  5  S    0.026950   0.258800   0.602494   0.081116  -0.166246
   50  H  6  S    0.108151  -0.251511  -0.331842  -0.140889  -0.102402
   51  H  6  S   -0.107379  -0.146895   0.016525   0.658967   0.388784
   52  H  7  S    0.101903   0.150772  -0.080708  -0.347657  -0.151866
   53  H  7  S    0.038704  -0.263299   0.154210  -0.313301  -0.448078

                     26         27         28         29         30
                    0.7503     0.7605     0.8548     0.8864     0.9233
                     A          A          A          A          A   
    1  C  1  S   -0.001110  -0.009887  -0.013170   0.030621   0.021523
    2  C  1  S    0.453130   0.148304   0.077507  -1.272036  -0.643144
    3  C  1  X   -0.364154   0.285118   0.077293   0.419291  -0.013811
    4  C  1  Y   -0.223121   0.239920   0.111533   0.079655  -0.067499
    5  C  1  Z   -0.719459  -0.281596  -0.000019  -0.317619   0.023564
    6  C  1  S   -0.546438  -0.995468  -0.523177   2.315311   1.517011
    7  C  1  X    0.996046  -1.774034  -0.592639  -0.725653   0.640802
    8  C  1  Y    0.271106  -0.671008  -0.054001  -0.152727   0.134194
    9  C  1  Z    1.166613   0.622516   0.020148   0.466373  -0.091129
   10  C  1 XX    0.045838  -0.040601  -0.028294  -0.054812  -0.070341
   11  C  1 YY   -0.066250  -0.015940   0.012982  -0.022393   0.013552
   12  C  1 ZZ    0.020412   0.056541   0.015312   0.077205   0.056789
   13  C  1 XY   -0.020865   0.018396   0.042034   0.048492  -0.073604
   14  C  1 XZ   -0.080949  -0.009025   0.002785  -0.088523   0.001161
   15  C  1 YZ   -0.013393   0.001151   0.002320  -0.017179   0.000861
   16  C  2  S    0.008184   0.011123   0.051424  -0.016122   0.016881
   17  C  2  S    0.510490  -0.181961  -0.990378  -0.705952   0.949536
   18  C  2  X   -0.175653   0.164163   0.188326   0.001339   0.033649
   19  C  2  Y    0.123827  -0.856471   0.463672   0.114291   0.073313
   20  C  2  Z   -0.043771   0.028404  -0.020735  -0.014557   0.000716
   21  C  2  S   -1.121044   1.123567   2.999106   0.717920  -1.212117
   22  C  2  X    0.463208  -0.565827  -0.145863  -0.220150   0.511854
   23  C  2  Y   -0.230044   3.040120  -0.300753  -0.549778  -0.429460
   24  C  2  Z   -0.099893  -0.211202   0.010328  -0.017491   0.015947
   25  C  2 XX   -0.027166   0.077458   0.017329  -0.082444   0.098945
   26  C  2 YY    0.082447  -0.045040   0.087425   0.007931  -0.047684
   27  C  2 ZZ   -0.055281  -0.032419  -0.104754   0.074513  -0.051261
   28  C  2 XY   -0.025237   0.052266   0.110905  -0.003021   0.131276
   29  C  2 XZ    0.038729   0.000378  -0.007798   0.035554  -0.004717
   30  C  2 YZ   -0.014112   0.005100  -0.008257  -0.016941  -0.002625
   31  O  3  S   -0.001137   0.015826   0.028278  -0.018980   0.047187
   32  O  3  S    0.005698  -0.007039  -0.088322   0.046681  -0.278780
   33  O  3  X    0.094829  -0.142028  -0.347901   0.154638  -0.509775
   34  O  3  Y   -0.069409  -0.285032  -0.309815   0.096995  -0.187030
   35  O  3  Z   -0.113976  -0.012093   0.017837  -0.142094   0.012392
   36  O  3  S    0.086901  -0.850041  -0.640298   0.229816   0.055989
   37  O  3  X   -0.115817   0.510362   0.782121  -0.408734   0.896143
   38  O  3  Y    0.028665  -0.043363   0.471886  -0.175104   0.515483
   39  O  3  Z    0.107340   0.036550  -0.028223   0.154127  -0.031534
   40  O  3 XX    0.040565  -0.112316  -0.013186   0.008207   0.022178
   41  O  3 YY   -0.012751   0.044137  -0.045383  -0.018295   0.014317
   42  O  3 ZZ   -0.027813   0.068179   0.058569   0.010088  -0.036495
   43  O  3 XY   -0.012451  -0.014221  -0.072805  -0.010038  -0.000527
   44  O  3 XZ   -0.013917  -0.002887   0.003842  -0.005711  -0.000772
   45  O  3 YZ    0.008870   0.008205   0.005823   0.001139  -0.003717
   46  H  4  S    0.453588  -0.071907   0.724192  -0.055743  -0.279343
   47  H  4  S   -0.279655   1.714574  -1.536815  -0.512004   0.271082
   48  H  5  S   -0.384746  -0.142719   0.037022   0.080903  -0.154944
   49  H  5  S    1.044507  -0.588954  -0.204944  -0.087813   0.749330
   50  H  6  S   -0.196583   0.004500  -0.111135   0.117765   0.380081
   51  H  6  S    0.895963   0.246355   0.046492  -0.628615  -0.855987
   52  H  7  S    0.467663   0.092031  -0.121387   0.698847   0.304867
   53  H  7  S   -0.753268  -0.773450  -0.032771  -1.684054  -0.413999

                     31         32         33         34         35
                    0.9837     1.0150     1.0863     1.3133     1.4280
                     A          A          A          A          A   
    1  C  1  S   -0.003250   0.011071  -0.000716  -0.103993  -0.039568
    2  C  1  S   -0.003690   0.416351   0.054983  -1.598529  -0.534674
    3  C  1  X    0.010431  -0.073261  -0.105601  -0.013206  -0.013084
    4  C  1  Y    0.092188  -0.205204  -0.116288   0.145878   0.064588
    5  C  1  Z    0.030626   0.308069   0.048607  -0.053132   0.117545
    6  C  1  S    0.092277  -1.115033  -1.165704   5.142286   1.758331
    7  C  1  X    0.085369  -0.094696  -0.491801   0.071536  -0.037528
    8  C  1  Y   -0.193246   0.619163   0.218769  -1.953285  -0.722368
    9  C  1  Z    0.040600  -0.444789  -0.065742   0.213987   0.184179
   10  C  1 XX    0.033870  -0.067870  -0.045145  -0.034758  -0.065139
   11  C  1 YY    0.053870  -0.115596  -0.033899   0.102846   0.071988
   12  C  1 ZZ   -0.087740   0.183466   0.079044  -0.068088  -0.006849
   13  C  1 XY    0.036600  -0.099210   0.029524  -0.147129  -0.136240
   14  C  1 XZ   -0.030009   0.120779   0.023817   0.182778  -0.260433
   15  C  1 YZ    0.036636   0.041460   0.006685  -0.156229   0.438902
   16  C  2  S    0.006285  -0.013769  -0.007089   0.030715   0.009716
   17  C  2  S    0.240656  -0.479847  -0.140735   0.542154   0.171581
   18  C  2  X   -0.007678   0.015872   0.129919   0.015869   0.014954
   19  C  2  Y   -0.035776   0.090366  -0.277661  -0.078531  -0.037415
   20  C  2  Z    0.100633   0.058316   0.012517   0.010951  -0.051484
   21  C  2  S   -0.467860   1.234721   0.418891  -3.106110  -1.194882
   22  C  2  X    0.101510  -0.334264  -1.043976   1.613007   0.475896
   23  C  2  Y    0.083523  -0.250493   1.731514   0.215559   0.152133
   24  C  2  Z   -0.524971  -0.241939  -0.064061  -0.140704   0.029576
   25  C  2 XX    0.009360   0.009339  -0.129696  -0.020220   0.021240
   26  C  2 YY    0.006219  -0.038983   0.124554   0.153641   0.042141
   27  C  2 ZZ   -0.015580   0.029644   0.005142  -0.133421  -0.063380
   28  C  2 XY    0.011269  -0.033725   0.071271  -0.048186  -0.013191
   29  C  2 XZ   -0.023887  -0.065765  -0.012245  -0.213996   0.534077
   30  C  2 YZ   -0.005632   0.044707   0.003150   0.105272  -0.112711
   31  O  3  S    0.001529  -0.001300   0.001804   0.019697   0.011544
   32  O  3  S    0.007855  -0.016133  -0.041105  -0.336071  -0.246327
   33  O  3  X   -0.098139   0.161186  -0.361924   0.201663   0.093327
   34  O  3  Y   -0.018939  -0.094548   0.718456   0.016978   0.022895
   35  O  3  Z   -0.868873  -0.319595  -0.034670   0.001801  -0.069937
   36  O  3  S   -0.015198   0.005631   0.008316   0.255334   0.306374
   37  O  3  X    0.147337  -0.225664   0.695880  -0.421625  -0.224531
   38  O  3  Y    0.043007   0.121123  -1.387146  -0.002381  -0.071901
   39  O  3  Z    1.167544   0.478081   0.066263   0.089960  -0.097805
   40  O  3 XX    0.006492  -0.026279   0.076005   0.028248  -0.006492
   41  O  3 YY    0.004987   0.000001  -0.094187   0.068027   0.017215
   42  O  3 ZZ   -0.011479   0.026277   0.018182  -0.096275  -0.010724
   43  O  3 XY    0.007821  -0.006402  -0.071382  -0.045809  -0.042896
   44  O  3 XZ    0.024155   0.021300   0.003758   0.030894  -0.167583
   45  O  3 YZ    0.014144   0.018123   0.008756   0.094222  -0.254835
   46  H  4  S   -0.031907   0.014458   0.217036   0.385759   0.167624
   47  H  4  S    0.207652  -0.426446   0.729909   0.272971   0.145002
   48  H  5  S    0.384031  -0.814866  -0.171438  -0.527697  -0.238002
   49  H  5  S   -0.848399   1.922689   0.382818  -0.869400  -0.333108
   50  H  6  S   -0.315259   0.917544   0.129341  -0.267639   0.066886
   51  H  6  S    0.631852  -1.833234  -0.352582  -0.179802  -0.086930
   52  H  7  S   -0.129525  -0.029289  -0.033302  -0.605098  -0.377602
   53  H  7  S    0.375132   0.165834  -0.019712  -0.611492  -0.177440

                     36         37         38         39         40
                    1.5313     1.6306     1.6695     1.7863     1.8118
                     A          A          A          A          A   
    1  C  1  S    0.006316   0.046154   0.009869  -0.007713   0.001655
    2  C  1  S    0.079483   0.583528  -0.270373   0.385606   0.022734
    3  C  1  X    0.006283   0.013119  -0.201699   0.229429  -0.003855
    4  C  1  Y   -0.010982  -0.027677   0.036126  -0.058454   0.010027
    5  C  1  Z    0.036056  -0.003905   0.002837  -0.003630   0.083436
    6  C  1  S   -0.255598  -2.061002  -0.130051  -0.260043  -0.090797
    7  C  1  X    0.007597   0.114053  -0.179117  -0.321335  -0.049615
    8  C  1  Y    0.099880   1.001577   0.046458  -0.005587  -0.006251
    9  C  1  Z   -0.365822  -0.100636   0.029913   0.052778  -0.314373
   10  C  1 XX    0.025625   0.140550   0.464720  -0.206471  -0.054849
   11  C  1 YY   -0.014757   0.030986  -0.413106   0.287622   0.016139
   12  C  1 ZZ   -0.010867  -0.171536  -0.051614  -0.081151   0.038710
   13  C  1 XY    0.051336   0.132898   0.052391   0.169201  -0.066083
   14  C  1 XZ    0.132088  -0.002353  -0.004349   0.007244  -0.322368
   15  C  1 YZ   -0.082399  -0.033487   0.008437  -0.013576   0.418148
   16  C  2  S   -0.000769  -0.027857  -0.004207  -0.023695  -0.002073
   17  C  2  S   -0.021222  -0.282465  -0.468465   0.033187  -0.017460
   18  C  2  X   -0.006125  -0.130675   0.134767   0.018989   0.014895
   19  C  2  Y   -0.000569   0.016964  -0.059952  -0.101556   0.000435
   20  C  2  Z   -0.183628  -0.002820  -0.001829   0.001354   0.089366
   21  C  2  S    0.259480  -0.900156   1.481832   0.760499   0.137766
   22  C  2  X   -0.009375  -2.216281  -0.252919   0.475088   0.013107
   23  C  2  Y   -0.009423  -1.328464   0.150789  -0.257405   0.091224
   24  C  2  Z    0.217069   0.104710  -0.016108  -0.015403   0.198092
   25  C  2 XX   -0.001776  -0.107033   0.137114  -0.222836   0.012044
   26  C  2 YY    0.037040   0.154044   0.214330   0.402318  -0.000573
   27  C  2 ZZ   -0.035264  -0.047011  -0.351444  -0.179481  -0.011471
   28  C  2 XY    0.029966  -0.291370  -0.255952   0.277024  -0.002004
   29  C  2 XZ    0.133872  -0.012554   0.024560   0.002603  -0.133128
   30  C  2 YZ    0.714440   0.028044  -0.036970  -0.035137  -0.068935
   31  O  3  S   -0.003677   0.024492  -0.018410   0.004439   0.000684
   32  O  3  S    0.107331  -1.548732   0.503826   0.136768   0.027863
   33  O  3  X   -0.023462  -0.000433  -0.183665   0.182500   0.012156
   34  O  3  Y   -0.014753   0.040107   0.005811  -0.173789   0.005243
   35  O  3  Z   -0.084509   0.001412  -0.001570   0.000904   0.069762
   36  O  3  S   -0.191581   3.991625  -0.896853  -0.615388  -0.114345
   37  O  3  X    0.077176  -1.077030   0.446134  -0.026502   0.029674
   38  O  3  Y    0.039299  -0.626861   0.088411   0.388462   0.004887
   39  O  3  Z   -0.118119   0.029645  -0.004884  -0.007603  -0.108293
   40  O  3 XX   -0.004518  -0.139084   0.045515   0.486687   0.023920
   41  O  3 YY   -0.006431   0.164612   0.456341  -0.105596   0.087165
   42  O  3 ZZ    0.010949  -0.025528  -0.501857  -0.381091  -0.111085
   43  O  3 XY   -0.003810  -0.182107  -0.104143  -0.426738  -0.034586
   44  O  3 XZ   -0.497494  -0.006045   0.000154   0.012820  -0.185085
   45  O  3 YZ    0.087825   0.023617  -0.069819  -0.042449   0.810545
   46  H  4  S   -0.037674  -0.230235  -0.248441  -0.512325   0.000755
   47  H  4  S   -0.028315  -0.398465  -0.166814  -0.062257   0.020339
   48  H  5  S    0.035472   0.168610  -0.092978  -0.146389   0.021192
   49  H  5  S    0.065834   0.100259   0.095474  -0.090589   0.019107
   50  H  6  S   -0.068808   0.141292   0.038144   0.085350  -0.005357
   51  H  6  S   -0.151012   0.270914  -0.183241   0.097913  -0.150201
   52  H  7  S    0.118406   0.285369  -0.027013  -0.002663  -0.006478
   53  H  7  S    0.180429   0.333421  -0.154170   0.019055   0.132987

                     41         42         43         44         45
                    1.9572     1.9743     2.0566     2.1448     2.2723
                     A          A          A          A          A   
    1  C  1  S   -0.038220  -0.056898   0.006208  -0.043090   0.005219
    2  C  1  S   -0.423243  -0.331570  -0.013346  -0.262932   0.012139
    3  C  1  X   -0.023456   0.094154  -0.026972   0.034579  -0.011796
    4  C  1  Y   -0.058201  -0.106087   0.010018  -0.044452   0.004758
    5  C  1  Z    0.016210  -0.002043  -0.039406  -0.000314  -0.067985
    6  C  1  S    1.608575   1.986184  -0.117848   1.243963  -0.146629
    7  C  1  X    0.294853   0.355593  -0.016534  -0.435297  -0.093955
    8  C  1  Y   -0.402685  -0.339541   0.003491  -0.554434   0.023913
    9  C  1  Z    0.168652  -0.065408  -0.664950   0.089258  -0.196639
   10  C  1 XX    0.522073   0.077609   0.052751  -0.061414  -0.013808
   11  C  1 YY   -0.002737  -0.764573   0.124382   0.161751   0.039307
   12  C  1 ZZ   -0.519336   0.686965  -0.177133  -0.100337  -0.025499
   13  C  1 XY    0.367619   0.111743   0.009083   0.756662   0.095027
   14  C  1 XZ   -0.089989   0.065119   0.182220  -0.021243   0.973164
   15  C  1 YZ   -0.028399   0.156750   0.760880   0.108646   0.267345
   16  C  2  S    0.011371   0.029205  -0.005644   0.017392  -0.009752
   17  C  2  S    0.014351   0.394767  -0.081619   0.373375  -0.033209
   18  C  2  X    0.028459  -0.167343   0.036132  -0.319148  -0.022087
   19  C  2  Y   -0.105614  -0.053080  -0.011038   0.122674   0.018457
   20  C  2  Z    0.011055   0.004902   0.044744   0.011138  -0.078798
   21  C  2  S   -0.586304  -1.880094   0.275664  -0.782498   0.220881
   22  C  2  X    0.551618   0.394625   0.011207   0.395414  -0.023421
   23  C  2  Y   -0.627866  -1.191949   0.091799   0.362766   0.111141
   24  C  2  Z   -0.044865   0.076568   0.391638  -0.012739  -0.061064
   25  C  2 XX   -0.125447  -0.439267   0.061017  -0.315438   0.072140
   26  C  2 YY    0.367824   0.240465   0.078183  -0.174349  -0.003789
   27  C  2 ZZ   -0.242377   0.198803  -0.139200   0.489787  -0.068351
   28  C  2 XY   -0.024751  -0.094350  -0.000863   0.024927   0.053204
   29  C  2 XZ    0.055160  -0.012409  -0.300566   0.015216   0.226298
   30  C  2 YZ   -0.112398   0.037184   0.475435   0.043761  -0.450601
   31  O  3  S   -0.006529  -0.013764   0.001953  -0.012159   0.003591
   32  O  3  S    0.107347  -0.161499   0.032803   0.168168  -0.025363
   33  O  3  X   -0.025342  -0.095184   0.022633  -0.161507   0.039989
   34  O  3  Y   -0.094569  -0.224480   0.024356  -0.054418   0.031375
   35  O  3  Z   -0.000771   0.016357   0.072706   0.010900  -0.021308
   36  O  3  S   -0.071731   1.066439  -0.180906  -0.121346  -0.088739
   37  O  3  X   -0.066846  -0.462596   0.053841   0.092115   0.026387
   38  O  3  Y    0.217393   0.208889  -0.001448  -0.093209  -0.031080
   39  O  3  Z    0.009893  -0.019483  -0.209747  -0.016823   0.075234
   40  O  3 XX   -0.006919   0.044494   0.014912  -0.251056  -0.035954
   41  O  3 YY   -0.472710  -0.203184  -0.075037   0.503033   0.038718
   42  O  3 ZZ    0.479629   0.158689   0.060125  -0.251976  -0.002763
   43  O  3 XY    0.241396  -0.055381   0.055494   0.120882   0.043279
   44  O  3 XZ   -0.053044   0.041743   0.415414   0.035795  -0.258412
   45  O  3 YZ    0.120893  -0.008988  -0.211169  -0.029245   0.168350
   46  H  4  S   -0.348554  -0.270532  -0.039123   0.299827  -0.004780
   47  H  4  S   -0.173798  -0.206494  -0.005451   0.188825   0.017498
   48  H  5  S   -0.599935   0.113279  -0.114692  -0.672063  -0.077071
   49  H  5  S    0.044221  -0.253134   0.142532  -0.108438   0.099787
   50  H  6  S    0.286521  -0.582176  -0.299298   0.020327  -0.469273
   51  H  6  S   -0.169256   0.063433  -0.187967  -0.117830   0.054522
   52  H  7  S   -0.163980  -0.406917   0.488026  -0.283482   0.522927
   53  H  7  S   -0.220161  -0.047419   0.048981  -0.254906  -0.147654

                     46         47         48         49         50
                    2.3389     2.5099     2.5785     2.8682     2.9476
                     A          A          A          A          A   
    1  C  1  S    0.033588   0.058105   0.003472   0.017546  -0.008902
    2  C  1  S    0.283846   0.140485   0.012309  -0.198731   0.115941
    3  C  1  X   -0.088343  -0.275593  -0.009509  -0.197749   0.111294
    4  C  1  Y    0.044577   0.084967   0.007256   0.163214  -0.064931
    5  C  1  Z    0.011122   0.001837   0.027372  -0.005192   0.000633
    6  C  1  S   -1.426638  -1.735656  -0.101427   0.184164  -0.052411
    7  C  1  X   -0.703444  -0.859317  -0.037546  -0.245662   0.195955
    8  C  1  Y    0.333483   0.336549   0.022832  -0.024273   0.097473
    9  C  1  Z    0.028545  -0.000869   0.031428   0.039340  -0.007804
   10  C  1 XX   -0.335313  -0.776062  -0.034893  -0.158888   0.061411
   11  C  1 YY   -0.114533   0.475028   0.005735  -0.085142   0.027166
   12  C  1 ZZ    0.449846   0.301034   0.029157   0.244031  -0.088577
   13  C  1 XY    0.363143   0.123148   0.001672   0.578539  -0.269101
   14  C  1 XZ   -0.113745   0.001330   0.137940  -0.016259   0.003303
   15  C  1 YZ   -0.038483  -0.026242  -0.180085   0.020690  -0.012892
   16  C  2  S   -0.079670  -0.033314  -0.001800  -0.042166  -0.027656
   17  C  2  S   -0.220401  -0.083872  -0.002808  -0.384097  -1.319222
   18  C  2  X   -0.176574  -0.223693  -0.000475  -0.478467  -1.064941
   19  C  2  Y    0.178748   0.060608   0.013093  -0.206134  -0.613691
   20  C  2  Z    0.002411  -0.010384   0.242811   0.013912   0.037617
   21  C  2  S    1.516920   1.828986   0.091688  -0.166517  -1.665277
   22  C  2  X   -0.440326  -0.798239  -0.041116  -0.240581  -0.757986
   23  C  2  Y    0.654625   0.877049   0.044137  -0.494307  -0.481454
   24  C  2  Z   -0.019328  -0.032527   0.235417   0.013560   0.028230
   25  C  2 XX    0.457846  -0.138155   0.027348   0.782591  -0.762637
   26  C  2 YY    0.296851   0.460636   0.039212  -0.741150   0.315448
   27  C  2 ZZ   -0.754697  -0.322481  -0.066560  -0.041441   0.447189
   28  C  2 XY    0.477480  -0.858025   0.003718  -0.633375  -0.334891
   29  C  2 XZ   -0.059546  -0.009277   0.915992   0.007355   0.035648
   30  C  2 YZ   -0.012360  -0.037693   0.388953   0.034882   0.012453
   31  O  3  S    0.029353  -0.019705  -0.000397  -0.014692  -0.060456
   32  O  3  S   -0.376663   0.563478   0.018277  -0.364728  -0.668538
   33  O  3  X    0.354765  -0.341627  -0.010093  -0.025946  -0.250119
   34  O  3  Y    0.240795  -0.133302  -0.003492   0.026206  -0.159667
   35  O  3  Z   -0.013199   0.008805  -0.010732  -0.000205   0.008726
   36  O  3  S   -0.208422  -0.714747  -0.027635   1.148230   3.047077
   37  O  3  X    0.053977   0.505461   0.014727  -0.769239  -1.491872
   38  O  3  Y   -0.317505  -0.037218  -0.015724   0.045550  -0.938010
   39  O  3  Z    0.009194   0.015744  -0.452775   0.011073   0.053155
   40  O  3 XX   -0.286664  -0.154743   0.015894   0.884783   0.729633
   41  O  3 YY    0.255103  -0.008764   0.027295  -0.651393  -0.032146
   42  O  3 ZZ    0.031561   0.163507  -0.043189  -0.233390  -0.697487
   43  O  3 XY    0.382202   0.126330   0.035723  -0.069398   1.139268
   44  O  3 XZ    0.006786  -0.038924   0.854844  -0.017030  -0.060710
   45  O  3 YZ   -0.031288  -0.017472   0.515704   0.015885  -0.041258
   46  H  4  S   -0.158539  -0.268199  -0.011866   0.279263  -0.055106
   47  H  4  S    0.163554   0.329244   0.013539  -0.377917   0.039547
   48  H  5  S    0.090939   0.092442   0.030775  -0.178524   0.114471
   49  H  5  S   -0.055053  -0.014759  -0.027907  -0.081520  -0.086859
   50  H  6  S   -0.059196   0.026686   0.001638  -0.075529   0.011323
   51  H  6  S    0.100843  -0.006376   0.051841   0.026314   0.101126
   52  H  7  S   -0.150522   0.055542  -0.006965  -0.163130   0.055587
   53  H  7  S    0.105098  -0.001051  -0.020190  -0.053237   0.070635
 ...... END OF RHF CALCULATION ......
 STEP CPU TIME =     5.01 TOTAL CPU TIME =          5.1 (      0.1 MIN)
 TOTAL WALL CLOCK TIME=          5.3 SECONDS, CPU UTILIZATION IS    96.98%

     ---------------------------------------------------------------------
     PROPERTIES FOR THE B3LYP    DFT FUNCTIONAL (RHF  TYPE) DENSITY MATRIX
     ---------------------------------------------------------------------

          -----------------
          ENERGY COMPONENTS
          -----------------

         WAVEFUNCTION NORMALIZATION =       1.0000000000

                ONE ELECTRON ENERGY =    -345.5689217963
                TWO ELECTRON ENERGY =     122.2784609483
           NUCLEAR REPULSION ENERGY =      69.7662329560
                                      ------------------
                       TOTAL ENERGY =    -153.5242278920

 ELECTRON-ELECTRON POTENTIAL ENERGY =     122.2784609483
  NUCLEUS-ELECTRON POTENTIAL ENERGY =    -498.5922545114
   NUCLEUS-NUCLEUS POTENTIAL ENERGY =      69.7662329560
                                      ------------------
             TOTAL POTENTIAL ENERGY =    -306.5475606071
               TOTAL KINETIC ENERGY =     153.0233327151
                 VIRIAL RATIO (V/T) =       2.0032733255

          ---------------------------------------
          MULLIKEN AND LOWDIN POPULATION ANALYSES
          ---------------------------------------

     ATOMIC MULLIKEN POPULATION IN EACH MOLECULAR ORBITAL

                      1          2          3          4          5

                  2.000000   2.000000   2.000000   2.000000   2.000000

    1            -0.000025   0.001338   1.995280   0.020196   0.924493
    2             0.002270   2.000521   0.001834   0.523440   0.136022
    3             1.997727  -0.002813   0.000011   1.455240   0.029359
    4             0.000030   0.000929  -0.000009  -0.001441   0.002437
    5             0.000000  -0.000023   0.000920   0.001169   0.478428
    6            -0.000001   0.000032   0.000735   0.001042   0.351341
    7            -0.000001   0.000016   0.001229   0.000354   0.077920

                      6          7          8          9         10

                  2.000000   2.000000   2.000000   2.000000   2.000000

    1             0.380036   0.477652   0.639771   0.157194   0.085129
    2             0.920159   0.696912   0.390422   0.399526   0.583717
    3             0.257858   0.246399   0.326450   1.340482   1.188713
    4             0.203895   0.286045   0.083226   0.038831   0.000083
    5             0.119767   0.049725   0.006542   0.006780   0.003632
    6             0.117055   0.097271   0.123196   0.001293   0.032427
    7             0.001230   0.145996   0.430393   0.055893   0.106300

                     11         12

                  2.000000   2.000000

    1             0.499953   1.267668
    2             0.046533   0.124160
    3             1.227480   0.253548
    4             0.097443   0.198236
    5             0.102277   0.054432
    6             0.019314   0.086971
    7             0.007001   0.014984

               ----- POPULATIONS IN EACH AO -----
                             MULLIKEN      LOWDIN
              1  C  1  S      1.99687     1.98079
              2  C  1  S      0.70819     0.39824
              3  C  1  X      0.62322     0.54992
              4  C  1  Y      0.81202     0.77260
              5  C  1  Z      0.62728     0.54993
              6  C  1  S      0.71557     0.38734
              7  C  1  X      0.19204     0.33942
              8  C  1  Y      0.53686     0.69138
              9  C  1  Z      0.18709     0.41036
             10  C  1 XX      0.00588     0.17566
             11  C  1 YY      0.00289     0.12776
             12  C  1 ZZ      0.01764     0.18439
             13  C  1 XY      0.01312     0.03043
             14  C  1 XZ      0.01002     0.02710
             15  C  1 YZ      0.00000     0.01447
             16  C  2  S      1.99652     1.97452
             17  C  2  S      0.70398     0.36428
             18  C  2  X      0.74295     0.64710
             19  C  2  Y      0.74618     0.64637
             20  C  2  Z      0.46160     0.41523
             21  C  2  S      0.45841     0.31507
             22  C  2  X      0.11142     0.28179
             23  C  2  Y      0.22772     0.38281
             24  C  2  Z      0.29027     0.33145
             25  C  2 XX      0.00486     0.22273
             26  C  2 YY      0.04055     0.19110
             27  C  2 ZZ      0.02584     0.10364
             28  C  2 XY      0.01231     0.05270
             29  C  2 XZ      0.00291     0.02275
             30  C  2 YZ      0.00000     0.00496
             31  O  3  S      1.99731     1.97776
             32  O  3  S      0.93203     0.72384
             33  O  3  X      0.98673     0.92196
             34  O  3  Y      1.10396     1.05562
             35  O  3  Z      0.75859     0.70706
             36  O  3  S      0.93254     0.46918
             37  O  3  X      0.48187     0.56211
             38  O  3  Y      0.59927     0.66210
             39  O  3  Z      0.49995     0.53835
             40  O  3 XX      0.00226     0.18496
             41  O  3 YY      0.00750     0.17291
             42  O  3 ZZ      0.00714     0.17385
             43  O  3 XY      0.00855     0.01575
             44  O  3 XZ      0.00275     0.01131
             45  O  3 YZ      0.00000     0.00359
             46  H  4  S      0.53621     0.50738
             47  H  4  S      0.37349     0.39843
             48  H  5  S      0.59230     0.50657
             49  H  5  S      0.23135     0.25435
             50  H  6  S      0.58086     0.48402
             51  H  6  S      0.24981     0.26474
             52  H  7  S      0.51202     0.46283
             53  H  7  S      0.32929     0.34504

          ----- MULLIKEN ATOMIC OVERLAP POPULATIONS -----
          (OFF-DIAGONAL ELEMENTS NEED TO BE MULTIPLIED BY 2)

             1           2           3           4           5

    1    5.7525887
    2    0.3600734   4.5806986
    3   -0.0547050   0.5670375   7.8792879
    4   -0.1617718   0.3539824  -0.0735222   0.7786969
    5   -0.0939970  -0.0156062   0.0086752  -0.0129838   1.0624535
    6    0.2861266   0.0050665  -0.0058475   0.0146844  -0.1176816
    7    0.3603704  -0.0257357  -0.0004731   0.0106199  -0.0072110

             6           7

    6    0.7174034
    7   -0.0690758   0.5728199

          TOTAL MULLIKEN AND LOWDIN ATOMIC POPULATIONS
       ATOM         MULL.POP.    CHARGE          LOW.POP.     CHARGE
    1 C             6.448685   -0.448685         6.639780   -0.639780
    2 C             5.825517    0.174483         5.956499    0.043501
    3 O             8.320453   -0.320453         8.180357   -0.180357
    4 H             0.909706    0.090294         0.905807    0.094193
    5 H             0.823649    0.176351         0.760923    0.239077
    6 H             0.830676    0.169324         0.748758    0.251242
    7 H             0.841315    0.158685         0.807875    0.192125

          MULLIKEN SPHERICAL HARMONIC POPULATIONS
       ATOM           S       P       D      F      G      H      I    TOTAL
    1 C             3.42    2.98    0.05   0.00   0.00   0.00   0.00    6.45
    2 C             3.16    2.58    0.09   0.00   0.00   0.00   0.00    5.83
    3 O             3.86    4.43    0.03   0.00   0.00   0.00   0.00    8.32
    4 H             0.91    0.00    0.00   0.00   0.00   0.00   0.00    0.91
    5 H             0.82    0.00    0.00   0.00   0.00   0.00   0.00    0.82
    6 H             0.83    0.00    0.00   0.00   0.00   0.00   0.00    0.83
    7 H             0.84    0.00    0.00   0.00   0.00   0.00   0.00    0.84

          -------------------------------
          BOND ORDER AND VALENCE ANALYSIS     BOND ORDER THRESHOLD=0.050
          -------------------------------

                   BOND                       BOND                       BOND
  ATOM PAIR DIST  ORDER      ATOM PAIR DIST  ORDER      ATOM PAIR DIST  ORDER
    1   2  1.509  1.085        1   5  1.093  0.505        1   6  1.098  0.678
    1   7  1.098  0.888        2   3  1.211  2.033        2   4  1.115  0.881
    5   6  0.678  0.256

                       TOTAL       BONDED        FREE
      ATOM            VALENCE     VALENCE     VALENCE
    1 C                 3.167       3.167      -0.000
    2 C                 4.017       4.017      -0.000
    3 O                 2.126       2.126       0.000
    4 H                 0.919       0.919       0.000
    5 H                 0.811       0.811      -0.000
    6 H                 0.968       0.968      -0.000
    7 H                 0.943       0.943       0.000

          ---------------------
          ELECTROSTATIC MOMENTS
          ---------------------

 POINT   1           X           Y           Z (BOHR)    CHARGE
                -0.000000    0.000000    0.000000        0.00 (A.U.)
         DX          DY          DZ         /D/  (DEBYE)
    -3.141607   -2.880677   -0.348112    4.276584
 ...... END OF PROPERTY EVALUATION ......
 STEP CPU TIME =     0.00 TOTAL CPU TIME =          5.1 (      0.1 MIN)
 TOTAL WALL CLOCK TIME=          5.3 SECONDS, CPU UTILIZATION IS    96.79%
                580000  WORDS OF DYNAMIC MEMORY USED
 EXECUTION OF GAMESS TERMINATED NORMALLY Thu Dec 12 13:20:05 2019
 DDI: 263640 bytes (0.3 MB / 0 MWords) used by master data server.

 ----------------------------------------
 CPU timing information for all processes
 ========================================
 0: 4.984 + 0.157 = 5.142
 ----------------------------------------
 ddikick.x: exited gracefully.
----- accounting info -----
Files used on the master node crcfe02.crc.nd.edu were:
-rw-r--r-- 1 cdrisko campus      490 Dec 12 13:19 /afs/crc.nd.edu/user/c/cdrisko/acetaldehyde.F05
-rw-r--r-- 1 cdrisko campus    45118 Dec 12 13:20 /afs/crc.nd.edu/user/c/cdrisko/acetaldehyde.F07
-rw-r--r-- 1 cdrisko campus 11881056 Dec 12 13:20 /afs/crc.nd.edu/user/c/cdrisko/acetaldehyde.F08
-rw-r--r-- 1 cdrisko campus  1799600 Dec 12 13:20 /afs/crc.nd.edu/user/c/cdrisko/acetaldehyde.F10
Thu Dec 12 13:20:08 EST 2019
0.379u 0.502s 0:09.01 9.6%	0+0k 0+16io 0pf+0w
