----- GAMESS execution script 'rungms' -----
This job is running on host crcfe02.crc.nd.edu
under operating system Linux at Sun Sep 29 10:50:49 EDT 2019
Available scratch disk space (Kbyte units) at beginning of the job is
Filesystem      1K-blocks  Used  Available Use% Mounted on
AFS            2147483647     0 2147483647   0% /afs
GAMESS temporary binary files will be written to /afs/crc.nd.edu/user/c/cdrisko
GAMESS supplementary output files will be written to /afs/crc.nd.edu/user/c/cdrisko/scr
Copying input file SO2.inp to your run's scratch directory...

 Distributed Data Interface kickoff program.
 Initiating 1 compute processes on 1 nodes to run the following command:
 /afs/crc.nd.edu/x86_64_linux/g/gamess/nov-2017/gamess/gamess.00.x SO2 

          ******************************************************
          *         GAMESS VERSION = 11 NOV 2017 (R3)         *
          *             FROM IOWA STATE UNIVERSITY             *
          * M.W.SCHMIDT, K.K.BALDRIDGE, J.A.BOATZ, S.T.ELBERT, *
          *   M.S.GORDON, J.H.JENSEN, S.KOSEKI, N.MATSUNAGA,   *
          *          K.A.NGUYEN, S.J.SU, T.L.WINDUS,           *
          *       TOGETHER WITH M.DUPUIS, J.A.MONTGOMERY       *
          *         J.COMPUT.CHEM.  14, 1347-1363(1993)        *
          **************** 64 BIT INTEL VERSION ****************

  SINCE 1993, STUDENTS AND POSTDOCS WORKING AT IOWA STATE UNIVERSITY
  AND ALSO IN THEIR VARIOUS JOBS AFTER LEAVING ISU HAVE MADE IMPORTANT
  CONTRIBUTIONS TO THE CODE:
     IVANA ADAMOVIC, CHRISTINE AIKENS, YURI ALEXEEV, POOJA ARORA,
     ANDREY ASADCHEV, ROB BELL, PRADIPTA BANDYOPADHYAY, JONATHAN BENTZ,
     BRETT BODE, KURT BRORSEN, CALEB CARLIN, GALINA CHABAN, WEI CHEN,
     CHEOL HO CHOI, PAUL DAY, ALBERT DEFUSCO, NUWAN DESILVA, TIM DUDLEY,
     DMITRI FEDOROV, ALEX FINDLATER, GRAHAM FLETCHER, MARK FREITAG,
     KURT GLAESEMANN, ANASTASIA GUININA,
     DAN KEMP, GRANT MERRILL, NORIYUKI MINEZAWA, JONATHAN MULLIN,
     TAKESHI NAGATA, SEAN NEDD, HEATHER NETZLOFF, BOSILJKA NJEGIC, RYAN OLSON,
     MIKE PAK, BUU PHAM,
     SPENCER PRUITT, LUKE ROSKOP, JIM SHOEMAKER, LYUDMILA SLIPCHENKO,
     TONY SMITH, SAROM SOK LEANG, JIE SONG, TETSUYA TAKETSUGU, SIMON WEBB,
     PENG XU, SOOHAENG YOO, FEDERICO ZAHARIEV

  ADDITIONAL CODE HAS BEEN PROVIDED BY COLLABORATORS IN OTHER GROUPS:
     IOWA STATE UNIVERSITY:
          JOE IVANIC, AARON WEST, LAIMUTIS BYTAUTAS, KLAUS RUEDENBERG
     UNIVERSITY OF TOKYO: KIMIHIKO HIRAO, TAKAHITO NAKAJIMA,
          TAKAO TSUNEDA, MUNEAKI KAMIYA, SUSUMU YANAGISAWA,
          KIYOSHI YAGI, MAHITO CHIBA, SEIKEN TOKURA, NAOAKI KAWAKAMI
     UNIVERSITY OF AARHUS: FRANK JENSEN
     UNIVERSITY OF IOWA: VISVALDAS KAIRYS, HUI LI
     NATIONAL INST. OF STANDARDS AND TECHNOLOGY: WALT STEVENS, DAVID GARMER
     UNIVERSITY OF PISA: BENEDETTA MENNUCCI, JACOPO TOMASI
     UNIVERSITY OF MEMPHIS: HENRY KURTZ, PRAKASHAN KORAMBATH
     UNIVERSITY OF ALBERTA: TOBY ZENG, MARIUSZ KLOBUKOWSKI
     UNIVERSITY OF NEW ENGLAND: MARK SPACKMAN
     MIE UNIVERSITY: HIROAKI UMEDA
     NAT. INST. OF ADVANCED INDUSTRIAL SCIENCE AND TECHNOLOGY: KAZUO KITAURA
     MICHIGAN STATE UNIVERSITY:
          KAROL KOWALSKI, MARTA WLOCH, JEFFREY GOUR, JESSE LUTZ,
          WEI LI, PIOTR PIECUCH
     UNIVERSITY OF SILESIA: MONIKA MUSIAL, STANISLAW KUCHARSKI
     FACULTES UNIVERSITAIRES NOTRE-DAME DE LA PAIX:
          OLIVIER QUINET, BENOIT CHAMPAGNE
     UNIVERSITY OF CALIFORNIA - SANTA BARBARA: BERNARD KIRTMAN
     INSTITUTE FOR MOLECULAR SCIENCE:
          KAZUYA ISHIMURA, MICHIO KATOUDA, AND SHIGERU NAGASE
     UNIVERSITY OF NOTRE DAME: ANNA POMOGAEVA, DAN CHIPMAN
     KYUSHU UNIVERSITY:
          HARUYUKI NAKANO,
          FENG LONG GU, JACEK KORCHOWIEC, MARCIN MAKOWSKI, AND YURIKO AOKI,
          HIROTOSHI MORI AND EISAKU MIYOSHI
     PENNSYLVANIA STATE UNIVERSITY:
          TZVETELIN IORDANOV, CHET SWALINA, JONATHAN SKONE,
          SHARON HAMMES-SCHIFFER
     WASEDA UNIVERSITY:
          MASATO KOBAYASHI, TOMOKO AKAMA, TSUGUKI TOUMA,
          TAKESHI YOSHIKAWA, YASUHIRO IKABATA, JUNJI SEINO,
          YUYA NAKAJIMA, HIROMI NAKAI
     NANJING UNIVERSITY: SHUHUA LI
     UNIVERSITY OF NEBRASKA:
          PEIFENG SU, DEJUN SI, NANDUN THELLAMUREGE, YALI WANG, HUI LI
     UNIVERSITY OF ZURICH: ROBERTO PEVERATI, KIM BALDRIDGE
     N. COPERNICUS UNIVERSITY AND JACKSON STATE UNIVERSITY:
          MARIA BARYSZ
     UNIVERSITY OF COPENHAGEN: Jimmy Kromann, CASPER STEINMANN
     TOKYO INSTITUTE OF TECHNOLOGY: HIROYA NAKATA
     NAGOYA UNIVERSITY: YOSHIO NISHIMOTO, STEPHAN IRLE
     MOSCOW STATE UNIVERSITY: VLADIMIR MIRONOV

 EXECUTION OF GAMESS BEGUN Sun Sep 29 10:50:49 2019

            ECHO OF THE FIRST FEW INPUT CARDS -
 INPUT CARD> $BASIS GBASIS=PCSEG-1 $END                                                     
 INPUT CARD> $CONTRL COORD=ZMT ISPHER=1 RUNTYP=ENERGY DFTTYP=PBE MULT=1 $END                
 INPUT CARD>                                                                                
 INPUT CARD> $DATA                                                                          
 INPUT CARD>Title SO2 single-point calculation template with Z-Matrix                       
 INPUT CARD>C1                                                                              
 INPUT CARD>S                                                                               
 INPUT CARD>O 1 1.60                                                                        
 INPUT CARD>O 1 1.60 2 90                                                                   
 INPUT CARD> $END                                                                           
    1000000 WORDS OF MEMORY AVAILABLE

     BASIS OPTIONS
     -------------
     GBASIS=PCSEG-1      IGAUSS=       0      POLAR=NONE    
     NDFUNC=       0     NFFUNC=       0     DIFFSP=       F
     NPFUNC=       0      DIFFS=       F     BASNAM=        


     RUN TITLE
     ---------
 Title SO2 single-point calculation template with Z-Matrix                       

 THE POINT GROUP OF THE MOLECULE IS C1      
 THE ORDER OF THE PRINCIPAL AXIS IS     0

 YOUR FULLY SUBSTITUTED Z-MATRIX IS
 S   
 O      1   1.6000000
 O      1   1.6000000  2   90.0000

 THE MOMENTS OF INERTIA ARE (AMU-ANGSTROM**2)
 IXX=    20.468   IYY=    40.947   IZZ=    61.415

 ATOM      ATOMIC                      COORDINATES (BOHR)
           CHARGE         X                   Y                   Z
 S          16.0     0.0000000000       -1.0692871029        0.0000000000
 O           8.0     2.1379808968        1.0686937939        0.0000000000
 O           8.0    -2.1379808968        1.0686937939        0.0000000000

          INTERNUCLEAR DISTANCES (ANGS.)
          ------------------------------

                1 S          2 O          3 O     

   1 S       0.0000000    1.6000000 *  1.6000000 *
   2 O       1.6000000 *  0.0000000    2.2627417 *
   3 O       1.6000000 *  2.2627417 *  0.0000000  

  * ... LESS THAN  3.000


     ATOMIC BASIS SET
     ----------------
 THE CONTRACTED PRIMITIVE FUNCTIONS HAVE BEEN UNNORMALIZED
 THE CONTRACTED BASIS FUNCTIONS ARE NOW NORMALIZED TO UNITY

  SHELL TYPE  PRIMITIVE        EXPONENT          CONTRACTION COEFFICIENT(S)

 S         

      1   S       1         49299.4000000    0.000677492991
      1   S       2          7395.8400000    0.005232317766
      1   S       3          1683.3000000    0.026769459077
      1   S       4           476.1440000    0.102869580705
      1   S       5           154.3290000    0.286438127414
      1   S       6            55.0288000    0.454278639081
      1   S       7            20.5029000    0.271743121997

      2   S       8            45.9596000   -0.088421914560
      2   S       9             4.9274000    0.564350486135
      2   S      10             1.9179900    0.505415953466

      3   S      11             0.3684980    1.000000000000

      4   S      12             0.1291650    1.000000000000

      5   P      13           451.6620000    0.003707705453
      5   P      14           106.0980000    0.029219352245
      5   P      15            33.6996000    0.124444551509
      5   P      16            12.3054000    0.321808587656
      5   P      17             4.7141200    0.462822172957
      5   P      18             1.7810500    0.266513371364

      6   P      19             0.8722350    0.349265132972
      6   P      20             0.3102780    0.717115018770

      7   P      21             0.1001940    1.000000000000

      8   D      22             0.5500000    1.000000000000

 O         

      9   S      23          2288.6400000    0.005451138222
      9   S      24           344.4160000    0.040718922842
      9   S      25            78.2538000    0.181369420873
      9   S      26            21.7195000    0.465536820246
      9   S      27             6.5590700    0.451211321214

     10   S      28            10.4656000   -0.150211201174
     10   S      29             0.9643510    1.052867983385

     11   S      30             0.2851270    1.000000000000

     12   P      31            17.0590000    0.068749256972
     12   P      32             3.6899900    0.351671941499
     12   P      33             0.9929960    0.724532099722

     13   P      34             0.2449240    1.000000000000

     14   D      35             1.0000000    1.000000000000

 O         

     15   S      36          2288.6400000    0.005451138222
     15   S      37           344.4160000    0.040718922842
     15   S      38            78.2538000    0.181369420873
     15   S      39            21.7195000    0.465536820246
     15   S      40             6.5590700    0.451211321214

     16   S      41            10.4656000   -0.150211201174
     16   S      42             0.9643510    1.052867983385

     17   S      43             0.2851270    1.000000000000

     18   P      44            17.0590000    0.068749256972
     18   P      45             3.6899900    0.351671941499
     18   P      46             0.9929960    0.724532099722

     19   P      47             0.2449240    1.000000000000

     20   D      48             1.0000000    1.000000000000

 TOTAL NUMBER OF BASIS SET SHELLS             =   20
 NUMBER OF CARTESIAN GAUSSIAN BASIS FUNCTIONS =   49
 NOTE: THIS RUN WILL RESTRICT THE MO VARIATION SPACE TO SPHERICAL HARMONICS.
 THE NUMBER OF ORBITALS KEPT IN THE VARIATIONAL SPACE WILL BE PRINTED LATER.
 NUMBER OF ELECTRONS                          =   32
 CHARGE OF MOLECULE                           =    0
 SPIN MULTIPLICITY                            =    1
 NUMBER OF OCCUPIED ORBITALS (ALPHA)          =   16
 NUMBER OF OCCUPIED ORBITALS (BETA )          =   16
 TOTAL NUMBER OF ATOMS                        =    3
 THE NUCLEAR REPULSION ENERGY IS       99.6357527339

     LEBEDEV GRID-BASED DFT OPTIONS
     ------------------------------
     DFTTYP=PBE     
     NRAD  =      96     NLEB  =     302
     NRAD0 =      24     NLEB0 =     110
     SWOFF =    5.00E-03 (PURE SCF -> DFT)
     SWITCH=    3.00E-04 (COARSE -> TIGHT GRID)
     THRESH=    0.00E+00 GTHRE=    1.00E+00

 GRIMME'S EMPIRICAL DISPERSION CORRECTION= F

     $CONTRL OPTIONS
     ---------------
 SCFTYP=RHF          RUNTYP=ENERGY       EXETYP=RUN     
 MPLEVL=       0     CITYP =NONE         CCTYP =NONE         VBTYP =NONE    
 DFTTYP=PBE          TDDFT =NONE    
 MULT  =       1     ICHARG=       0     NZVAR =       0     COORD =ZMT     
 PP    =NONE         RELWFN=NONE         LOCAL =NONE         NUMGRD=       F
 ISPHER=       1     NOSYM =       0     MAXIT =      30     UNITS =ANGS    
 PLTORB=       F     MOLPLT=       F     AIMPAC=       F     FRIEND=        
 NPRINT=       7     IREST =       0     GEOM  =INPUT   
 NORMF =       0     NORMP =       0     ITOL  =      20     ICUT  =       9
 INTTYP=BEST         GRDTYP=BEST         QMTTOL= 1.0E-06

     $SYSTEM OPTIONS
     ---------------
  REPLICATED MEMORY=     1000000 WORDS (ON EVERY NODE).
 DISTRIBUTED MEMDDI=           0 MILLION WORDS IN AGGREGATE,
 MEMDDI DISTRIBUTED OVER   1 PROCESSORS IS           0 WORDS/PROCESSOR.
 TOTAL MEMORY REQUESTED ON EACH PROCESSOR=     1000000 WORDS.
 TIMLIM=      525600.00 MINUTES, OR     365.0 DAYS.
 PARALL= F  BALTYP=  DLB     KDIAG=    0  COREFL= F
 MXSEQ2=     300 MXSEQ3=     150  mem10=         0

          ----------------
          PROPERTIES INPUT
          ----------------

     MOMENTS            FIELD           POTENTIAL          DENSITY
 IEMOM =       1   IEFLD =       0   IEPOT =       0   IEDEN =       0
 WHERE =COMASS     WHERE =NUCLEI     WHERE =NUCLEI     WHERE =NUCLEI  
 OUTPUT=BOTH       OUTPUT=BOTH       OUTPUT=BOTH       OUTPUT=BOTH    
 IEMINT=       0   IEFINT=       0                     IEDINT=       0
                                                       MORB  =       0
          EXTRAPOLATION IN EFFECT
          DIIS IN EFFECT
 ORBITAL PRINTING OPTION: NPREO=     1    49     2     1

     -------------------------------
     INTEGRAL TRANSFORMATION OPTIONS
     -------------------------------
     NWORD  =            0
     CUTOFF = 1.0E-09     MPTRAN =       0
     DIRTRF =       F     AOINTS =DUP     

          ----------------------
          INTEGRAL INPUT OPTIONS
          ----------------------
 NOPK  =       1 NORDER=       0 SCHWRZ=       F

   --- ENCODED Z MATRIX ---
 COORD  TYPE   I   J   K   L   M   N
    1      1    2   1
    2      1    3   1
    3      2    3   1   2

 THE DETERMINANT OF THE G MATRIX IS 10**(    -4)

 THE DETERMINANT OF THE G MATRIX IS 10**(    -4)
 * * * WARNING * * *
 YOUR B MATRIX HAS A SMALL DETERMINANT.
 THIS SUGGESTS YOU MAY HAVE BADLY CHOSEN COORDINATES.

     ------------------------------------------
     THE POINT GROUP IS C1 , NAXIS= 0, ORDER= 1
     ------------------------------------------

 -- VARIATIONAL SPACE WILL BE RESTRICTED TO PURE SPHERICAL HARMONICS ONLY --
 AFTER EXCLUDING CONTAMINANT COMBINATIONS FROM THE CARTESIAN GAUSSIAN BASIS
 SET, THE NUMBER OF SPHERICAL HARMONICS KEPT IN THE VARIATION SPACE IS   46

     DIMENSIONS OF THE SYMMETRY SUBSPACES ARE
 A   =   46

 ..... DONE SETTING UP THE RUN .....
 STEP CPU TIME =     0.03 TOTAL CPU TIME =          0.0 (      0.0 MIN)
 TOTAL WALL CLOCK TIME=          0.0 SECONDS, CPU UTILIZATION IS    80.00%

          ********************
          1 ELECTRON INTEGRALS
          ********************
 ...... END OF ONE-ELECTRON INTEGRALS ......
 STEP CPU TIME =     0.00 TOTAL CPU TIME =          0.0 (      0.0 MIN)
 TOTAL WALL CLOCK TIME=          0.0 SECONDS, CPU UTILIZATION IS    80.00%

          -------------
          GUESS OPTIONS
          -------------
          GUESS =HUCKEL            NORB  =       0          NORDER=       0
          MIX   =       F          PRTMO =       F          PUNMO =       F
          TOLZ  = 1.0E-08          TOLE  = 1.0E-05
          SYMDEN=       F          PURIFY=       F

 INITIAL GUESS ORBITALS GENERATED BY HUCKEL   ROUTINE.
 HUCKEL GUESS REQUIRES     21634 WORDS.

 STATISTICS FOR GENERATION OF SYMMETRY ORBITAL -Q- MATRIX
 NUMBER OF CARTESIAN ATOMIC ORBITALS=         49
 NUMBER OF SPHERICAL CONTAMINANTS DROPPED=     3
 NUMBER OF LINEARLY DEPENDENT MOS DROPPED=     0
 TOTAL NUMBER OF MOS IN VARIATION SPACE=      46

 SYMMETRIES FOR INITIAL GUESS ORBITALS FOLLOW.   BOTH SET(S).
    16 ORBITALS ARE OCCUPIED (    7 CORE ORBITALS).
     8=A        9=A       10=A       11=A       12=A       13=A       14=A   
    15=A       16=A       17=A       18=A       19=A       20=A       21=A   
    22=A       23=A       24=A       25=A       26=A   
 ...... END OF INITIAL ORBITAL SELECTION ......
 STEP CPU TIME =     0.01 TOTAL CPU TIME =          0.0 (      0.0 MIN)
 TOTAL WALL CLOCK TIME=          0.1 SECONDS, CPU UTILIZATION IS    83.33%

                    ----------------------
                    AO INTEGRAL TECHNOLOGY
                    ----------------------
     S,P,L SHELL ROTATED AXIS INTEGRALS, REPROGRAMMED BY
        KAZUYA ISHIMURA (IMS) AND JOSE SIERRA (SYNSTAR).
     S,P,D,L SHELL ROTATED AXIS INTEGRALS PROGRAMMED BY
        KAZUYA ISHIMURA (INSTITUTE FOR MOLECULAR SCIENCE).
     S,P,D,F,G SHELL TO TOTAL QUARTET ANGULAR MOMENTUM SUM 5,
        ERIC PROGRAM BY GRAHAM FLETCHER (ELORET AND NASA ADVANCED
        SUPERCOMPUTING DIVISION, AMES RESEARCH CENTER).
     S,P,D,F,G,L SHELL GENERAL RYS QUADRATURE PROGRAMMED BY
        MICHEL DUPUIS (PACIFIC NORTHWEST NATIONAL LABORATORY).

          --------------------
          2 ELECTRON INTEGRALS
          --------------------

 THE -PK- OPTION IS OFF, THE INTEGRALS ARE NOT IN SUPERMATRIX FORM.
 STORING   15000 INTEGRALS/RECORD ON DISK, USING 12 BYTES/INTEGRAL.
 TWO ELECTRON INTEGRAL EVALUATION REQUIRES   90606 WORDS OF MEMORY.
 II,JST,KST,LST =  1  1  1  1 NREC =         1 INTLOC =    1
 II,JST,KST,LST =  2  1  1  1 NREC =         1 INTLOC =    2
 II,JST,KST,LST =  3  1  1  1 NREC =         1 INTLOC =    7
 II,JST,KST,LST =  4  1  1  1 NREC =         1 INTLOC =   22
 II,JST,KST,LST =  5  1  1  1 NREC =         1 INTLOC =   56
 II,JST,KST,LST =  6  1  1  1 NREC =         1 INTLOC =  125
 II,JST,KST,LST =  7  1  1  1 NREC =         1 INTLOC =  329
 II,JST,KST,LST =  8  1  1  1 NREC =         1 INTLOC =  776
 II,JST,KST,LST =  9  1  1  1 NREC =         1 INTLOC = 2864
 II,JST,KST,LST = 10  1  1  1 NREC =         1 INTLOC = 4934
 II,JST,KST,LST = 11  1  1  1 NREC =         1 INTLOC = 7597
 II,JST,KST,LST = 12  1  1  1 NREC =         1 INTLOC =10713
 II,JST,KST,LST = 13  1  1  1 NREC =         2 INTLOC = 6617
 II,JST,KST,LST = 14  1  1  1 NREC =         3 INTLOC = 6885
 II,JST,KST,LST = 15  1  1  1 NREC =         6 INTLOC = 8859
 II,JST,KST,LST = 16  1  1  1 NREC =         7 INTLOC = 2118
 II,JST,KST,LST = 17  1  1  1 NREC =         7 INTLOC =14264
 II,JST,KST,LST = 18  1  1  1 NREC =         8 INTLOC =12793
 II,JST,KST,LST = 19  1  1  1 NREC =        11 INTLOC = 9480
 II,JST,KST,LST = 20  1  1  1 NREC =        15 INTLOC = 2039
 TOTAL NUMBER OF NONZERO TWO-ELECTRON INTEGRALS =              348009
         24 INTEGRAL RECORDS WERE STORED ON DISK FILE  8.
  ...... END OF TWO-ELECTRON INTEGRALS .....
 STEP CPU TIME =     0.10 TOTAL CPU TIME =          0.2 (      0.0 MIN)
 TOTAL WALL CLOCK TIME=          0.2 SECONDS, CPU UTILIZATION IS    93.75%

          --------------------------
               R-PBE SCF CALCULATION
          --------------------------

     NUCLEAR ENERGY =        99.6357527339
     MAXIT =   30     NPUNCH=    2
     EXTRAP=T  DAMP=F  SHIFT=F  RSTRCT=F  DIIS=T  DEM=F  SOSCF=F
         DENSITY MATRIX CONVERGENCE THRESHOLD=  1.00E-05
     COARSE -> FINE DFT GRID SWITCH THRESHOLD=  3.00E-04 (SWITCH IN $DFT)
                   HF -> DFT SWITCH THRESHOLD=  5.00E-03 (SWOFF IN $DFT)
     MEMORY REQUIRED FOR RHF ITERS=    183108 WORDS.

 DFT CODE IS SWITCHING FROM THE FINE GRID NRAD= 96,  NLEB=  302
                      TO THE COARSE GRID NRAD0= 24, NLEB0=  110

     EXCHANGE FUNCTIONAL   =PBE       
     CORRELATION FUNCTIONAL=PBE       
     DFT THRESHOLD         =.460E-07
     GRID CHANGE THRESHOLD =.300E-03
 FOR AN EULER-MACLAURIN QUADRATURE USING  96 RADIAL POINTS:
 SMALLEST GAUSSIAN PRIMITIVE EXPONENT=        0.1001940000 OF TYPE -P-
 ON ATOM NUMBER   1 HAS RADIAL NORMALIZATION=  1.000000
  LARGEST GAUSSIAN PRIMITIVE EXPONENT=    49299.4000000000 OF TYPE -S-
 ON ATOM NUMBER   1 HAS RADIAL NORMALIZATION=  1.000000
 DFT IS SWITCHED OFF, PERFORMING PURE SCF UNTIL SWOFF THRESHOLD IS REACHED.

 ITER EX DEM     TOTAL ENERGY        E CHANGE  DENSITY CHANGE    DIIS ERROR
   1  0  0     -546.0002194195  -546.0002194195   0.656627368   0.940664556
          * * *   INITIATING DIIS PROCEDURE   * * *
   2  1  0     -546.5858957957    -0.5856763762   0.687011068   0.333331311
   3  2  0     -546.6236719459    -0.0377761503   0.268360945   0.316450015
   4  3  0     -546.9981240252    -0.3744520793   0.023566697   0.009261376
   5  4  0     -546.9988190532    -0.0006950280   0.005438727   0.005183692
   6  5  0     -546.9989317338    -0.0001126806   0.001708298   0.001550395
 CONVERGED TO SWOFF, SO DFT CALCULATION IS NOW SWITCHED ON.
          * * *   INITIATING DIIS PROCEDURE   * * *
   7  6  0     -548.1575869908    -1.1586552570   0.429955510   0.095900156
   8  7  0     -548.1313573209     0.0262296699   0.376797369   0.147876922
   9  8  0     -548.1545726740    -0.0232153532   0.112867031   0.119362273
  10  9  0     -548.1966533973    -0.0420807233   0.026769796   0.012499011
  11 10  0     -548.1972428756    -0.0005894783   0.002716641   0.000930326
  12 11  0     -548.1972475200    -0.0000046444   0.000590233   0.000619175
  13 12  0     -548.1972480558    -0.0000005358   0.000403323   0.000416088
  14 13  0     -548.1972483894    -0.0000003336   0.000111593   0.000117576
 DFT CODE IS SWITCHING BACK TO THE FINE GRID
          * * *   INITIATING DIIS PROCEDURE   * * *
  15 14  0     -548.1916188303     0.0056295591   0.006661806   0.009130469
  16 15  0     -548.1916872417    -0.0000684114   0.019828958   0.005411197
  17 16  0     -548.1914748425     0.0002123992   0.014533597   0.010581883
  18 17  0     -548.1917860296    -0.0003111871   0.001369387   0.000946827
  19 18  0     -548.1917883489    -0.0000023193   0.000238246   0.000048317
  20 19  0     -548.1917882293     0.0000001195   0.000197095   0.000252790
  21 20  0     -548.1917883613    -0.0000001320   0.000014217   0.000011181
  22 21  0     -548.1917883618    -0.0000000005   0.000001106   0.000001426
  23 22  0     -548.1917883618    -0.0000000000   0.000000531   0.000000273

          -----------------
          DENSITY CONVERGED
          -----------------
     TIME TO FORM FOCK OPERATORS=       2.6 SECONDS (       0.1 SEC/ITER)
     TIME TO SOLVE SCF EQUATIONS=       0.0 SECONDS (       0.0 SEC/ITER)

 FINAL R-PBE ENERGY IS     -548.1917883618 AFTER  23 ITERATIONS
 DFT EXCHANGE + CORRELATION ENERGY =       -42.3670905871
 TOTAL ELECTRON NUMBER             =        32.0000482390

          ------------
          EIGENVECTORS
          ------------

                      1          2          3          4          5
                  -88.2274   -18.7936   -18.7936    -7.8448    -5.8701
                     A          A          A          A          A   
    1  S  1  S    0.997759  -0.000000  -0.000017  -0.308387  -0.000000
    2  S  1  S    0.008245   0.000001   0.000043   1.031696   0.000000
    3  S  1  S   -0.002977  -0.000014  -0.000802   0.028028  -0.000000
    4  S  1  S    0.000978   0.000138   0.007779  -0.006136  -0.000000
    5  S  1  X   -0.000000   0.000111  -0.000002  -0.000000   0.994689
    6  S  1  Y    0.000139  -0.000003  -0.000149   0.007642  -0.000002
    7  S  1  Z    0.000000   0.000000   0.000000   0.000000   0.000000
    8  S  1  X    0.000000  -0.001669   0.000030  -0.000000   0.017024
    9  S  1  Y   -0.000412   0.000031   0.001759   0.001029  -0.000000
   10  S  1  Z    0.000000   0.000000   0.000000   0.000000   0.000000
   11  S  1  X    0.000000  -0.002414   0.000043   0.000000  -0.002841
   12  S  1  Y    0.000049   0.000067   0.003754  -0.000244   0.000000
   13  S  1  Z    0.000000   0.000000   0.000000   0.000000   0.000000
   14  S  1 XX   -0.000080   0.000007   0.000373   0.000272  -0.000000
   15  S  1 YY   -0.000063   0.000006   0.000330   0.000082  -0.000000
   16  S  1 ZZ    0.000143  -0.000012  -0.000703  -0.000354   0.000000
   17  S  1 XY    0.000000  -0.000612   0.000011  -0.000000   0.001088
   18  S  1 XZ    0.000000   0.000000   0.000000   0.000000   0.000000
   19  S  1 YZ    0.000000   0.000000   0.000000   0.000000   0.000000
   20  O  2  S   -0.000011  -0.689700   0.714717  -0.000009  -0.000144
   21  O  2  S   -0.000104  -0.023244   0.024136  -0.000158  -0.000056
   22  O  2  S    0.000225   0.010228  -0.012127  -0.000050  -0.000621
   23  O  2  X   -0.000022   0.000742  -0.000524   0.000173  -0.000104
   24  O  2  Y   -0.000013   0.000699  -0.000699   0.000152  -0.000031
   25  O  2  Z    0.000000   0.000000   0.000000   0.000000   0.000000
   26  O  2  X   -0.000243  -0.001979   0.001876   0.000529   0.000678
   27  O  2  Y   -0.000275  -0.001637   0.001903   0.000617   0.000768
   28  O  2  Z    0.000000   0.000000   0.000000   0.000000   0.000000
   29  O  2 XX    0.000059   0.000269   0.000038  -0.000050   0.000184
   30  O  2 YY    0.000058   0.000030  -0.000105  -0.000052   0.000006
   31  O  2 ZZ   -0.000117  -0.000298   0.000067   0.000102  -0.000190
   32  O  2 XY    0.000210   0.000214  -0.000325  -0.000179   0.000336
   33  O  2 XZ    0.000000   0.000000   0.000000   0.000000   0.000000
   34  O  2 YZ    0.000000   0.000000   0.000000   0.000000   0.000000
   35  O  3  S   -0.000011   0.714702   0.689716  -0.000009   0.000144
   36  O  3  S   -0.000104   0.024088   0.023293  -0.000158   0.000056
   37  O  3  S    0.000225  -0.010653  -0.011755  -0.000050   0.000621
   38  O  3  X    0.000022   0.000760   0.000497  -0.000173  -0.000104
   39  O  3  Y   -0.000013  -0.000724  -0.000673   0.000152   0.000031
   40  O  3  Z    0.000000   0.000000   0.000000   0.000000   0.000000
   41  O  3  X    0.000243  -0.002044  -0.001804  -0.000529   0.000678
   42  O  3  Y   -0.000275   0.001703   0.001843   0.000617  -0.000768
   43  O  3  Z    0.000000   0.000000   0.000000   0.000000   0.000000
   44  O  3 XX    0.000059  -0.000267   0.000048  -0.000050  -0.000184
   45  O  3 YY    0.000058  -0.000033  -0.000104  -0.000052  -0.000006
   46  O  3 ZZ   -0.000117   0.000301   0.000056   0.000102   0.000190
   47  O  3 XY   -0.000210   0.000226   0.000317   0.000179   0.000336
   48  O  3 XZ    0.000000   0.000000   0.000000   0.000000   0.000000
   49  O  3 YZ    0.000000   0.000000   0.000000   0.000000   0.000000

                      6          7          8          9         10
                   -5.8693    -5.8660    -0.9963    -0.8879    -0.6223
                     A          A          A          A          A   
    1  S  1  S    0.000000   0.002375   0.047139  -0.000000   0.071845
    2  S  1  S    0.000000  -0.008139  -0.290934   0.000000  -0.459140
    3  S  1  S    0.000000  -0.000600   0.410374  -0.000002   0.701872
    4  S  1  S    0.000000   0.002058   0.079609   0.000005   0.272753
    5  S  1  X    0.000000   0.000002   0.000000   0.097228   0.000000
    6  S  1  Y    0.000000   0.994725  -0.069907  -0.000000   0.063859
    7  S  1  Z    0.994922   0.000000   0.000000   0.000000   0.000000
    8  S  1  X    0.000000   0.000000   0.000000  -0.221629  -0.000000
    9  S  1  Y    0.000000   0.016754   0.154035   0.000001  -0.155193
   10  S  1  Z    0.016058   0.000000   0.000000   0.000000   0.000000
   11  S  1  X    0.000000  -0.000000   0.000001   0.002045  -0.000001
   12  S  1  Y    0.000000  -0.002433  -0.014259   0.000003  -0.049510
   13  S  1  Z   -0.003162   0.000000   0.000000   0.000000   0.000000
   14  S  1 XX    0.000000  -0.000083   0.015291   0.000000  -0.002638
   15  S  1 YY    0.000000   0.000727   0.017554   0.000000  -0.014119
   16  S  1 ZZ    0.000000  -0.000644  -0.032845  -0.000001   0.016757
   17  S  1 XY    0.000000   0.000000   0.000000  -0.074554  -0.000000
   18  S  1 XZ   -0.000000   0.000000   0.000000   0.000000   0.000000
   19  S  1 YZ    0.000409   0.000000   0.000000   0.000000   0.000000
   20  O  2  S    0.000000  -0.000148  -0.135509   0.167529   0.103158
   21  O  2  S    0.000000   0.000029   0.276755  -0.347702  -0.218456
   22  O  2  S    0.000000  -0.000969   0.250384  -0.336464  -0.271449
   23  O  2  X    0.000000  -0.000044  -0.079410   0.048720  -0.055492
   24  O  2  Y    0.000000  -0.000132  -0.071374   0.073717  -0.089107
   25  O  2  Z   -0.000067   0.000000   0.000000   0.000000   0.000000
   26  O  2  X    0.000000   0.000742  -0.025457   0.016927  -0.023825
   27  O  2  Y    0.000000   0.000558  -0.025435   0.025789  -0.040392
   28  O  2  Z   -0.000111   0.000000   0.000000   0.000000   0.000000
   29  O  2 XX    0.000000  -0.000009   0.001584   0.001102  -0.000084
   30  O  2 YY    0.000000   0.000269   0.003127  -0.003049   0.003588
   31  O  2 ZZ    0.000000  -0.000261  -0.004711   0.001947  -0.003504
   32  O  2 XY    0.000000   0.000437   0.011411  -0.008570   0.004536
   33  O  2 XZ    0.000123   0.000000   0.000000   0.000000   0.000000
   34  O  2 YZ    0.000116   0.000000   0.000000   0.000000   0.000000
   35  O  3  S    0.000000  -0.000148  -0.135509  -0.167529   0.103158
   36  O  3  S    0.000000   0.000029   0.276755   0.347703  -0.218457
   37  O  3  S    0.000000  -0.000969   0.250388   0.336456  -0.271451
   38  O  3  X    0.000000   0.000044   0.079410   0.048720   0.055492
   39  O  3  Y    0.000000  -0.000132  -0.071374  -0.073716  -0.089107
   40  O  3  Z   -0.000067   0.000000   0.000000   0.000000   0.000000
   41  O  3  X    0.000000  -0.000742   0.025458   0.016924   0.023825
   42  O  3  Y    0.000000   0.000558  -0.025436  -0.025787  -0.040392
   43  O  3  Z   -0.000111   0.000000   0.000000   0.000000   0.000000
   44  O  3 XX    0.000000  -0.000009   0.001584  -0.001103  -0.000084
   45  O  3 YY    0.000000   0.000269   0.003127   0.003049   0.003588
   46  O  3 ZZ    0.000000  -0.000261  -0.004711  -0.001947  -0.003504
   47  O  3 XY    0.000000  -0.000437  -0.011411  -0.008570  -0.004536
   48  O  3 XZ   -0.000123   0.000000   0.000000   0.000000   0.000000
   49  O  3 YZ    0.000116   0.000000   0.000000   0.000000   0.000000

                     11         12         13         14         15
                   -0.4205    -0.4194    -0.4160    -0.3018    -0.2911
                     A          A          A          A          A   
    1  S  1  S    0.000000  -0.007969   0.000000   0.012453   0.000000
    2  S  1  S   -0.000001   0.049420   0.000000  -0.080894   0.000000
    3  S  1  S    0.000001  -0.036146   0.000000   0.107616   0.000000
    4  S  1  S    0.000005  -0.219318   0.000000   0.210255   0.000000
    5  S  1  X   -0.194303  -0.000004   0.000000   0.000000   0.000000
    6  S  1  Y    0.000005  -0.206459   0.000000   0.078699   0.000000
    7  S  1  Z    0.000000   0.000000  -0.222787   0.000000   0.000000
    8  S  1  X    0.527685   0.000012   0.000000  -0.000000   0.000000
    9  S  1  Y   -0.000013   0.557288   0.000000  -0.215959   0.000000
   10  S  1  Z    0.000000   0.000000   0.604538   0.000000  -0.000001
   11  S  1  X    0.058534   0.000002   0.000000   0.000001   0.000000
   12  S  1  Y   -0.000001   0.071317   0.000000  -0.031632   0.000000
   13  S  1  Z    0.000000   0.000000   0.165931   0.000000  -0.000000
   14  S  1 XX    0.000000  -0.025468   0.000000  -0.110072   0.000000
   15  S  1 YY   -0.000001   0.048732   0.000000   0.078110   0.000000
   16  S  1 ZZ    0.000001  -0.023264   0.000000   0.031962   0.000000
   17  S  1 XY    0.051292   0.000001   0.000000  -0.000000   0.000000
   18  S  1 XZ    0.000000   0.000000  -0.000000   0.000000  -0.094659
   19  S  1 YZ    0.000000   0.000000   0.049362   0.000000   0.000000
   20  O  2  S    0.066183   0.050794   0.000000  -0.000882   0.000000
   21  O  2  S   -0.138818  -0.107276   0.000000   0.000829   0.000000
   22  O  2  S   -0.225743  -0.162104   0.000000  -0.009014   0.000000
   23  O  2  X   -0.162733  -0.313240   0.000000  -0.166626   0.000000
   24  O  2  Y   -0.308180  -0.070567   0.000000   0.409429   0.000000
   25  O  2  Z    0.000000   0.000000   0.283234   0.000000  -0.475741
   26  O  2  X   -0.086727  -0.180321   0.000000  -0.128203   0.000000
   27  O  2  Y   -0.164660  -0.033538   0.000000   0.296075   0.000000
   28  O  2  Z    0.000000   0.000000   0.172202   0.000000  -0.341223
   29  O  2 XX   -0.002294   0.012620   0.000000   0.012245   0.000000
   30  O  2 YY    0.009953  -0.006397   0.000000  -0.015988   0.000000
   31  O  2 ZZ   -0.007659  -0.006223   0.000000   0.003743   0.000000
   32  O  2 XY    0.009241   0.009854   0.000000  -0.007019   0.000000
   33  O  2 XZ    0.000000   0.000000  -0.013447   0.000000   0.010744
   34  O  2 YZ    0.000000   0.000000  -0.013043   0.000000   0.014787
   35  O  3  S   -0.066185   0.050791   0.000000  -0.000882   0.000000
   36  O  3  S    0.138822  -0.107271   0.000000   0.000829   0.000000
   37  O  3  S    0.225750  -0.162093   0.000000  -0.009013   0.000000
   38  O  3  X   -0.162746   0.313234   0.000000   0.166629   0.000000
   39  O  3  Y    0.308184  -0.070553   0.000000   0.409429   0.000000
   40  O  3  Z    0.000000   0.000000   0.283235   0.000000   0.475741
   41  O  3  X   -0.086734   0.180318   0.000000   0.128205   0.000000
   42  O  3  Y    0.164661  -0.033531   0.000000   0.296075   0.000000
   43  O  3  Z    0.000000   0.000000   0.172203   0.000000   0.341223
   44  O  3 XX    0.002294   0.012620   0.000000   0.012245   0.000000
   45  O  3 YY   -0.009953  -0.006398   0.000000  -0.015988   0.000000
   46  O  3 ZZ    0.007659  -0.006222   0.000000   0.003743   0.000000
   47  O  3 XY    0.009242  -0.009853   0.000000   0.007019   0.000000
   48  O  3 XZ    0.000000   0.000000   0.013447   0.000000   0.010744
   49  O  3 YZ    0.000000   0.000000  -0.013043   0.000000  -0.014787

                     16         17         18         19         20
                   -0.2448    -0.2039    -0.0866    -0.0006     0.2058
                     A          A          A          A          A   
    1  S  1  S   -0.000000   0.000000  -0.000000   0.033102   0.000000
    2  S  1  S    0.000000   0.000000   0.000001  -0.224501   0.000000
    3  S  1  S   -0.000003   0.000000  -0.000001   0.359425   0.000000
    4  S  1  S    0.000006   0.000000  -0.000004   0.634162   0.000000
    5  S  1  X   -0.017069   0.000000  -0.205515  -0.000002   0.000000
    6  S  1  Y   -0.000000   0.000000   0.000001  -0.157112   0.000000
    7  S  1  Z    0.000000  -0.215077   0.000000   0.000000   0.249652
    8  S  1  X    0.046645   0.000000   0.623604   0.000006   0.000000
    9  S  1  Y    0.000001   0.000000  -0.000003   0.492289   0.000000
   10  S  1  Z    0.000000   0.631410   0.000000   0.000000  -0.985277
   11  S  1  X    0.161009   0.000000   0.618581  -0.000002   0.000000
   12  S  1  Y    0.000004   0.000000  -0.000004   0.879335   0.000000
   13  S  1  Z    0.000000   0.282646   0.000000   0.000000   1.304766
   14  S  1 XX    0.000001   0.000000   0.000000  -0.062721   0.000000
   15  S  1 YY   -0.000000   0.000000   0.000000  -0.142189   0.000000
   16  S  1 ZZ   -0.000000   0.000000  -0.000000   0.204910   0.000000
   17  S  1 XY   -0.087503   0.000000  -0.200251   0.000000   0.000000
   18  S  1 XZ    0.000000  -0.000000   0.000000   0.000000   0.000000
   19  S  1 YZ    0.000000  -0.085563   0.000000   0.000000  -0.109616
   20  O  2  S    0.010429   0.000000   0.033952   0.056571   0.000000
   21  O  2  S   -0.024364   0.000000  -0.067706  -0.097337   0.000000
   22  O  2  S   -0.069918   0.000000  -0.286586  -0.534880   0.000000
   23  O  2  X    0.459993   0.000000   0.014693   0.254135   0.000000
   24  O  2  Y   -0.171862   0.000000   0.336895   0.168656   0.000000
   25  O  2  Z    0.000000  -0.381350   0.000000   0.000000  -0.023196
   26  O  2  X    0.317005   0.000000   0.001377   0.322465   0.000000
   27  O  2  Y   -0.119692   0.000000   0.294738   0.149847   0.000000
   28  O  2  Z    0.000000  -0.314973   0.000000   0.000000  -0.132322
   29  O  2 XX   -0.013024   0.000000   0.000178  -0.001141   0.000000
   30  O  2 YY    0.012355   0.000000   0.002845  -0.003502   0.000000
   31  O  2 ZZ    0.000670   0.000000  -0.003023   0.004643   0.000000
   32  O  2 XY   -0.007988   0.000000   0.002347   0.004622   0.000000
   33  O  2 XZ    0.000000   0.004517   0.000000   0.000000   0.015120
   34  O  2 YZ    0.000000   0.002078   0.000000   0.000000   0.011290
   35  O  3  S   -0.010429   0.000000  -0.033953   0.056571   0.000000
   36  O  3  S    0.024365   0.000000   0.067704  -0.097341   0.000000
   37  O  3  S    0.069911   0.000000   0.286593  -0.534875   0.000000
   38  O  3  X    0.459991   0.000000   0.014694  -0.254138   0.000000
   39  O  3  Y    0.171860   0.000000  -0.336896   0.168653   0.000000
   40  O  3  Z    0.000000  -0.381349   0.000000   0.000000  -0.023196
   41  O  3  X    0.317001   0.000000   0.001380  -0.322462   0.000000
   42  O  3  Y    0.119692   0.000000  -0.294740   0.149844   0.000000
   43  O  3  Z    0.000000  -0.314973   0.000000   0.000000  -0.132322
   44  O  3 XX    0.013024   0.000000  -0.000178  -0.001140   0.000000
   45  O  3 YY   -0.012355   0.000000  -0.002845  -0.003502   0.000000
   46  O  3 ZZ   -0.000669   0.000000   0.003023   0.004643   0.000000
   47  O  3 XY   -0.007988   0.000000   0.002347  -0.004622   0.000000
   48  O  3 XZ    0.000000  -0.004517   0.000000   0.000000  -0.015120
   49  O  3 YZ    0.000000   0.002078   0.000000   0.000000   0.011290

                     21         22         23         24         25
                    0.2277     0.2428     0.2525     0.4966     0.5030
                     A          A          A          A          A   
    1  S  1  S   -0.033346   0.000002  -0.057075   0.000000   0.000000
    2  S  1  S    0.247688  -0.000015   0.419708   0.000000   0.000000
    3  S  1  S   -0.979521   0.000060  -1.652376   0.000000   0.000000
    4  S  1  S    1.205179  -0.000075   1.995106   0.000000   0.000000
    5  S  1  X   -0.000002   0.268281   0.000010   0.000000   0.000000
    6  S  1  Y   -0.254757  -0.000007   0.130871   0.000000   0.000000
    7  S  1  Z    0.000000   0.000000   0.000000  -0.000000   0.028619
    8  S  1  X    0.000008  -1.043843  -0.000038   0.000000   0.000000
    9  S  1  Y    0.991727   0.000025  -0.484128   0.000000   0.000000
   10  S  1  Z    0.000000   0.000000   0.000000   0.000001  -0.126911
   11  S  1  X   -0.000010   1.400713   0.000056   0.000000   0.000000
   12  S  1  Y   -0.893407  -0.000048   1.047345   0.000000   0.000000
   13  S  1  Z    0.000000   0.000000   0.000000  -0.000001   0.126249
   14  S  1 XX   -0.127585  -0.000003   0.046633   0.000000   0.000000
   15  S  1 YY   -0.019583   0.000001  -0.074223   0.000000   0.000000
   16  S  1 ZZ    0.147167   0.000002   0.027590   0.000000   0.000000
   17  S  1 XY   -0.000001   0.106013   0.000008   0.000000   0.000000
   18  S  1 XZ    0.000000   0.000000   0.000000   0.920873   0.000005
   19  S  1 YZ    0.000000   0.000000   0.000000  -0.000005   0.891682
   20  O  2  S    0.017820   0.005476   0.020370   0.000000   0.000000
   21  O  2  S   -0.075045   0.039062   0.016716   0.000000   0.000000
   22  O  2  S   -0.020387  -0.337831  -0.613525   0.000000   0.000000
   23  O  2  X    0.092620  -0.181421  -0.184027   0.000000   0.000000
   24  O  2  Y    0.067023  -0.103126  -0.157929   0.000000   0.000000
   25  O  2  Z    0.000000   0.000000   0.000000  -0.276848  -0.312265
   26  O  2  X    0.085246  -0.111390   0.116575   0.000000   0.000000
   27  O  2  Y    0.156883   0.033892   0.017984   0.000000   0.000000
   28  O  2  Z    0.000000   0.000000   0.000000   0.094541   0.115285
   29  O  2 XX    0.012256   0.004169  -0.025567   0.000000   0.000000
   30  O  2 YY   -0.013568  -0.018056  -0.001514   0.000000   0.000000
   31  O  2 ZZ    0.001312   0.013887   0.027081   0.000000   0.000000
   32  O  2 XY    0.002426  -0.022388  -0.034438   0.000000   0.000000
   33  O  2 XZ    0.000000   0.000000   0.000000  -0.020343  -0.045600
   34  O  2 YZ    0.000000   0.000000   0.000000  -0.046864  -0.019194
   35  O  3  S    0.017820  -0.005477   0.020370   0.000000   0.000000
   36  O  3  S   -0.075045  -0.039070   0.016706   0.000000   0.000000
   37  O  3  S   -0.020392   0.337887  -0.613487   0.000000   0.000000
   38  O  3  X   -0.092617  -0.181440   0.184008   0.000000   0.000000
   39  O  3  Y    0.067021   0.103141  -0.157922   0.000000   0.000000
   40  O  3  Z    0.000000   0.000000   0.000000   0.276852  -0.312262
   41  O  3  X   -0.085244  -0.111379  -0.116576   0.000000   0.000000
   42  O  3  Y    0.156884  -0.033894   0.017977   0.000000   0.000000
   43  O  3  Z    0.000000   0.000000   0.000000  -0.094543   0.115284
   44  O  3 XX    0.012256  -0.004167  -0.025567   0.000000   0.000000
   45  O  3 YY   -0.013568   0.018055  -0.001513   0.000000   0.000000
   46  O  3 ZZ    0.001312  -0.013889   0.027080   0.000000   0.000000
   47  O  3 XY   -0.002426  -0.022391   0.034436   0.000000   0.000000
   48  O  3 XZ    0.000000   0.000000   0.000000  -0.020343   0.045600
   49  O  3 YZ    0.000000   0.000000   0.000000   0.046865  -0.019193

                     26         27         28         29         30
                    0.5214     0.6218     0.6945     0.7808     0.8281
                     A          A          A          A          A   
    1  S  1  S    0.000598   0.006708   0.000000   0.001953   0.000000
    2  S  1  S   -0.003771  -0.049887  -0.000000  -0.018090   0.000000
    3  S  1  S    0.013654   0.023310   0.000002   0.077383   0.000000
    4  S  1  S   -0.049713   0.928935  -0.000008   0.146956   0.000000
    5  S  1  X    0.000000  -0.000001  -0.116968   0.000000   0.000000
    6  S  1  Y   -0.030840  -0.100749   0.000000  -0.008673   0.000000
    7  S  1  Z    0.000000   0.000000   0.000000   0.000000  -0.000000
    8  S  1  X   -0.000000   0.000003   0.617762  -0.000001   0.000000
    9  S  1  Y    0.125450   0.480330  -0.000002   0.091248   0.000000
   10  S  1  Z    0.000000   0.000000   0.000000   0.000000  -0.000000
   11  S  1  X   -0.000000   0.000002   0.126928   0.000000   0.000000
   12  S  1  Y   -0.173200   0.266013  -0.000003   0.336039   0.000000
   13  S  1  Z    0.000000   0.000000   0.000000   0.000000  -0.000010
   14  S  1 XX    0.779420   0.443416  -0.000002  -0.447066   0.000000
   15  S  1 YY   -0.707177   0.473102  -0.000001   0.424721   0.000000
   16  S  1 ZZ   -0.072243  -0.916518   0.000003   0.022345   0.000000
   17  S  1 XY   -0.000000   0.000005   0.788528  -0.000001   0.000000
   18  S  1 XZ    0.000000   0.000000   0.000000   0.000000   0.407117
   19  S  1 YZ    0.000000   0.000000   0.000000   0.000000  -0.000009
   20  O  2  S   -0.002212   0.069869   0.076242  -0.002654   0.000000
   21  O  2  S    0.006326  -0.261868  -0.284267   0.046878   0.000000
   22  O  2  S    0.037417  -0.311220  -0.215421  -0.151590   0.000000
   23  O  2  X   -0.214281  -0.033750  -0.169662  -0.480861   0.000000
   24  O  2  Y    0.292983  -0.095853  -0.164576   0.298565   0.000000
   25  O  2  Z    0.000000   0.000000   0.000000   0.000000   0.590573
   26  O  2  X    0.048485   0.446217   0.669286   0.624617   0.000000
   27  O  2  Y   -0.081875   0.472996   0.641692  -0.377559   0.000000
   28  O  2  Z    0.000000   0.000000   0.000000   0.000000  -0.803224
   29  O  2 XX   -0.054204   0.015590   0.007743   0.029974   0.000000
   30  O  2 YY    0.058240   0.006880   0.005884  -0.043292   0.000000
   31  O  2 ZZ   -0.004036  -0.022470  -0.013627   0.013318   0.000000
   32  O  2 XY    0.004566   0.002039   0.027575   0.020888   0.000000
   33  O  2 XZ    0.000000   0.000000   0.000000   0.000000  -0.040291
   34  O  2 YZ    0.000000   0.000000   0.000000   0.000000  -0.032548
   35  O  3  S   -0.002212   0.069869  -0.076243  -0.002653   0.000000
   36  O  3  S    0.006327  -0.261871   0.284271   0.046877   0.000000
   37  O  3  S    0.037417  -0.311211   0.215424  -0.151590   0.000000
   38  O  3  X    0.214282   0.033745  -0.169663   0.480858   0.000000
   39  O  3  Y    0.292984  -0.095853   0.164579   0.298564   0.000000
   40  O  3  Z    0.000000   0.000000   0.000000   0.000000  -0.590595
   41  O  3  X   -0.048485  -0.446205   0.669291  -0.624613   0.000000
   42  O  3  Y   -0.081874   0.472990  -0.641698  -0.377557   0.000000
   43  O  3  Z    0.000000   0.000000   0.000000   0.000000   0.803256
   44  O  3 XX   -0.054204   0.015590  -0.007743   0.029974   0.000000
   45  O  3 YY    0.058240   0.006880  -0.005884  -0.043291   0.000000
   46  O  3 ZZ   -0.004036  -0.022470   0.013627   0.013318   0.000000
   47  O  3 XY   -0.004566  -0.002039   0.027574  -0.020888   0.000000
   48  O  3 XZ    0.000000   0.000000   0.000000   0.000000  -0.040292
   49  O  3 YZ    0.000000   0.000000   0.000000   0.000000   0.032549

                     31         32         33         34         35
                    0.8327     0.8496     0.9001     0.9559     1.4267
                     A          A          A          A          A   
    1  S  1  S    0.000000   0.013356  -0.000000   0.000000  -0.000000
    2  S  1  S    0.000000  -0.119358   0.000000  -0.000000   0.000002
    3  S  1  S    0.000000   0.698639  -0.000000  -0.000000   0.000057
    4  S  1  S    0.000000  -0.159965   0.000000   0.000005  -0.000342
    5  S  1  X    0.000000   0.000000   0.011011   0.014519   0.063670
    6  S  1  Y    0.000000  -0.020020   0.000000  -0.000000   0.000014
    7  S  1  Z    0.000513   0.000000   0.000000   0.000000   0.000000
    8  S  1  X    0.000000  -0.000000   0.074903   0.038802  -0.445274
    9  S  1  Y    0.000000   0.286956  -0.000000   0.000002  -0.000088
   10  S  1  Z   -0.010890   0.000000   0.000000   0.000000   0.000000
   11  S  1  X    0.000000   0.000000   0.181192  -0.637951  -0.505544
   12  S  1  Y    0.000000  -0.310405   0.000000   0.000001  -0.000156
   13  S  1  Z   -0.527178   0.000000   0.000000   0.000000   0.000000
   14  S  1 XX    0.000000  -0.071558  -0.000000   0.000001  -0.000029
   15  S  1 YY    0.000000  -0.349457   0.000000  -0.000000  -0.000038
   16  S  1 ZZ    0.000000   0.421016  -0.000000  -0.000001   0.000067
   17  S  1 XY    0.000000   0.000001  -0.524747  -0.590503  -0.301958
   18  S  1 XZ   -0.000007   0.000000   0.000000   0.000000   0.000000
   19  S  1 YZ   -0.465041   0.000000   0.000000   0.000000   0.000000
   20  O  2  S    0.000000  -0.005369  -0.018240  -0.004954   0.076485
   21  O  2  S    0.000000   0.036107   0.078995  -0.094091  -1.178776
   22  O  2  S    0.000000   0.061880  -0.001980   0.370097   1.648409
   23  O  2  X    0.000000  -0.364794   0.019824  -0.600790   0.115646
   24  O  2  Y    0.000000  -0.475377  -0.627678   0.016721   0.030679
   25  O  2  Z   -0.572728   0.000000   0.000000   0.000000   0.000000
   26  O  2  X    0.000000   0.387847  -0.221849   0.744732  -0.497458
   27  O  2  Y    0.000000   0.664839   0.696027  -0.314956  -0.357453
   28  O  2  Z    0.853323   0.000000   0.000000   0.000000   0.000000
   29  O  2 XX    0.000000  -0.024979  -0.019806   0.058661  -0.131764
   30  O  2 YY    0.000000   0.036113   0.015159  -0.034034  -0.015597
   31  O  2 ZZ    0.000000  -0.011134   0.004647  -0.024627   0.147361
   32  O  2 XY    0.000000   0.047147   0.005259  -0.027490  -0.109717
   33  O  2 XZ    0.032055   0.000000   0.000000   0.000000   0.000000
   34  O  2 YZ    0.039344   0.000000   0.000000   0.000000   0.000000
   35  O  3  S    0.000000  -0.005369   0.018241   0.004953  -0.076459
   36  O  3  S    0.000000   0.036111  -0.078999   0.094105   1.178326
   37  O  3  S    0.000000   0.061877   0.001983  -0.370115  -1.647646
   38  O  3  X    0.000000   0.364794   0.019825  -0.600793   0.115657
   39  O  3  Y    0.000000  -0.475377   0.627678  -0.016722  -0.030669
   40  O  3  Z   -0.572706   0.000000   0.000000   0.000000   0.000000
   41  O  3  X    0.000000  -0.387846  -0.221850   0.744733  -0.497318
   42  O  3  Y    0.000000   0.664839  -0.696026   0.314960   0.357307
   43  O  3  Z    0.853293   0.000000   0.000000   0.000000   0.000000
   44  O  3 XX    0.000000  -0.024979   0.019806  -0.058661   0.131773
   45  O  3 YY    0.000000   0.036113  -0.015159   0.034034   0.015582
   46  O  3 ZZ    0.000000  -0.011134  -0.004647   0.024627  -0.147355
   47  O  3 XY    0.000000  -0.047147   0.005259  -0.027491  -0.109663
   48  O  3 XZ   -0.032054   0.000000   0.000000   0.000000   0.000000
   49  O  3 YZ    0.039343   0.000000   0.000000   0.000000   0.000000

                     36         37         38         39         40
                    1.4409     2.0902     2.0907     2.1015     2.1049
                     A          A          A          A          A   
    1  S  1  S    0.000231  -0.000000   0.000000   0.001869   0.000000
    2  S  1  S    0.003116   0.000000   0.000000  -0.013480   0.000000
    3  S  1  S    0.345179  -0.000001   0.000000   0.077658   0.000000
    4  S  1  S   -1.932529   0.000002   0.000000  -0.252245   0.000000
    5  S  1  X   -0.000012  -0.018658   0.000000  -0.000000   0.000000
    6  S  1  Y    0.079624  -0.000000   0.000000  -0.002242   0.000000
    7  S  1  Z    0.000000   0.000000  -0.007118   0.000000   0.000000
    8  S  1  X    0.000081   0.057841   0.000000   0.000000   0.000000
    9  S  1  Y   -0.483100   0.000000   0.000000  -0.012782   0.000000
   10  S  1  Z    0.000000   0.000000   0.023975   0.000000  -0.000000
   11  S  1  X    0.000085   0.042966   0.000000   0.000000   0.000000
   12  S  1  Y   -0.890746   0.000001   0.000000  -0.146278   0.000000
   13  S  1  Z    0.000000   0.000000   0.027537   0.000000  -0.000000
   14  S  1 XX   -0.161354  -0.000000   0.000000   0.004700   0.000000
   15  S  1 YY   -0.215263  -0.000000   0.000000   0.043722   0.000000
   16  S  1 ZZ    0.376617   0.000000   0.000000  -0.048422   0.000000
   17  S  1 XY    0.000052  -0.035818   0.000000  -0.000000   0.000000
   18  S  1 XZ    0.000000   0.000000  -0.000000   0.000000   0.009305
   19  S  1 YZ    0.000000   0.000000  -0.008986   0.000000  -0.000000
   20  O  2  S    0.071524  -0.000451   0.000000   0.009229   0.000000
   21  O  2  S   -1.236042   0.016258   0.000000  -0.146989   0.000000
   22  O  2  S    2.115621  -0.034667   0.000000   0.246408   0.000000
   23  O  2  X   -0.030532   0.020786   0.000000   0.033926   0.000000
   24  O  2  Y    0.027660  -0.012405   0.000000   0.001962   0.000000
   25  O  2  Z    0.000000   0.000000   0.024745   0.000000   0.027554
   26  O  2  X   -0.393574  -0.027423   0.000000  -0.082194   0.000000
   27  O  2  Y   -0.402138   0.021564   0.000000  -0.023561   0.000000
   28  O  2  Z    0.000000   0.000000  -0.041518   0.000000  -0.043379
   29  O  2 XX    0.025292   0.145810   0.000000  -0.392877   0.000000
   30  O  2 YY   -0.038840  -0.607367   0.000000  -0.242757   0.000000
   31  O  2 ZZ    0.013548   0.461557   0.000000   0.635634   0.000000
   32  O  2 XY   -0.152806   0.316728   0.000000   0.292737   0.000000
   33  O  2 XZ    0.000000   0.000000  -0.428037   0.000000   0.591273
   34  O  2 YZ    0.000000   0.000000   0.562730   0.000000  -0.388777
   35  O  3  S    0.071551   0.000451   0.000000   0.009229   0.000000
   36  O  3  S   -1.236465  -0.016256   0.000000  -0.146989   0.000000
   37  O  3  S    2.116210   0.034662   0.000000   0.246408   0.000000
   38  O  3  X    0.030486   0.020786   0.000000  -0.033925   0.000000
   39  O  3  Y    0.027670   0.012405   0.000000   0.001962   0.000000
   40  O  3  Z    0.000000   0.000000   0.024745   0.000000  -0.027555
   41  O  3  X    0.393761  -0.027424   0.000000   0.082193   0.000000
   42  O  3  Y   -0.402262  -0.021564   0.000000  -0.023561   0.000000
   43  O  3  Z    0.000000   0.000000  -0.041518   0.000000   0.043380
   44  O  3 XX    0.025241  -0.145806   0.000000  -0.392882   0.000000
   45  O  3 YY   -0.038845   0.607371   0.000000  -0.242749   0.000000
   46  O  3 ZZ    0.013604  -0.461566   0.000000   0.635630   0.000000
   47  O  3 XY    0.152847   0.316731   0.000000  -0.292734   0.000000
   48  O  3 XZ    0.000000   0.000000   0.428048   0.000000   0.591266
   49  O  3 YZ    0.000000   0.000000   0.562737   0.000000   0.388767

                     41         42         43         44         45
                    2.1674     2.2155     2.2222     2.2785     2.5956
                     A          A          A          A          A   
    1  S  1  S    0.000000  -0.000000   0.000000  -0.002947  -0.030767
    2  S  1  S    0.000000   0.000001   0.000000   0.024673   0.242215
    3  S  1  S    0.000000  -0.000003   0.000000  -0.086239  -0.595316
    4  S  1  S    0.000000   0.000004   0.000000  -0.063440  -0.702662
    5  S  1  X    0.000000  -0.023110   0.000000   0.000000   0.000001
    6  S  1  Y    0.000000   0.000000   0.000000  -0.023059   0.159088
    7  S  1  Z   -0.000000   0.000000  -0.051922   0.000000   0.000000
    8  S  1  X    0.000000   0.031933   0.000000  -0.000000  -0.000003
    9  S  1  Y    0.000000  -0.000000   0.000000   0.037629  -0.810157
   10  S  1  Z    0.000000   0.000000   0.174559   0.000000   0.000000
   11  S  1  X    0.000000   0.059395   0.000000  -0.000000  -0.000002
   12  S  1  Y    0.000000   0.000003   0.000000   0.041907  -0.156019
   13  S  1  Z    0.000000   0.000000   0.082027   0.000000   0.000000
   14  S  1 XX    0.000000  -0.000000   0.000000  -0.372844  -0.162330
   15  S  1 YY    0.000000   0.000001   0.000000   0.347683  -0.212437
   16  S  1 ZZ    0.000000  -0.000000   0.000000   0.025161   0.374766
   17  S  1 XY    0.000000   0.029299   0.000000  -0.000000  -0.000003
   18  S  1 XZ   -0.304705   0.000000   0.000001   0.000000   0.000000
   19  S  1 YZ    0.000001   0.000000   0.314821   0.000000   0.000000
   20  O  2  S    0.000000   0.012409   0.000000   0.006897   0.007893
   21  O  2  S    0.000000  -0.181619   0.000000  -0.095614  -0.448191
   22  O  2  S    0.000000   0.202526   0.000000   0.110589   0.934491
   23  O  2  X    0.000000   0.131433   0.000000   0.020715   0.027549
   24  O  2  Y    0.000000  -0.029726   0.000000   0.046110   0.037709
   25  O  2  Z   -0.048316   0.000000   0.043265   0.000000   0.000000
   26  O  2  X    0.000000  -0.258112   0.000000  -0.002251  -0.405615
   27  O  2  Y    0.000000   0.063105   0.000000  -0.133576  -0.403031
   28  O  2  Z    0.099168   0.000000  -0.123211   0.000000   0.000000
   29  O  2 XX    0.000000   0.661455   0.000000  -0.574874   0.219357
   30  O  2 YY    0.000000  -0.315694   0.000000   0.675136   0.118358
   31  O  2 ZZ    0.000000  -0.345761   0.000000  -0.100262  -0.337714
   32  O  2 XY    0.000000  -0.257277   0.000000   0.001049   0.695376
   33  O  2 XZ   -0.396148   0.000000   0.575589   0.000000   0.000000
   34  O  2 YZ   -0.598803   0.000000   0.441485   0.000000   0.000000
   35  O  3  S    0.000000  -0.012409   0.000000   0.006898   0.007893
   36  O  3  S    0.000000   0.181622   0.000000  -0.095615  -0.448190
   37  O  3  S    0.000000  -0.202532   0.000000   0.110589   0.934486
   38  O  3  X    0.000000   0.131433   0.000000  -0.020715  -0.027550
   39  O  3  Y    0.000000   0.029726   0.000000   0.046110   0.037709
   40  O  3  Z    0.048316   0.000000   0.043265   0.000000   0.000000
   41  O  3  X    0.000000  -0.258113   0.000000   0.002251   0.405614
   42  O  3  Y    0.000000  -0.063105   0.000000  -0.133575  -0.403027
   43  O  3  Z   -0.099169   0.000000  -0.123210   0.000000   0.000000
   44  O  3 XX    0.000000  -0.661455   0.000000  -0.574872   0.219357
   45  O  3 YY    0.000000   0.315698   0.000000   0.675134   0.118355
   46  O  3 ZZ    0.000000   0.345757   0.000000  -0.100262  -0.337712
   47  O  3 XY    0.000000  -0.257279   0.000000  -0.001049  -0.695371
   48  O  3 XZ   -0.396150   0.000000  -0.575587   0.000000   0.000000
   49  O  3 YZ    0.598805   0.000000   0.441483   0.000000   0.000000

                     46
                    2.7187
                     A   
    1  S  1  S   -0.000000
    2  S  1  S    0.000001
    3  S  1  S    0.000000
    4  S  1  S   -0.000008
    5  S  1  X   -0.178983
    6  S  1  Y    0.000001
    7  S  1  Z    0.000000
    8  S  1  X    0.922811
    9  S  1  Y   -0.000004
   10  S  1  Z    0.000000
   11  S  1  X    0.148197
   12  S  1  Y   -0.000004
   13  S  1  Z    0.000000
   14  S  1 XX   -0.000001
   15  S  1 YY   -0.000001
   16  S  1 ZZ    0.000002
   17  S  1 XY    0.725737
   18  S  1 XZ    0.000000
   19  S  1 YZ    0.000000
   20  O  2  S   -0.004681
   21  O  2  S    0.526556
   22  O  2  S   -1.051185
   23  O  2  X   -0.037555
   24  O  2  Y   -0.006899
   25  O  2  Z    0.000000
   26  O  2  X    0.521443
   27  O  2  Y    0.470999
   28  O  2  Z    0.000000
   29  O  2 XX   -0.212579
   30  O  2 YY   -0.229665
   31  O  2 ZZ    0.442244
   32  O  2 XY   -0.669654
   33  O  2 XZ    0.000000
   34  O  2 YZ    0.000000
   35  O  3  S    0.004681
   36  O  3  S   -0.526563
   37  O  3  S    1.051200
   38  O  3  X   -0.037555
   39  O  3  Y    0.006900
   40  O  3  Z    0.000000
   41  O  3  X    0.521448
   42  O  3  Y   -0.471004
   43  O  3  Z    0.000000
   44  O  3 XX    0.212580
   45  O  3 YY    0.229666
   46  O  3 ZZ   -0.442246
   47  O  3 XY   -0.669658
   48  O  3 XZ    0.000000
   49  O  3 YZ    0.000000
 ...... END OF RHF CALCULATION ......
 STEP CPU TIME =     2.64 TOTAL CPU TIME =          2.8 (      0.0 MIN)
 TOTAL WALL CLOCK TIME=          2.8 SECONDS, CPU UTILIZATION IS    98.24%

     ---------------------------------------------------------------------
     PROPERTIES FOR THE PBE      DFT FUNCTIONAL (RHF  TYPE) DENSITY MATRIX
     ---------------------------------------------------------------------

          -----------------
          ENERGY COMPONENTS
          -----------------

         WAVEFUNCTION NORMALIZATION =       1.0000000000

                ONE ELECTRON ENERGY =    -953.8348550921
                TWO ELECTRON ENERGY =     306.0073139964
           NUCLEAR REPULSION ENERGY =      99.6357527339
                                      ------------------
                       TOTAL ENERGY =    -548.1917883618

 ELECTRON-ELECTRON POTENTIAL ENERGY =     306.0073139964
  NUCLEUS-ELECTRON POTENTIAL ENERGY =   -1500.9891452036
   NUCLEUS-NUCLEUS POTENTIAL ENERGY =      99.6357527339
                                      ------------------
             TOTAL POTENTIAL ENERGY =   -1095.3460784732
               TOTAL KINETIC ENERGY =     547.1542901115
                 VIRIAL RATIO (V/T) =       2.0018961713

          ---------------------------------------
          MULLIKEN AND LOWDIN POPULATION ANALYSES
          ---------------------------------------

     ATOMIC MULLIKEN POPULATION IN EACH MOLECULAR ORBITAL

                      1          2          3          4          5

                  2.000000   2.000000   2.000000   2.000000   2.000000

    1             1.999967   0.000471   0.001358   2.000524   2.000240
    2             0.000016   0.964187   1.034898  -0.000262  -0.000120
    3             0.000016   1.035341   0.963744  -0.000262  -0.000120

                      6          7          8          9         10

                  2.000000   2.000000   2.000000   2.000000   2.000000

    1             2.000014   2.000242   0.669660   0.267917   1.269981
    2            -0.000007  -0.000121   0.665165   0.866048   0.365009
    3            -0.000007  -0.000121   0.665175   0.866035   0.365010

                     11         12         13         14         15

                  2.000000   2.000000   2.000000   2.000000   2.000000

    1             0.634974   0.866169   1.151166   0.234115   0.051047
    2             0.682494   0.566933   0.424416   0.882940   0.974476
    3             0.682531   0.566899   0.424418   0.882945   0.974476

                     16

                  2.000000

    1             0.151831
    2             0.924090
    3             0.924079

               ----- POPULATIONS IN EACH AO -----
                             MULLIKEN      LOWDIN
              1  S  1  S      1.99983     1.99925
              2  S  1  S      1.99223     1.88597
              3  S  1  S      1.34022     0.68201
              4  S  1  S      0.52700     0.46597
              5  S  1  X      1.99372     1.95849
              6  S  1  Y      1.99466     1.96446
              7  S  1  Z      1.99395     1.96177
              8  S  1  X      0.83400     0.71948
              9  S  1  Y      1.00510     0.90269
             10  S  1  Z      0.90995     0.81542
             11  S  1  X      0.12318     0.24043
             12  S  1  Y      0.07939     0.24986
             13  S  1  Z      0.23296     0.33841
             14  S  1 XX      0.02220     0.29022
             15  S  1 YY      0.08139     0.29399
             16  S  1 ZZ      0.10453     0.27355
             17  S  1 XY      0.05105     0.12511
             18  S  1 XZ      0.01432     0.06004
             19  S  1 YZ      0.00000     0.01380
             20  O  2  S      1.99563     1.97282
             21  O  2  S      0.95909     0.70436
             22  O  2  S      0.96272     0.54521
             23  O  2  X      1.03528     1.00301
             24  O  2  Y      0.89104     0.85721
             25  O  2  Z      0.83984     0.80943
             26  O  2  X      0.56569     0.63506
             27  O  2  Y      0.53122     0.62677
             28  O  2  Z      0.55461     0.58955
             29  O  2 XX      0.00174     0.20381
             30  O  2 YY      0.00326     0.20657
             31  O  2 ZZ      0.00560     0.20870
             32  O  2 XY      0.00206     0.01074
             33  O  2 XZ      0.00238     0.00309
             34  O  2 YZ      0.00000     0.00321
             35  O  3  S      1.99563     1.97282
             36  O  3  S      0.95909     0.70436
             37  O  3  S      0.96272     0.54521
             38  O  3  X      1.03528     1.00301
             39  O  3  Y      0.89104     0.85721
             40  O  3  Z      0.83985     0.80943
             41  O  3  X      0.56569     0.63506
             42  O  3  Y      0.53122     0.62677
             43  O  3  Z      0.55461     0.58955
             44  O  3 XX      0.00174     0.20381
             45  O  3 YY      0.00326     0.20657
             46  O  3 ZZ      0.00560     0.20870
             47  O  3 XY      0.00206     0.01074
             48  O  3 XZ      0.00238     0.00309
             49  O  3 YZ      0.00000     0.00321

          ----- MULLIKEN ATOMIC OVERLAP POPULATIONS -----
          (OFF-DIAGONAL ELEMENTS NEED TO BE MULTIPLIED BY 2)

             1           2           3

    1   14.6317517
    2    0.3339565   8.1374649
    3    0.3339687  -0.1212583   8.1374495

          TOTAL MULLIKEN AND LOWDIN ATOMIC POPULATIONS
       ATOM         MULL.POP.    CHARGE          LOW.POP.     CHARGE
    1 S            15.299677    0.700323        15.240938    0.759062
    2 O             8.350163   -0.350163         8.379532   -0.379532
    3 O             8.350160   -0.350160         8.379530   -0.379530

          MULLIKEN SPHERICAL HARMONIC POPULATIONS
       ATOM           S       P       D      F      G      H      I    TOTAL
    1 S             5.86    9.17    0.27   0.00   0.00   0.00   0.00   15.30
    2 O             3.92    4.42    0.02   0.00   0.00   0.00   0.00    8.35
    3 O             3.92    4.42    0.02   0.00   0.00   0.00   0.00    8.35

          -------------------------------
          BOND ORDER AND VALENCE ANALYSIS     BOND ORDER THRESHOLD=0.050
          -------------------------------

                   BOND                       BOND                       BOND
  ATOM PAIR DIST  ORDER      ATOM PAIR DIST  ORDER      ATOM PAIR DIST  ORDER
    1   2  1.600  1.722        1   3  1.600  1.722        2   3  2.263  0.366

                       TOTAL       BONDED        FREE
      ATOM            VALENCE     VALENCE     VALENCE
    1 S                 3.444       3.444       0.000
    2 O                 2.088       2.088      -0.000
    3 O                 2.088       2.088       0.000

          ---------------------
          ELECTROSTATIC MOMENTS
          ---------------------

 POINT   1           X           Y           Z (BOHR)    CHARGE
                 0.000000   -0.000000    0.000000        0.00 (A.U.)
         DX          DY          DZ         /D/  (DEBYE)
    -0.000006   -3.118523    0.000000    3.118523
 ...... END OF PROPERTY EVALUATION ......
 STEP CPU TIME =     0.00 TOTAL CPU TIME =          2.8 (      0.0 MIN)
 TOTAL WALL CLOCK TIME=          2.8 SECONDS, CPU UTILIZATION IS    98.24%
                580000  WORDS OF DYNAMIC MEMORY USED
 EXECUTION OF GAMESS TERMINATED NORMALLY Sun Sep 29 10:50:52 2019
 DDI: 263640 bytes (0.3 MB / 0 MWords) used by master data server.

 ----------------------------------------
 CPU timing information for all processes
 ========================================
 0: 2.725 + 0.79 = 2.804
 ----------------------------------------
 ddikick.x: exited gracefully.
----- accounting info -----
Files used on the master node crcfe02.crc.nd.edu were:
-rw-r--r-- 1 cdrisko campus     207 Sep 29 10:50 /afs/crc.nd.edu/user/c/cdrisko/SO2.F05
-rw-r--r-- 1 cdrisko campus   37566 Sep 29 10:50 /afs/crc.nd.edu/user/c/cdrisko/SO2.F07
-rw-r--r-- 1 cdrisko campus 4320384 Sep 29 10:50 /afs/crc.nd.edu/user/c/cdrisko/SO2.F08
-rw-r--r-- 1 cdrisko campus 1766880 Sep 29 10:50 /afs/crc.nd.edu/user/c/cdrisko/SO2.F10
Sun Sep 29 10:50:55 EDT 2019
0.464u 0.232s 0:06.51 10.5%	0+0k 0+24io 0pf+0w
