----- GAMESS execution script 'rungms' -----
This job is running on host crcfe02.crc.nd.edu
under operating system Linux at Sun Sep 29 10:46:12 EDT 2019
Available scratch disk space (Kbyte units) at beginning of the job is
Filesystem      1K-blocks  Used  Available Use% Mounted on
AFS            2147483647     0 2147483647   0% /afs
GAMESS temporary binary files will be written to /afs/crc.nd.edu/user/c/cdrisko
GAMESS supplementary output files will be written to /afs/crc.nd.edu/user/c/cdrisko/scr
Copying input file SO2.inp to your run's scratch directory...

 Distributed Data Interface kickoff program.
 Initiating 1 compute processes on 1 nodes to run the following command:
 /afs/crc.nd.edu/x86_64_linux/g/gamess/nov-2017/gamess/gamess.00.x SO2 

          ******************************************************
          *         GAMESS VERSION = 11 NOV 2017 (R3)         *
          *             FROM IOWA STATE UNIVERSITY             *
          * M.W.SCHMIDT, K.K.BALDRIDGE, J.A.BOATZ, S.T.ELBERT, *
          *   M.S.GORDON, J.H.JENSEN, S.KOSEKI, N.MATSUNAGA,   *
          *          K.A.NGUYEN, S.J.SU, T.L.WINDUS,           *
          *       TOGETHER WITH M.DUPUIS, J.A.MONTGOMERY       *
          *         J.COMPUT.CHEM.  14, 1347-1363(1993)        *
          **************** 64 BIT INTEL VERSION ****************

  SINCE 1993, STUDENTS AND POSTDOCS WORKING AT IOWA STATE UNIVERSITY
  AND ALSO IN THEIR VARIOUS JOBS AFTER LEAVING ISU HAVE MADE IMPORTANT
  CONTRIBUTIONS TO THE CODE:
     IVANA ADAMOVIC, CHRISTINE AIKENS, YURI ALEXEEV, POOJA ARORA,
     ANDREY ASADCHEV, ROB BELL, PRADIPTA BANDYOPADHYAY, JONATHAN BENTZ,
     BRETT BODE, KURT BRORSEN, CALEB CARLIN, GALINA CHABAN, WEI CHEN,
     CHEOL HO CHOI, PAUL DAY, ALBERT DEFUSCO, NUWAN DESILVA, TIM DUDLEY,
     DMITRI FEDOROV, ALEX FINDLATER, GRAHAM FLETCHER, MARK FREITAG,
     KURT GLAESEMANN, ANASTASIA GUININA,
     DAN KEMP, GRANT MERRILL, NORIYUKI MINEZAWA, JONATHAN MULLIN,
     TAKESHI NAGATA, SEAN NEDD, HEATHER NETZLOFF, BOSILJKA NJEGIC, RYAN OLSON,
     MIKE PAK, BUU PHAM,
     SPENCER PRUITT, LUKE ROSKOP, JIM SHOEMAKER, LYUDMILA SLIPCHENKO,
     TONY SMITH, SAROM SOK LEANG, JIE SONG, TETSUYA TAKETSUGU, SIMON WEBB,
     PENG XU, SOOHAENG YOO, FEDERICO ZAHARIEV

  ADDITIONAL CODE HAS BEEN PROVIDED BY COLLABORATORS IN OTHER GROUPS:
     IOWA STATE UNIVERSITY:
          JOE IVANIC, AARON WEST, LAIMUTIS BYTAUTAS, KLAUS RUEDENBERG
     UNIVERSITY OF TOKYO: KIMIHIKO HIRAO, TAKAHITO NAKAJIMA,
          TAKAO TSUNEDA, MUNEAKI KAMIYA, SUSUMU YANAGISAWA,
          KIYOSHI YAGI, MAHITO CHIBA, SEIKEN TOKURA, NAOAKI KAWAKAMI
     UNIVERSITY OF AARHUS: FRANK JENSEN
     UNIVERSITY OF IOWA: VISVALDAS KAIRYS, HUI LI
     NATIONAL INST. OF STANDARDS AND TECHNOLOGY: WALT STEVENS, DAVID GARMER
     UNIVERSITY OF PISA: BENEDETTA MENNUCCI, JACOPO TOMASI
     UNIVERSITY OF MEMPHIS: HENRY KURTZ, PRAKASHAN KORAMBATH
     UNIVERSITY OF ALBERTA: TOBY ZENG, MARIUSZ KLOBUKOWSKI
     UNIVERSITY OF NEW ENGLAND: MARK SPACKMAN
     MIE UNIVERSITY: HIROAKI UMEDA
     NAT. INST. OF ADVANCED INDUSTRIAL SCIENCE AND TECHNOLOGY: KAZUO KITAURA
     MICHIGAN STATE UNIVERSITY:
          KAROL KOWALSKI, MARTA WLOCH, JEFFREY GOUR, JESSE LUTZ,
          WEI LI, PIOTR PIECUCH
     UNIVERSITY OF SILESIA: MONIKA MUSIAL, STANISLAW KUCHARSKI
     FACULTES UNIVERSITAIRES NOTRE-DAME DE LA PAIX:
          OLIVIER QUINET, BENOIT CHAMPAGNE
     UNIVERSITY OF CALIFORNIA - SANTA BARBARA: BERNARD KIRTMAN
     INSTITUTE FOR MOLECULAR SCIENCE:
          KAZUYA ISHIMURA, MICHIO KATOUDA, AND SHIGERU NAGASE
     UNIVERSITY OF NOTRE DAME: ANNA POMOGAEVA, DAN CHIPMAN
     KYUSHU UNIVERSITY:
          HARUYUKI NAKANO,
          FENG LONG GU, JACEK KORCHOWIEC, MARCIN MAKOWSKI, AND YURIKO AOKI,
          HIROTOSHI MORI AND EISAKU MIYOSHI
     PENNSYLVANIA STATE UNIVERSITY:
          TZVETELIN IORDANOV, CHET SWALINA, JONATHAN SKONE,
          SHARON HAMMES-SCHIFFER
     WASEDA UNIVERSITY:
          MASATO KOBAYASHI, TOMOKO AKAMA, TSUGUKI TOUMA,
          TAKESHI YOSHIKAWA, YASUHIRO IKABATA, JUNJI SEINO,
          YUYA NAKAJIMA, HIROMI NAKAI
     NANJING UNIVERSITY: SHUHUA LI
     UNIVERSITY OF NEBRASKA:
          PEIFENG SU, DEJUN SI, NANDUN THELLAMUREGE, YALI WANG, HUI LI
     UNIVERSITY OF ZURICH: ROBERTO PEVERATI, KIM BALDRIDGE
     N. COPERNICUS UNIVERSITY AND JACKSON STATE UNIVERSITY:
          MARIA BARYSZ
     UNIVERSITY OF COPENHAGEN: Jimmy Kromann, CASPER STEINMANN
     TOKYO INSTITUTE OF TECHNOLOGY: HIROYA NAKATA
     NAGOYA UNIVERSITY: YOSHIO NISHIMOTO, STEPHAN IRLE
     MOSCOW STATE UNIVERSITY: VLADIMIR MIRONOV

 EXECUTION OF GAMESS BEGUN Sun Sep 29 10:46:12 2019

            ECHO OF THE FIRST FEW INPUT CARDS -
 INPUT CARD> $BASIS GBASIS=PCSEG-1 $END                                                     
 INPUT CARD> $CONTRL COORD=ZMT ISPHER=1 RUNTYP=ENERGY DFTTYP=PBE MULT=1 $END                
 INPUT CARD>                                                                                
 INPUT CARD> $DATA                                                                          
 INPUT CARD>Title SO2 single-point calculation template with Z-Matrix                       
 INPUT CARD>C1                                                                              
 INPUT CARD>S                                                                               
 INPUT CARD>O 1 1.40                                                                        
 INPUT CARD>O 1 1.40 2 135                                                                  
 INPUT CARD> $END                                                                           
    1000000 WORDS OF MEMORY AVAILABLE

     BASIS OPTIONS
     -------------
     GBASIS=PCSEG-1      IGAUSS=       0      POLAR=NONE    
     NDFUNC=       0     NFFUNC=       0     DIFFSP=       F
     NPFUNC=       0      DIFFS=       F     BASNAM=        


     RUN TITLE
     ---------
 Title SO2 single-point calculation template with Z-Matrix                       

 THE POINT GROUP OF THE MOLECULE IS C1      
 THE ORDER OF THE PRINCIPAL AXIS IS     0

 YOUR FULLY SUBSTITUTED Z-MATRIX IS
 S   
 O      1   1.4000000
 O      1   1.4000000  2  135.0000

 THE MOMENTS OF INERTIA ARE (AMU-ANGSTROM**2)
 IXX=     4.590   IYY=    53.518   IZZ=    58.108

 ATOM      ATOMIC                      COORDINATES (BOHR)
           CHARGE         X                   Y                   Z
 S          16.0     0.0000000000       -0.5063572588        0.0000000000
 O           8.0     2.4442308270        0.5060762993        0.0000000000
 O           8.0    -2.4442308270        0.5060762993        0.0000000000

          INTERNUCLEAR DISTANCES (ANGS.)
          ------------------------------

                1 S          2 O          3 O     

   1 S       0.0000000    1.4000000 *  1.4000000 *
   2 O       1.4000000 *  0.0000000    2.5868627 *
   3 O       1.4000000 *  2.5868627 *  0.0000000  

  * ... LESS THAN  3.000


     ATOMIC BASIS SET
     ----------------
 THE CONTRACTED PRIMITIVE FUNCTIONS HAVE BEEN UNNORMALIZED
 THE CONTRACTED BASIS FUNCTIONS ARE NOW NORMALIZED TO UNITY

  SHELL TYPE  PRIMITIVE        EXPONENT          CONTRACTION COEFFICIENT(S)

 S         

      1   S       1         49299.4000000    0.000677492991
      1   S       2          7395.8400000    0.005232317766
      1   S       3          1683.3000000    0.026769459077
      1   S       4           476.1440000    0.102869580705
      1   S       5           154.3290000    0.286438127414
      1   S       6            55.0288000    0.454278639081
      1   S       7            20.5029000    0.271743121997

      2   S       8            45.9596000   -0.088421914560
      2   S       9             4.9274000    0.564350486135
      2   S      10             1.9179900    0.505415953466

      3   S      11             0.3684980    1.000000000000

      4   S      12             0.1291650    1.000000000000

      5   P      13           451.6620000    0.003707705453
      5   P      14           106.0980000    0.029219352245
      5   P      15            33.6996000    0.124444551509
      5   P      16            12.3054000    0.321808587656
      5   P      17             4.7141200    0.462822172957
      5   P      18             1.7810500    0.266513371364

      6   P      19             0.8722350    0.349265132972
      6   P      20             0.3102780    0.717115018770

      7   P      21             0.1001940    1.000000000000

      8   D      22             0.5500000    1.000000000000

 O         

      9   S      23          2288.6400000    0.005451138222
      9   S      24           344.4160000    0.040718922842
      9   S      25            78.2538000    0.181369420873
      9   S      26            21.7195000    0.465536820246
      9   S      27             6.5590700    0.451211321214

     10   S      28            10.4656000   -0.150211201174
     10   S      29             0.9643510    1.052867983385

     11   S      30             0.2851270    1.000000000000

     12   P      31            17.0590000    0.068749256972
     12   P      32             3.6899900    0.351671941499
     12   P      33             0.9929960    0.724532099722

     13   P      34             0.2449240    1.000000000000

     14   D      35             1.0000000    1.000000000000

 O         

     15   S      36          2288.6400000    0.005451138222
     15   S      37           344.4160000    0.040718922842
     15   S      38            78.2538000    0.181369420873
     15   S      39            21.7195000    0.465536820246
     15   S      40             6.5590700    0.451211321214

     16   S      41            10.4656000   -0.150211201174
     16   S      42             0.9643510    1.052867983385

     17   S      43             0.2851270    1.000000000000

     18   P      44            17.0590000    0.068749256972
     18   P      45             3.6899900    0.351671941499
     18   P      46             0.9929960    0.724532099722

     19   P      47             0.2449240    1.000000000000

     20   D      48             1.0000000    1.000000000000

 TOTAL NUMBER OF BASIS SET SHELLS             =   20
 NUMBER OF CARTESIAN GAUSSIAN BASIS FUNCTIONS =   49
 NOTE: THIS RUN WILL RESTRICT THE MO VARIATION SPACE TO SPHERICAL HARMONICS.
 THE NUMBER OF ORBITALS KEPT IN THE VARIATIONAL SPACE WILL BE PRINTED LATER.
 NUMBER OF ELECTRONS                          =   32
 CHARGE OF MOLECULE                           =    0
 SPIN MULTIPLICITY                            =    1
 NUMBER OF OCCUPIED ORBITALS (ALPHA)          =   16
 NUMBER OF OCCUPIED ORBITALS (BETA )          =   16
 TOTAL NUMBER OF ATOMS                        =    3
 THE NUCLEAR REPULSION ENERGY IS      109.8558930530

     LEBEDEV GRID-BASED DFT OPTIONS
     ------------------------------
     DFTTYP=PBE     
     NRAD  =      96     NLEB  =     302
     NRAD0 =      24     NLEB0 =     110
     SWOFF =    5.00E-03 (PURE SCF -> DFT)
     SWITCH=    3.00E-04 (COARSE -> TIGHT GRID)
     THRESH=    0.00E+00 GTHRE=    1.00E+00

 GRIMME'S EMPIRICAL DISPERSION CORRECTION= F

     $CONTRL OPTIONS
     ---------------
 SCFTYP=RHF          RUNTYP=ENERGY       EXETYP=RUN     
 MPLEVL=       0     CITYP =NONE         CCTYP =NONE         VBTYP =NONE    
 DFTTYP=PBE          TDDFT =NONE    
 MULT  =       1     ICHARG=       0     NZVAR =       0     COORD =ZMT     
 PP    =NONE         RELWFN=NONE         LOCAL =NONE         NUMGRD=       F
 ISPHER=       1     NOSYM =       0     MAXIT =      30     UNITS =ANGS    
 PLTORB=       F     MOLPLT=       F     AIMPAC=       F     FRIEND=        
 NPRINT=       7     IREST =       0     GEOM  =INPUT   
 NORMF =       0     NORMP =       0     ITOL  =      20     ICUT  =       9
 INTTYP=BEST         GRDTYP=BEST         QMTTOL= 1.0E-06

     $SYSTEM OPTIONS
     ---------------
  REPLICATED MEMORY=     1000000 WORDS (ON EVERY NODE).
 DISTRIBUTED MEMDDI=           0 MILLION WORDS IN AGGREGATE,
 MEMDDI DISTRIBUTED OVER   1 PROCESSORS IS           0 WORDS/PROCESSOR.
 TOTAL MEMORY REQUESTED ON EACH PROCESSOR=     1000000 WORDS.
 TIMLIM=      525600.00 MINUTES, OR     365.0 DAYS.
 PARALL= F  BALTYP=  DLB     KDIAG=    0  COREFL= F
 MXSEQ2=     300 MXSEQ3=     150  mem10=         0

          ----------------
          PROPERTIES INPUT
          ----------------

     MOMENTS            FIELD           POTENTIAL          DENSITY
 IEMOM =       1   IEFLD =       0   IEPOT =       0   IEDEN =       0
 WHERE =COMASS     WHERE =NUCLEI     WHERE =NUCLEI     WHERE =NUCLEI  
 OUTPUT=BOTH       OUTPUT=BOTH       OUTPUT=BOTH       OUTPUT=BOTH    
 IEMINT=       0   IEFINT=       0                     IEDINT=       0
                                                       MORB  =       0
          EXTRAPOLATION IN EFFECT
          DIIS IN EFFECT
 ORBITAL PRINTING OPTION: NPREO=     1    49     2     1

     -------------------------------
     INTEGRAL TRANSFORMATION OPTIONS
     -------------------------------
     NWORD  =            0
     CUTOFF = 1.0E-09     MPTRAN =       0
     DIRTRF =       F     AOINTS =DUP     

          ----------------------
          INTEGRAL INPUT OPTIONS
          ----------------------
 NOPK  =       1 NORDER=       0 SCHWRZ=       F

   --- ENCODED Z MATRIX ---
 COORD  TYPE   I   J   K   L   M   N
    1      1    2   1
    2      1    3   1
    3      2    3   1   2

 THE DETERMINANT OF THE G MATRIX IS 10**(    -4)

 THE DETERMINANT OF THE G MATRIX IS 10**(    -4)
 * * * WARNING * * *
 YOUR B MATRIX HAS A SMALL DETERMINANT.
 THIS SUGGESTS YOU MAY HAVE BADLY CHOSEN COORDINATES.

     ------------------------------------------
     THE POINT GROUP IS C1 , NAXIS= 0, ORDER= 1
     ------------------------------------------

 -- VARIATIONAL SPACE WILL BE RESTRICTED TO PURE SPHERICAL HARMONICS ONLY --
 AFTER EXCLUDING CONTAMINANT COMBINATIONS FROM THE CARTESIAN GAUSSIAN BASIS
 SET, THE NUMBER OF SPHERICAL HARMONICS KEPT IN THE VARIATION SPACE IS   46

     DIMENSIONS OF THE SYMMETRY SUBSPACES ARE
 A   =   46

 ..... DONE SETTING UP THE RUN .....
 STEP CPU TIME =     0.03 TOTAL CPU TIME =          0.0 (      0.0 MIN)
 TOTAL WALL CLOCK TIME=          0.1 SECONDS, CPU UTILIZATION IS    57.14%

          ********************
          1 ELECTRON INTEGRALS
          ********************
 ...... END OF ONE-ELECTRON INTEGRALS ......
 STEP CPU TIME =     0.01 TOTAL CPU TIME =          0.0 (      0.0 MIN)
 TOTAL WALL CLOCK TIME=          0.1 SECONDS, CPU UTILIZATION IS    62.50%

          -------------
          GUESS OPTIONS
          -------------
          GUESS =HUCKEL            NORB  =       0          NORDER=       0
          MIX   =       F          PRTMO =       F          PUNMO =       F
          TOLZ  = 1.0E-08          TOLE  = 1.0E-05
          SYMDEN=       F          PURIFY=       F

 INITIAL GUESS ORBITALS GENERATED BY HUCKEL   ROUTINE.
 HUCKEL GUESS REQUIRES     21634 WORDS.

 STATISTICS FOR GENERATION OF SYMMETRY ORBITAL -Q- MATRIX
 NUMBER OF CARTESIAN ATOMIC ORBITALS=         49
 NUMBER OF SPHERICAL CONTAMINANTS DROPPED=     3
 NUMBER OF LINEARLY DEPENDENT MOS DROPPED=     0
 TOTAL NUMBER OF MOS IN VARIATION SPACE=      46

 SYMMETRIES FOR INITIAL GUESS ORBITALS FOLLOW.   BOTH SET(S).
    16 ORBITALS ARE OCCUPIED (    7 CORE ORBITALS).
     8=A        9=A       10=A       11=A       12=A       13=A       14=A   
    15=A       16=A       17=A       18=A       19=A       20=A       21=A   
    22=A       23=A       24=A       25=A       26=A   
 ...... END OF INITIAL ORBITAL SELECTION ......
 STEP CPU TIME =     0.00 TOTAL CPU TIME =          0.0 (      0.0 MIN)
 TOTAL WALL CLOCK TIME=          0.1 SECONDS, CPU UTILIZATION IS    62.50%

                    ----------------------
                    AO INTEGRAL TECHNOLOGY
                    ----------------------
     S,P,L SHELL ROTATED AXIS INTEGRALS, REPROGRAMMED BY
        KAZUYA ISHIMURA (IMS) AND JOSE SIERRA (SYNSTAR).
     S,P,D,L SHELL ROTATED AXIS INTEGRALS PROGRAMMED BY
        KAZUYA ISHIMURA (INSTITUTE FOR MOLECULAR SCIENCE).
     S,P,D,F,G SHELL TO TOTAL QUARTET ANGULAR MOMENTUM SUM 5,
        ERIC PROGRAM BY GRAHAM FLETCHER (ELORET AND NASA ADVANCED
        SUPERCOMPUTING DIVISION, AMES RESEARCH CENTER).
     S,P,D,F,G,L SHELL GENERAL RYS QUADRATURE PROGRAMMED BY
        MICHEL DUPUIS (PACIFIC NORTHWEST NATIONAL LABORATORY).

          --------------------
          2 ELECTRON INTEGRALS
          --------------------

 THE -PK- OPTION IS OFF, THE INTEGRALS ARE NOT IN SUPERMATRIX FORM.
 STORING   15000 INTEGRALS/RECORD ON DISK, USING 12 BYTES/INTEGRAL.
 TWO ELECTRON INTEGRAL EVALUATION REQUIRES   90606 WORDS OF MEMORY.
 II,JST,KST,LST =  1  1  1  1 NREC =         1 INTLOC =    1
 II,JST,KST,LST =  2  1  1  1 NREC =         1 INTLOC =    2
 II,JST,KST,LST =  3  1  1  1 NREC =         1 INTLOC =    7
 II,JST,KST,LST =  4  1  1  1 NREC =         1 INTLOC =   22
 II,JST,KST,LST =  5  1  1  1 NREC =         1 INTLOC =   56
 II,JST,KST,LST =  6  1  1  1 NREC =         1 INTLOC =  125
 II,JST,KST,LST =  7  1  1  1 NREC =         1 INTLOC =  329
 II,JST,KST,LST =  8  1  1  1 NREC =         1 INTLOC =  776
 II,JST,KST,LST =  9  1  1  1 NREC =         1 INTLOC = 2864
 II,JST,KST,LST = 10  1  1  1 NREC =         1 INTLOC = 4994
 II,JST,KST,LST = 11  1  1  1 NREC =         1 INTLOC = 7662
 II,JST,KST,LST = 12  1  1  1 NREC =         1 INTLOC =10780
 II,JST,KST,LST = 13  1  1  1 NREC =         2 INTLOC = 6712
 II,JST,KST,LST = 14  1  1  1 NREC =         3 INTLOC = 6986
 II,JST,KST,LST = 15  1  1  1 NREC =         6 INTLOC = 9022
 II,JST,KST,LST = 16  1  1  1 NREC =         7 INTLOC = 1573
 II,JST,KST,LST = 17  1  1  1 NREC =         7 INTLOC =13325
 II,JST,KST,LST = 18  1  1  1 NREC =         8 INTLOC =11780
 II,JST,KST,LST = 19  1  1  1 NREC =        11 INTLOC = 7449
 II,JST,KST,LST = 20  1  1  1 NREC =        14 INTLOC =14749
 TOTAL NUMBER OF NONZERO TWO-ELECTRON INTEGRALS =              343127
         23 INTEGRAL RECORDS WERE STORED ON DISK FILE  8.
  ...... END OF TWO-ELECTRON INTEGRALS .....
 STEP CPU TIME =     0.11 TOTAL CPU TIME =          0.2 (      0.0 MIN)
 TOTAL WALL CLOCK TIME=          0.2 SECONDS, CPU UTILIZATION IS    84.21%

          --------------------------
               R-PBE SCF CALCULATION
          --------------------------

     NUCLEAR ENERGY =       109.8558930530
     MAXIT =   30     NPUNCH=    2
     EXTRAP=T  DAMP=F  SHIFT=F  RSTRCT=F  DIIS=T  DEM=F  SOSCF=F
         DENSITY MATRIX CONVERGENCE THRESHOLD=  1.00E-05
     COARSE -> FINE DFT GRID SWITCH THRESHOLD=  3.00E-04 (SWITCH IN $DFT)
                   HF -> DFT SWITCH THRESHOLD=  5.00E-03 (SWOFF IN $DFT)
     MEMORY REQUIRED FOR RHF ITERS=    183108 WORDS.

 DFT CODE IS SWITCHING FROM THE FINE GRID NRAD= 96,  NLEB=  302
                      TO THE COARSE GRID NRAD0= 24, NLEB0=  110

     EXCHANGE FUNCTIONAL   =PBE       
     CORRELATION FUNCTIONAL=PBE       
     DFT THRESHOLD         =.460E-07
     GRID CHANGE THRESHOLD =.300E-03
 FOR AN EULER-MACLAURIN QUADRATURE USING  96 RADIAL POINTS:
 SMALLEST GAUSSIAN PRIMITIVE EXPONENT=        0.1001940000 OF TYPE -P-
 ON ATOM NUMBER   1 HAS RADIAL NORMALIZATION=  1.000000
  LARGEST GAUSSIAN PRIMITIVE EXPONENT=    49299.4000000000 OF TYPE -S-
 ON ATOM NUMBER   1 HAS RADIAL NORMALIZATION=  1.000000
 DFT IS SWITCHED OFF, PERFORMING PURE SCF UNTIL SWOFF THRESHOLD IS REACHED.

 ITER EX DEM     TOTAL ENERGY        E CHANGE  DENSITY CHANGE    DIIS ERROR
   1  0  0     -546.0214808488  -546.0214808488   0.637583655   1.063246362
          * * *   INITIATING DIIS PROCEDURE   * * *
   2  1  0     -546.8903700657    -0.8688892169   0.463205647   0.231764241
   3  2  0     -546.9950169532    -0.1046468875   0.154096431   0.165261420
   4  3  0     -547.0852365844    -0.0902196312   0.044979613   0.014251608
   5  4  0     -547.0876019635    -0.0023653791   0.029029892   0.005511867
   6  5  0     -547.0880973586    -0.0004953951   0.009573713   0.002468044
   7  6  0     -547.0881764942    -0.0000791356   0.001302857   0.000380812
 CONVERGED TO SWOFF, SO DFT CALCULATION IS NOW SWITCHED ON.
          * * *   INITIATING DIIS PROCEDURE   * * *
   8  7  0     -548.2047786719    -1.1166021777   0.268550562   0.096222182
   9  8  0     -548.2206174888    -0.0158388169   0.218620898   0.069690786
  10  9  0     -548.2165289622     0.0040885266   0.091586082   0.073063940
  11 10  0     -548.2355779891    -0.0190490269   0.019261427   0.011213721
  12 11  0     -548.2359733739    -0.0003953849   0.001040287   0.000692047
  13 12  0     -548.2359745333    -0.0000011594   0.000271795   0.000080808
 DFT CODE IS SWITCHING BACK TO THE FINE GRID
          * * *   INITIATING DIIS PROCEDURE   * * *
  14 13  0     -548.2171150930     0.0188594404   0.008748276   0.006982961
  15 14  0     -548.2172399302    -0.0001248372   0.004064946   0.002576673
  16 15  0     -548.2172299730     0.0000099572   0.003760585   0.002984503
  17 16  0     -548.2172535887    -0.0000236156   0.000958459   0.000685549
  18 17  0     -548.2172546034    -0.0000010147   0.000156483   0.000060477
  19 18  0     -548.2172546070    -0.0000000037   0.000059376   0.000075753
  20 19  0     -548.2172546222    -0.0000000151   0.000010151   0.000009896
  21 20  0     -548.2172546225    -0.0000000003   0.000000437   0.000000214
  22 21  0     -548.2172546225     0.0000000000   0.000000139   0.000000031

          -----------------
          DENSITY CONVERGED
          -----------------
     TIME TO FORM FOCK OPERATORS=       2.4 SECONDS (       0.1 SEC/ITER)
     TIME TO SOLVE SCF EQUATIONS=       0.0 SECONDS (       0.0 SEC/ITER)

 FINAL R-PBE ENERGY IS     -548.2172546225 AFTER  22 ITERATIONS
 DFT EXCHANGE + CORRELATION ENERGY =       -42.6054138344
 TOTAL ELECTRON NUMBER             =        32.0000006449

          ------------
          EIGENVECTORS
          ------------

                      1          2          3          4          5
                  -88.2170   -18.8043   -18.8043    -7.8342    -5.8609
                     A          A          A          A          A   
    1  S  1  S    0.997744  -0.000041  -0.000001  -0.308332  -0.000000
    2  S  1  S    0.008386   0.000242   0.000007   1.031449   0.000000
    3  S  1  S   -0.003617   0.000848   0.000023   0.028430  -0.000000
    4  S  1  S    0.000350   0.007860   0.000214  -0.005200  -0.000000
    5  S  1  X   -0.000000   0.000004  -0.000143  -0.000000   0.994160
    6  S  1  Y    0.000172  -0.000073  -0.000002   0.013967  -0.000000
    7  S  1  Z    0.000000   0.000000   0.000000   0.000000   0.000000
    8  S  1  X    0.000000   0.000029  -0.001062   0.000000   0.018276
    9  S  1  Y   -0.000562   0.001219   0.000033   0.001562  -0.000000
   10  S  1  Z    0.000000   0.000000   0.000000   0.000000   0.000000
   11  S  1  X    0.000000   0.000130  -0.004795   0.000000  -0.002276
   12  S  1  Y   -0.000048   0.002621   0.000071  -0.000270  -0.000000
   13  S  1  Z    0.000000   0.000000   0.000000   0.000000   0.000000
   14  S  1 XX   -0.000567  -0.000494  -0.000014   0.001163  -0.000000
   15  S  1 YY    0.000213   0.000448   0.000012  -0.000574   0.000000
   16  S  1 ZZ    0.000354   0.000045   0.000001  -0.000590   0.000000
   17  S  1 XY    0.000000  -0.000021   0.000752   0.000000   0.001782
   18  S  1 XZ    0.000000   0.000000   0.000000   0.000000   0.000000
   19  S  1 YZ    0.000000   0.000000   0.000000   0.000000   0.000000
   20  O  2  S   -0.000029   0.721120  -0.682902  -0.000251  -0.000778
   21  O  2  S   -0.000192   0.024936  -0.023426  -0.000127   0.000575
   22  O  2  S    0.000949  -0.012737   0.011323  -0.000740  -0.001438
   23  O  2  X   -0.000163  -0.001228   0.001043  -0.000058  -0.001301
   24  O  2  Y   -0.000078  -0.000261   0.000457  -0.000011  -0.000620
   25  O  2  Z    0.000000   0.000000   0.000000   0.000000   0.000000
   26  O  2  X   -0.000713   0.003287  -0.001370   0.001089   0.001198
   27  O  2  Y   -0.000300   0.000243  -0.001449   0.000515   0.000530
   28  O  2  Z    0.000000   0.000000   0.000000   0.000000   0.000000
   29  O  2 XX    0.000266  -0.000299  -0.000115   0.000474   0.001091
   30  O  2 YY   -0.000077   0.000202   0.000167  -0.000201  -0.000286
   31  O  2 ZZ   -0.000189   0.000098  -0.000052  -0.000274  -0.000804
   32  O  2 XY    0.000247   0.000040   0.000164   0.000300   0.001118
   33  O  2 XZ    0.000000   0.000000   0.000000   0.000000   0.000000
   34  O  2 YZ    0.000000   0.000000   0.000000   0.000000   0.000000
   35  O  3  S   -0.000029   0.682919   0.721104  -0.000251   0.000778
   36  O  3  S   -0.000192   0.023626   0.024747  -0.000127  -0.000575
   37  O  3  S    0.000949  -0.012102  -0.011999  -0.000740   0.001438
   38  O  3  X    0.000163   0.001170   0.001108   0.000058  -0.001301
   39  O  3  Y   -0.000078  -0.000236  -0.000470  -0.000011   0.000620
   40  O  3  Z    0.000000   0.000000   0.000000   0.000000   0.000000
   41  O  3  X    0.000713  -0.003208  -0.001546  -0.001089   0.001198
   42  O  3  Y   -0.000300   0.000164   0.001460   0.000515  -0.000530
   43  O  3  Z    0.000000   0.000000   0.000000   0.000000   0.000000
   44  O  3 XX    0.000266  -0.000305   0.000098   0.000474  -0.001091
   45  O  3 YY   -0.000077   0.000210  -0.000155  -0.000201   0.000286
   46  O  3 ZZ   -0.000189   0.000095   0.000057  -0.000274   0.000804
   47  O  3 XY   -0.000247  -0.000049   0.000162  -0.000300   0.001118
   48  O  3 XZ    0.000000   0.000000   0.000000   0.000000   0.000000
   49  O  3 YZ    0.000000   0.000000   0.000000   0.000000   0.000000

                      6          7          8          9         10
                   -5.8588    -5.8530    -1.0844    -1.0048    -0.5656
                     A          A          A          A          A   
    1  S  1  S    0.000000   0.004453   0.053969  -0.000000   0.060595
    2  S  1  S    0.000000  -0.015393  -0.328653   0.000000  -0.388577
    3  S  1  S    0.000000   0.000564   0.450339  -0.000001   0.607583
    4  S  1  S    0.000000   0.000498   0.052351  -0.000005   0.191810
    5  S  1  X    0.000000   0.000000  -0.000000  -0.156292   0.000000
    6  S  1  Y    0.000000   0.994801  -0.057786   0.000000   0.026201
    7  S  1  Z    0.994922   0.000000   0.000000   0.000000   0.000000
    8  S  1  X    0.000000   0.000000   0.000002   0.343548  -0.000000
    9  S  1  Y    0.000000   0.016025   0.122372  -0.000001  -0.057485
   10  S  1  Z    0.016056   0.000000   0.000000   0.000000   0.000000
   11  S  1  X    0.000000   0.000000   0.000002  -0.018838  -0.000001
   12  S  1  Y    0.000000  -0.002697  -0.017546  -0.000001  -0.039126
   13  S  1  Z   -0.002997   0.000000   0.000000   0.000000   0.000000
   14  S  1 XX    0.000000  -0.000583   0.067343  -0.000001  -0.016194
   15  S  1 YY    0.000000   0.001217  -0.024572   0.000000  -0.002257
   16  S  1 ZZ    0.000000  -0.000634  -0.042771   0.000001   0.018451
   17  S  1 XY    0.000000   0.000000   0.000001   0.078089  -0.000000
   18  S  1 XZ   -0.000000   0.000000   0.000000   0.000000   0.000000
   19  S  1 YZ    0.000998   0.000000   0.000000   0.000000   0.000000
   20  O  2  S    0.000000  -0.000326  -0.135610  -0.158553   0.115725
   21  O  2  S    0.000000   0.000337   0.273692   0.326982  -0.247119
   22  O  2  S    0.000000  -0.000321   0.220817   0.252543  -0.337073
   23  O  2  X    0.000000  -0.000723  -0.120011  -0.114101  -0.190044
   24  O  2  Y    0.000000  -0.000240  -0.041301  -0.047670  -0.098612
   25  O  2  Z    0.000053   0.000000   0.000000   0.000000   0.000000
   26  O  2  X    0.000000   0.000547  -0.030557  -0.007946  -0.091871
   27  O  2  Y    0.000000  -0.000239  -0.005803  -0.004086  -0.041802
   28  O  2  Z   -0.000295   0.000000   0.000000   0.000000   0.000000
   29  O  2 XX    0.000000   0.000611   0.013280   0.007249   0.008285
   30  O  2 YY    0.000000  -0.000273  -0.007550  -0.002583  -0.001447
   31  O  2 ZZ    0.000000  -0.000338  -0.005730  -0.004666  -0.006838
   32  O  2 XY    0.000000   0.000425   0.005733   0.008807   0.008766
   33  O  2 XZ   -0.000110   0.000000   0.000000   0.000000   0.000000
   34  O  2 YZ   -0.000087   0.000000   0.000000   0.000000   0.000000
   35  O  3  S    0.000000  -0.000326  -0.135611   0.158553   0.115725
   36  O  3  S    0.000000   0.000337   0.273691  -0.326984  -0.247119
   37  O  3  S    0.000000  -0.000321   0.220823  -0.252534  -0.337076
   38  O  3  X    0.000000   0.000723   0.120011  -0.114101   0.190045
   39  O  3  Y    0.000000  -0.000240  -0.041301   0.047670  -0.098613
   40  O  3  Z    0.000053   0.000000   0.000000   0.000000   0.000000
   41  O  3  X    0.000000  -0.000547   0.030559  -0.007942   0.091871
   42  O  3  Y    0.000000  -0.000239  -0.005805   0.004086  -0.041801
   43  O  3  Z   -0.000295   0.000000   0.000000   0.000000   0.000000
   44  O  3 XX    0.000000   0.000611   0.013281  -0.007249   0.008285
   45  O  3 YY    0.000000  -0.000273  -0.007551   0.002583  -0.001447
   46  O  3 ZZ    0.000000  -0.000338  -0.005730   0.004666  -0.006838
   47  O  3 XY    0.000000  -0.000425  -0.005733   0.008807  -0.008766
   48  O  3 XZ    0.000110   0.000000   0.000000   0.000000   0.000000
   49  O  3 YZ   -0.000087   0.000000   0.000000   0.000000   0.000000

                     11         12         13         14         15
                   -0.4648    -0.4541    -0.4508    -0.3561    -0.3390
                     A          A          A          A          A   
    1  S  1  S    0.000000  -0.008279   0.000000   0.000000   0.000000
    2  S  1  S    0.000000   0.052926  -0.000000   0.000000  -0.000000
    3  S  1  S    0.000000  -0.068652   0.000000   0.000000  -0.000000
    4  S  1  S    0.000000  -0.110958   0.000000   0.000000   0.000002
    5  S  1  X    0.000000  -0.000001  -0.169282   0.000000  -0.012561
    6  S  1  Y    0.000000  -0.199899   0.000001   0.000000   0.000000
    7  S  1  Z   -0.210691   0.000000   0.000000  -0.000000   0.000000
    8  S  1  X    0.000000   0.000003   0.458402   0.000000   0.025551
    9  S  1  Y    0.000000   0.524105  -0.000004   0.000000   0.000000
   10  S  1  Z    0.556286   0.000000   0.000000   0.000000   0.000000
   11  S  1  X    0.000000   0.000000  -0.044148   0.000000   0.075870
   12  S  1  Y    0.000000   0.087509  -0.000001   0.000000   0.000001
   13  S  1  Z    0.106868   0.000000   0.000000  -0.000000   0.000000
   14  S  1 XX    0.000000  -0.059857   0.000000   0.000000   0.000000
   15  S  1 YY    0.000000   0.073259  -0.000000   0.000000  -0.000000
   16  S  1 ZZ    0.000000  -0.013402   0.000000   0.000000  -0.000000
   17  S  1 XY    0.000000   0.000000   0.042130   0.000000  -0.140314
   18  S  1 XZ    0.000000   0.000000   0.000000   0.146584   0.000000
   19  S  1 YZ    0.051971   0.000000   0.000000  -0.000000   0.000000
   20  O  2  S    0.000000   0.021775   0.075710   0.000000  -0.001464
   21  O  2  S    0.000000  -0.045372  -0.157430   0.000000   0.004493
   22  O  2  S    0.000000  -0.073304  -0.278738   0.000000  -0.006150
   23  O  2  X    0.000000  -0.216930  -0.331498   0.000000   0.258869
   24  O  2  Y    0.000000   0.245709  -0.201803   0.000000  -0.386208
   25  O  2  Z    0.318134   0.000000   0.000000   0.460504   0.000000
   26  O  2  X    0.000000  -0.122838  -0.139636   0.000000   0.158756
   27  O  2  Y    0.000000   0.145901  -0.102727   0.000000  -0.268477
   28  O  2  Z    0.182621   0.000000   0.000000   0.316107   0.000000
   29  O  2 XX    0.000000   0.020219   0.009492   0.000000  -0.012241
   30  O  2 YY    0.000000  -0.014884  -0.000270   0.000000   0.013079
   31  O  2 ZZ    0.000000  -0.005335  -0.009222   0.000000  -0.000838
   32  O  2 XY    0.000000  -0.011067   0.014897   0.000000   0.017588
   33  O  2 XZ   -0.023688   0.000000   0.000000  -0.020035   0.000000
   34  O  2 YZ   -0.008560   0.000000   0.000000  -0.007806   0.000000
   35  O  3  S    0.000000   0.021774  -0.075710   0.000000   0.001464
   36  O  3  S    0.000000  -0.045371   0.157429   0.000000  -0.004493
   37  O  3  S    0.000000  -0.073299   0.278740   0.000000   0.006148
   38  O  3  X    0.000000   0.216926  -0.331500   0.000000   0.258869
   39  O  3  Y    0.000000   0.245712   0.201800   0.000000   0.386208
   40  O  3  Z    0.318135   0.000000   0.000000  -0.460504   0.000000
   41  O  3  X    0.000000   0.122838  -0.139636   0.000000   0.158754
   42  O  3  Y    0.000000   0.145902   0.102725   0.000000   0.268477
   43  O  3  Z    0.182622   0.000000   0.000000  -0.316107   0.000000
   44  O  3 XX    0.000000   0.020219  -0.009492   0.000000   0.012241
   45  O  3 YY    0.000000  -0.014884   0.000271   0.000000  -0.013079
   46  O  3 ZZ    0.000000  -0.005335   0.009222   0.000000   0.000838
   47  O  3 XY    0.000000   0.011067   0.014896   0.000000   0.017588
   48  O  3 XZ    0.023688   0.000000   0.000000  -0.020035   0.000000
   49  O  3 YZ   -0.008560   0.000000   0.000000   0.007806   0.000000

                     16         17         18         19         20
                   -0.2622    -0.1386    -0.0132     0.1056     0.2058
                     A          A          A          A          A   
    1  S  1  S    0.026935   0.000000   0.019286  -0.000000   0.000000
    2  S  1  S   -0.175469   0.000000  -0.129378   0.000000   0.000000
    3  S  1  S    0.206536   0.000000   0.116594  -0.000005   0.000000
    4  S  1  S    0.605297   0.000000   0.858501  -0.000005   0.000000
    5  S  1  X   -0.000000   0.000000  -0.000000  -0.101398   0.000000
    6  S  1  Y    0.126262   0.000000  -0.177550  -0.000000   0.000000
    7  S  1  Z    0.000000  -0.231605   0.000000   0.000000   0.245404
    8  S  1  X    0.000000   0.000000   0.000001   0.323339   0.000000
    9  S  1  Y   -0.347680   0.000000   0.575261  -0.000001   0.000000
   10  S  1  Z    0.000000   0.701322   0.000000   0.000000  -0.964960
   11  S  1  X   -0.000001   0.000000  -0.000008   1.439612   0.000000
   12  S  1  Y   -0.050139   0.000000   0.632807   0.000001   0.000000
   13  S  1  Z    0.000000   0.375344   0.000000   0.000000   1.303583
   14  S  1 XX   -0.185073   0.000000  -0.171289  -0.000004   0.000000
   15  S  1 YY    0.095006   0.000000  -0.003636   0.000001   0.000000
   16  S  1 ZZ    0.090067   0.000000   0.174925   0.000003   0.000000
   17  S  1 XY    0.000000   0.000000   0.000001  -0.170085   0.000000
   18  S  1 XZ    0.000000  -0.000000   0.000000   0.000000   0.000000
   19  S  1 YZ    0.000000  -0.054067   0.000000   0.000000  -0.086426
   20  O  2  S    0.014435   0.000000   0.052415   0.066820   0.000000
   21  O  2  S   -0.033610   0.000000  -0.116166  -0.120725   0.000000
   22  O  2  S   -0.093660   0.000000  -0.419734  -0.748581   0.000000
   23  O  2  X    0.172122   0.000000   0.318894   0.022054   0.000000
   24  O  2  Y    0.361531   0.000000  -0.168716   0.198040   0.000000
   25  O  2  Z    0.000000  -0.389935   0.000000   0.000000  -0.025904
   26  O  2  X    0.107168   0.000000   0.330599   0.067545   0.000000
   27  O  2  Y    0.261308   0.000000  -0.170262   0.219301   0.000000
   28  O  2  Z    0.000000  -0.344136   0.000000   0.000000  -0.105716
   29  O  2 XX   -0.002952   0.000000  -0.001206  -0.006533   0.000000
   30  O  2 YY   -0.000160   0.000000  -0.003640   0.005384   0.000000
   31  O  2 ZZ    0.003112   0.000000   0.004846   0.001149   0.000000
   32  O  2 XY   -0.007740   0.000000  -0.003713  -0.001973   0.000000
   33  O  2 XZ    0.000000   0.001921   0.000000   0.000000   0.023412
   34  O  2 YZ    0.000000  -0.001164   0.000000   0.000000   0.006998
   35  O  3  S    0.014435   0.000000   0.052416  -0.066819   0.000000
   36  O  3  S   -0.033610   0.000000  -0.116170   0.120714   0.000000
   37  O  3  S   -0.093661   0.000000  -0.419738   0.748597   0.000000
   38  O  3  X   -0.172123   0.000000  -0.318896   0.022048   0.000000
   39  O  3  Y    0.361531   0.000000  -0.168715  -0.198041   0.000000
   40  O  3  Z    0.000000  -0.389935   0.000000   0.000000  -0.025904
   41  O  3  X   -0.107168   0.000000  -0.330596   0.067555   0.000000
   42  O  3  Y    0.261308   0.000000  -0.170260  -0.219306   0.000000
   43  O  3  Z    0.000000  -0.344136   0.000000   0.000000  -0.105716
   44  O  3 XX   -0.002952   0.000000  -0.001206   0.006534   0.000000
   45  O  3 YY   -0.000160   0.000000  -0.003640  -0.005384   0.000000
   46  O  3 ZZ    0.003112   0.000000   0.004846  -0.001149   0.000000
   47  O  3 XY    0.007740   0.000000   0.003713  -0.001974   0.000000
   48  O  3 XZ    0.000000  -0.001921   0.000000   0.000000  -0.023412
   49  O  3 YZ    0.000000  -0.001164   0.000000   0.000000   0.006998

                     21         22         23         24         25
                    0.2221     0.2742     0.3748     0.5225     0.5300
                     A          A          A          A          A   
    1  S  1  S    0.017862  -0.068633   0.000000   0.000000   0.004608
    2  S  1  S   -0.130601   0.498826  -0.000002   0.000000  -0.034327
    3  S  1  S    0.456362  -1.806735   0.000008   0.000000   0.099554
    4  S  1  S   -0.454299   2.165423   0.000002   0.000000   0.146796
    5  S  1  X   -0.000000  -0.000002  -0.289103   0.000000  -0.000000
    6  S  1  Y    0.249963   0.054683  -0.000000   0.000000   0.004504
    7  S  1  Z    0.000000   0.000000   0.000000   0.020507   0.000000
    8  S  1  X    0.000001   0.000010   1.085318   0.000000   0.000002
    9  S  1  Y   -0.976758  -0.173831   0.000003   0.000000  -0.017376
   10  S  1  Z    0.000000   0.000000   0.000000  -0.092800   0.000000
   11  S  1  X   -0.000000  -0.000000  -1.051326   0.000000   0.000001
   12  S  1  Y    1.224044   0.423390  -0.000000   0.000000   0.145521
   13  S  1  Z    0.000000   0.000000   0.000000   0.133815   0.000000
   14  S  1 XX    0.132119   0.219966   0.000003   0.000000  -0.042791
   15  S  1 YY   -0.111787  -0.103141  -0.000000   0.000000   0.851488
   16  S  1 ZZ   -0.020332  -0.116825  -0.000002   0.000000  -0.808697
   17  S  1 XY    0.000000   0.000002  -0.470111   0.000000   0.000001
   18  S  1 XZ    0.000000   0.000000   0.000000  -0.000000   0.000000
   19  S  1 YZ    0.000000   0.000000   0.000000   0.966455   0.000000
   20  O  2  S   -0.000472   0.013153   0.009954   0.000000   0.013366
   21  O  2  S    0.024483   0.022613  -0.088830   0.000000  -0.050374
   22  O  2  S   -0.086208  -0.529422   0.277146   0.000000  -0.087438
   23  O  2  X   -0.056997  -0.223226   0.246323   0.000000   0.085463
   24  O  2  Y   -0.006541  -0.095026   0.207180   0.000000  -0.200162
   25  O  2  Z    0.000000   0.000000   0.000000  -0.196878   0.000000
   26  O  2  X   -0.022081   0.103852   0.081186   0.000000   0.089091
   27  O  2  Y   -0.082545   0.033989   0.092408   0.000000   0.066561
   28  O  2  Z    0.000000   0.000000   0.000000   0.020996   0.000000
   29  O  2 XX   -0.018788  -0.043899   0.021221   0.000000   0.014790
   30  O  2 YY    0.015157   0.017631   0.006724   0.000000   0.016614
   31  O  2 ZZ    0.003631   0.026268  -0.027946   0.000000  -0.031404
   32  O  2 XY    0.014388  -0.027571   0.044600   0.000000  -0.034352
   33  O  2 XZ    0.000000   0.000000   0.000000  -0.032905   0.000000
   34  O  2 YZ    0.000000   0.000000   0.000000   0.029673   0.000000
   35  O  3  S   -0.000471   0.013153  -0.009954   0.000000   0.013366
   36  O  3  S    0.024482   0.022607   0.088835   0.000000  -0.050375
   37  O  3  S   -0.086206  -0.529407  -0.277158   0.000000  -0.087434
   38  O  3  X    0.056997   0.223225   0.246325   0.000000  -0.085464
   39  O  3  Y   -0.006542  -0.095028  -0.207179   0.000000  -0.200162
   40  O  3  Z    0.000000   0.000000   0.000000  -0.196879   0.000000
   41  O  3  X    0.022083  -0.103839   0.081175   0.000000  -0.089087
   42  O  3  Y   -0.082545   0.033984  -0.092404   0.000000   0.066560
   43  O  3  Z    0.000000   0.000000   0.000000   0.020996   0.000000
   44  O  3 XX   -0.018787  -0.043899  -0.021221   0.000000   0.014790
   45  O  3 YY    0.015157   0.017631  -0.006724   0.000000   0.016614
   46  O  3 ZZ    0.003631   0.026268   0.027946   0.000000  -0.031404
   47  O  3 XY   -0.014388   0.027570   0.044600   0.000000   0.034352
   48  O  3 XZ    0.000000   0.000000   0.000000   0.032905   0.000000
   49  O  3 YZ    0.000000   0.000000   0.000000   0.029673   0.000000

                     26         27         28         29         30
                    0.5902     0.6308     0.6520     0.7509     0.8054
                     A          A          A          A          A   
    1  S  1  S    0.000000   0.026495  -0.000000   0.000000  -0.000000
    2  S  1  S    0.000000  -0.215143   0.000001   0.000000   0.000000
    3  S  1  S    0.000000   1.047888  -0.000007   0.000000   0.000002
    4  S  1  S    0.000000   0.825631  -0.000016   0.000000   0.000002
    5  S  1  X    0.000000  -0.000002  -0.213305   0.000000   0.045781
    6  S  1  Y    0.000000  -0.087070   0.000001   0.000000  -0.000000
    7  S  1  Z    0.000000   0.000000   0.000000  -0.000000   0.000000
    8  S  1  X    0.000000   0.000012   1.240577   0.000000  -0.276863
    9  S  1  Y    0.000000   0.526841  -0.000005   0.000000   0.000000
   10  S  1  Z   -0.000000   0.000000   0.000000   0.000000   0.000000
   11  S  1  X    0.000000   0.000006  -0.039813   0.000000   0.296933
   12  S  1  Y    0.000000   0.042374  -0.000003   0.000000  -0.000001
   13  S  1  Z   -0.000000   0.000000   0.000000  -0.000000   0.000000
   14  S  1 XX    0.000000   0.535592  -0.000004   0.000000  -0.000000
   15  S  1 YY    0.000000  -0.237843   0.000001   0.000000  -0.000000
   16  S  1 ZZ    0.000000  -0.297749   0.000003   0.000000   0.000001
   17  S  1 XY    0.000000   0.000005   0.467237   0.000000  -0.285931
   18  S  1 XZ    0.910064   0.000000   0.000000   0.468948   0.000000
   19  S  1 YZ    0.000000   0.000000   0.000000  -0.000000   0.000000
   20  O  2  S    0.000000   0.064984   0.060875   0.000000   0.006557
   21  O  2  S    0.000000  -0.149044  -0.148444   0.000000  -0.120689
   22  O  2  S    0.000000  -0.611966  -0.521863   0.000000   0.181273
   23  O  2  X    0.000000  -0.334113  -0.159928   0.000000   0.224368
   24  O  2  Y    0.000000   0.003536  -0.232505   0.000000  -0.554974
   25  O  2  Z   -0.374979   0.000000   0.000000   0.543490   0.000000
   26  O  2  X    0.000000   1.112151   1.017151   0.000000  -0.561813
   27  O  2  Y    0.000000   0.364136   0.529911   0.000000   0.667886
   28  O  2  Z    0.036298   0.000000   0.000000  -0.818669   0.000000
   29  O  2 XX    0.000000   0.001333   0.030911   0.000000  -0.035680
   30  O  2 YY    0.000000   0.001585  -0.016111   0.000000   0.025650
   31  O  2 ZZ    0.000000  -0.002918  -0.014800   0.000000   0.010030
   32  O  2 XY    0.000000   0.006330   0.018625   0.000000   0.017069
   33  O  2 XZ   -0.051946   0.000000   0.000000  -0.046505   0.000000
   34  O  2 YZ   -0.040096   0.000000   0.000000  -0.025745   0.000000
   35  O  3  S    0.000000   0.064983  -0.060876   0.000000  -0.006556
   36  O  3  S    0.000000  -0.149045   0.148445   0.000000   0.120682
   37  O  3  S    0.000000  -0.611944   0.521880   0.000000  -0.181268
   38  O  3  X    0.000000   0.334101  -0.159940   0.000000   0.224374
   39  O  3  Y    0.000000   0.003537   0.232509   0.000000   0.554968
   40  O  3  Z    0.374979   0.000000   0.000000  -0.543490   0.000000
   41  O  3  X    0.000000  -1.112120   1.017179   0.000000  -0.561821
   42  O  3  Y    0.000000   0.364128  -0.529921   0.000000  -0.667877
   43  O  3  Z   -0.036297   0.000000   0.000000   0.818669   0.000000
   44  O  3 XX    0.000000   0.001333  -0.030911   0.000000   0.035680
   45  O  3 YY    0.000000   0.001585   0.016111   0.000000  -0.025650
   46  O  3 ZZ    0.000000  -0.002918   0.014800   0.000000  -0.010030
   47  O  3 XY    0.000000  -0.006330   0.018625   0.000000   0.017069
   48  O  3 XZ   -0.051946   0.000000   0.000000  -0.046505   0.000000
   49  O  3 YZ    0.040096   0.000000   0.000000   0.025745   0.000000

                     31         32         33         34         35
                    0.8207     0.8637     1.0425     1.1137     1.4543
                     A          A          A          A          A   
    1  S  1  S    0.006200   0.000000  -0.000000   0.014986  -0.000000
    2  S  1  S   -0.052403   0.000000   0.000001  -0.100275   0.000002
    3  S  1  S    0.291809   0.000000  -0.000000  -0.098713  -0.000003
    4  S  1  S    0.032062   0.000000  -0.000015   0.696941  -0.000079
    5  S  1  X   -0.000000   0.000000  -0.156543  -0.000001  -0.059909
    6  S  1  Y   -0.009396   0.000000   0.000001  -0.085774   0.000002
    7  S  1  Z    0.000000   0.005090   0.000000   0.000000   0.000000
    8  S  1  X    0.000001   0.000000   0.477943   0.000005   0.587944
    9  S  1  Y    0.026280   0.000000  -0.000003   0.317893  -0.000016
   10  S  1  Z    0.000000  -0.081262   0.000000   0.000000   0.000000
   11  S  1  X   -0.000001   0.000000   0.293111   0.000012   1.159631
   12  S  1  Y   -0.629191   0.000000  -0.000005   0.070435  -0.000025
   13  S  1  Z    0.000000  -0.684778   0.000000   0.000000   0.000000
   14  S  1 XX    0.262133   0.000000  -0.000005   1.042444  -0.000016
   15  S  1 YY   -0.351688   0.000000   0.000001  -0.387601   0.000003
   16  S  1 ZZ    0.089555   0.000000   0.000004  -0.654844   0.000013
   17  S  1 XY    0.000000   0.000000   0.853698   0.000003   0.120401
   18  S  1 XZ    0.000000  -0.000000   0.000000   0.000000   0.000000
   19  S  1 YZ    0.000000  -0.256686   0.000000   0.000000   0.000000
   20  O  2  S   -0.010236   0.000000   0.037323   0.038281  -0.075717
   21  O  2  S    0.134537   0.000000  -0.154214  -0.130500   1.268874
   22  O  2  S   -0.156049   0.000000  -0.364543  -0.481870  -2.140605
   23  O  2  X    0.209562   0.000000   0.621832   0.499682   0.066318
   24  O  2  Y   -0.536081   0.000000   0.113593   0.325090  -0.080385
   25  O  2  Z    0.000000  -0.610702   0.000000   0.000000   0.000000
   26  O  2  X   -0.152682   0.000000  -0.273761  -0.115918   0.289531
   27  O  2  Y    0.942066   0.000000  -0.104389  -0.040399   0.402682
   28  O  2  Z    0.000000   0.984282   0.000000   0.000000   0.000000
   29  O  2 XX   -0.016782   0.000000   0.069013  -0.047738   0.067801
   30  O  2 YY    0.015542   0.000000  -0.085601   0.077374   0.005245
   31  O  2 ZZ    0.001241   0.000000   0.016589  -0.029636  -0.073046
   32  O  2 XY    0.039700   0.000000  -0.042474   0.056230   0.124049
   33  O  2 XZ    0.000000   0.047349   0.000000   0.000000   0.000000
   34  O  2 YZ    0.000000   0.006804   0.000000   0.000000   0.000000
   35  O  3  S   -0.010236   0.000000  -0.037322   0.038283   0.075722
   36  O  3  S    0.134537   0.000000   0.154191  -0.130524  -1.268962
   37  O  3  S   -0.156049   0.000000   0.364581  -0.481830   2.140773
   38  O  3  X   -0.209565   0.000000   0.621838  -0.499673   0.066323
   39  O  3  Y   -0.536084   0.000000  -0.113598   0.325092   0.080374
   40  O  3  Z    0.000000  -0.610702   0.000000   0.000000   0.000000
   41  O  3  X    0.152687   0.000000  -0.273757   0.115913   0.289583
   42  O  3  Y    0.942069   0.000000   0.104393  -0.040407  -0.402680
   43  O  3  Z    0.000000   0.984282   0.000000   0.000000   0.000000
   44  O  3 XX   -0.016782   0.000000  -0.069013  -0.047738  -0.067811
   45  O  3 YY    0.015542   0.000000   0.085601   0.077374  -0.005241
   46  O  3 ZZ    0.001241   0.000000  -0.016589  -0.029637   0.073052
   47  O  3 XY   -0.039700   0.000000  -0.042474  -0.056230   0.124053
   48  O  3 XZ    0.000000  -0.047349   0.000000   0.000000   0.000000
   49  O  3 YZ    0.000000   0.006804   0.000000   0.000000   0.000000

                     36         37         38         39         40
                    1.4781     2.0398     2.0407     2.0605     2.0794
                     A          A          A          A          A   
    1  S  1  S   -0.003377   0.000000  -0.000000   0.000000  -0.000419
    2  S  1  S    0.040802   0.000000   0.000000   0.000000   0.006513
    3  S  1  S   -0.193763   0.000000  -0.000000   0.000000  -0.063590
    4  S  1  S   -1.884329   0.000000   0.000001   0.000000   0.017364
    5  S  1  X    0.000003   0.000000  -0.002843   0.000000  -0.000000
    6  S  1  Y    0.039669   0.000000   0.000000   0.000000   0.004686
    7  S  1  Z    0.000000  -0.000000   0.000000  -0.029885   0.000000
    8  S  1  X   -0.000023   0.000000  -0.003815   0.000000   0.000000
    9  S  1  Y   -0.345973   0.000000  -0.000000   0.000000  -0.033136
   10  S  1  Z    0.000000   0.000000   0.000000   0.122198   0.000000
   11  S  1  X   -0.000051   0.000000   0.025294   0.000000  -0.000001
   12  S  1  Y   -0.630954   0.000000   0.000000   0.000000   0.011167
   13  S  1  Z    0.000000  -0.000000   0.000000  -0.004527   0.000000
   14  S  1 XX   -0.197683   0.000000   0.000000   0.000000   0.076495
   15  S  1 YY    0.008946   0.000000   0.000000   0.000000   0.083148
   16  S  1 ZZ    0.188736   0.000000  -0.000000   0.000000  -0.159643
   17  S  1 XY   -0.000010   0.000000  -0.034526   0.000000  -0.000000
   18  S  1 XZ    0.000000   0.031150   0.000000  -0.000000   0.000000
   19  S  1 YZ    0.000000  -0.000000   0.000000  -0.063109   0.000000
   20  O  2  S    0.070463   0.000000  -0.000413   0.000000   0.004945
   21  O  2  S   -1.263903   0.000000   0.003186   0.000000  -0.052365
   22  O  2  S    2.192596   0.000000  -0.003234   0.000000   0.031462
   23  O  2  X    0.038569   0.000000   0.013459   0.000000   0.039887
   24  O  2  Y   -0.083662   0.000000  -0.016191   0.000000   0.012114
   25  O  2  Z    0.000000   0.010377   0.000000   0.024849   0.000000
   26  O  2  X   -0.724391   0.000000  -0.032780   0.000000  -0.039118
   27  O  2  Y    0.012990   0.000000   0.022669   0.000000  -0.009399
   28  O  2  Z    0.000000  -0.017732   0.000000  -0.040718   0.000000
   29  O  2 XX   -0.163720   0.000000   0.198903   0.000000  -0.031296
   30  O  2 YY    0.090397   0.000000   0.410256   0.000000  -0.563024
   31  O  2 ZZ    0.073322   0.000000  -0.609159   0.000000   0.594320
   32  O  2 XY   -0.032322   0.000000  -0.338870   0.000000   0.231347
   33  O  2 XZ    0.000000   0.383817   0.000000  -0.013553   0.000000
   34  O  2 YZ    0.000000  -0.594331   0.000000   0.709240   0.000000
   35  O  3  S    0.070458   0.000000   0.000413   0.000000   0.004945
   36  O  3  S   -1.263816   0.000000  -0.003186   0.000000  -0.052364
   37  O  3  S    2.192434   0.000000   0.003233   0.000000   0.031460
   38  O  3  X   -0.038583   0.000000   0.013459   0.000000  -0.039887
   39  O  3  Y   -0.083668   0.000000   0.016191   0.000000   0.012114
   40  O  3  Z    0.000000  -0.010377   0.000000   0.024849   0.000000
   41  O  3  X    0.724378   0.000000  -0.032780   0.000000   0.039118
   42  O  3  Y    0.013022   0.000000  -0.022669   0.000000  -0.009399
   43  O  3  Z    0.000000   0.017732   0.000000  -0.040718   0.000000
   44  O  3 XX   -0.163713   0.000000  -0.198902   0.000000  -0.031295
   45  O  3 YY    0.090395   0.000000  -0.410257   0.000000  -0.563023
   46  O  3 ZZ    0.073318   0.000000   0.609160   0.000000   0.594318
   47  O  3 XY    0.032314   0.000000  -0.338871   0.000000  -0.231347
   48  O  3 XZ    0.000000   0.383817   0.000000   0.013552   0.000000
   49  O  3 YZ    0.000000   0.594333   0.000000   0.709238   0.000000

                     41         42         43         44         45
                    2.2097     2.2687     2.4041     2.4199     2.8312
                     A          A          A          A          A   
    1  S  1  S    0.000000   0.000000   0.000000  -0.004503  -0.042716
    2  S  1  S    0.000000  -0.000000   0.000000   0.048427   0.385054
    3  S  1  S    0.000000   0.000002   0.000000  -0.269216  -1.461989
    4  S  1  S    0.000000  -0.000001   0.000000  -0.295394  -0.980208
    5  S  1  X    0.000000  -0.037382   0.000000  -0.000000   0.000000
    6  S  1  Y    0.000000  -0.000000   0.000000   0.090749   0.089811
    7  S  1  Z    0.079989   0.000000  -0.000000   0.000000   0.000000
    8  S  1  X    0.000000   0.280331   0.000000   0.000003  -0.000002
    9  S  1  Y    0.000000   0.000000   0.000000  -0.449662  -0.663585
   10  S  1  Z   -0.328719   0.000000   0.000000   0.000000   0.000000
   11  S  1  X    0.000000   0.053347   0.000000  -0.000002  -0.000002
   12  S  1  Y    0.000000  -0.000001   0.000000  -0.171382  -0.080866
   13  S  1  Z   -0.062160   0.000000  -0.000000   0.000000   0.000000
   14  S  1 XX    0.000000  -0.000000   0.000000   0.369253  -0.848604
   15  S  1 YY    0.000000   0.000000   0.000000  -0.407875   0.358405
   16  S  1 ZZ    0.000000   0.000000   0.000000   0.038623   0.490199
   17  S  1 XY    0.000000  -0.467218   0.000000   0.000000  -0.000002
   18  S  1 XZ    0.000000   0.000000   0.610020   0.000000   0.000000
   19  S  1 YZ   -0.277836   0.000000   0.000000   0.000000   0.000000
   20  O  2  S    0.000000  -0.014306   0.000000   0.015184  -0.009681
   21  O  2  S    0.000000   0.227888   0.000000  -0.309296  -0.491263
   22  O  2  S    0.000000  -0.270728   0.000000   0.472674   1.478687
   23  O  2  X    0.000000  -0.086278   0.000000   0.111022  -0.113866
   24  O  2  Y    0.000000  -0.079478   0.000000  -0.006258  -0.065487
   25  O  2  Z   -0.065114   0.000000   0.019224   0.000000   0.000000
   26  O  2  X    0.000000   0.083416   0.000000  -0.320148  -0.787209
   27  O  2  Y    0.000000   0.220461   0.000000   0.156148  -0.356610
   28  O  2  Z    0.187195   0.000000  -0.198675   0.000000   0.000000
   29  O  2 XX    0.000000   0.349408   0.000000   0.565223   0.566049
   30  O  2 YY    0.000000  -0.520509   0.000000  -0.439303  -0.110747
   31  O  2 ZZ    0.000000   0.171101   0.000000  -0.125920  -0.455303
   32  O  2 XY    0.000000  -0.508198   0.000000  -0.461441   0.653001
   33  O  2 XZ   -0.737419   0.000000   0.653462   0.000000   0.000000
   34  O  2 YZ   -0.025846   0.000000   0.408907   0.000000   0.000000
   35  O  3  S    0.000000   0.014306   0.000000   0.015184  -0.009680
   36  O  3  S    0.000000  -0.227889   0.000000  -0.309295  -0.491264
   37  O  3  S    0.000000   0.270728   0.000000   0.472674   1.478683
   38  O  3  X    0.000000  -0.086277   0.000000  -0.111023   0.113864
   39  O  3  Y    0.000000   0.079478   0.000000  -0.006258  -0.065487
   40  O  3  Z   -0.065114   0.000000  -0.019224   0.000000   0.000000
   41  O  3  X    0.000000   0.083416   0.000000   0.320151   0.787209
   42  O  3  Y    0.000000  -0.220461   0.000000   0.156148  -0.356609
   43  O  3  Z    0.187195   0.000000   0.198675   0.000000   0.000000
   44  O  3 XX    0.000000  -0.349410   0.000000   0.565227   0.566047
   45  O  3 YY    0.000000   0.520510   0.000000  -0.439305  -0.110745
   46  O  3 ZZ    0.000000  -0.171100   0.000000  -0.125922  -0.455302
   47  O  3 XY    0.000000  -0.508197   0.000000   0.461438  -0.653001
   48  O  3 XZ    0.737419   0.000000   0.653462   0.000000   0.000000
   49  O  3 YZ   -0.025846   0.000000  -0.408907   0.000000   0.000000

                     46
                    2.9052
                     A   
    1  S  1  S   -0.000000
    2  S  1  S    0.000000
    3  S  1  S    0.000000
    4  S  1  S   -0.000002
    5  S  1  X   -0.258117
    6  S  1  Y   -0.000000
    7  S  1  Z    0.000000
    8  S  1  X    1.763367
    9  S  1  Y    0.000000
   10  S  1  Z    0.000000
   11  S  1  X    0.154741
   12  S  1  Y   -0.000000
   13  S  1  Z    0.000000
   14  S  1 XX   -0.000003
   15  S  1 YY    0.000002
   16  S  1 ZZ    0.000002
   17  S  1 XY    0.661058
   18  S  1 XZ    0.000000
   19  S  1 YZ    0.000000
   20  O  2  S    0.011616
   21  O  2  S    0.434011
   22  O  2  S   -1.391386
   23  O  2  X    0.123114
   24  O  2  Y    0.032216
   25  O  2  Z    0.000000
   26  O  2  X    0.808965
   27  O  2  Y    0.319877
   28  O  2  Z    0.000000
   29  O  2 XX   -0.754441
   30  O  2 YY    0.355152
   31  O  2 ZZ    0.399289
   32  O  2 XY   -0.459553
   33  O  2 XZ    0.000000
   34  O  2 YZ    0.000000
   35  O  3  S   -0.011616
   36  O  3  S   -0.434008
   37  O  3  S    1.391386
   38  O  3  X    0.123116
   39  O  3  Y   -0.032217
   40  O  3  Z    0.000000
   41  O  3  X    0.808964
   42  O  3  Y   -0.319879
   43  O  3  Z    0.000000
   44  O  3 XX    0.754440
   45  O  3 YY   -0.355150
   46  O  3 ZZ   -0.399290
   47  O  3 XY   -0.459557
   48  O  3 XZ    0.000000
   49  O  3 YZ    0.000000
 ...... END OF RHF CALCULATION ......
 STEP CPU TIME =     2.48 TOTAL CPU TIME =          2.6 (      0.0 MIN)
 TOTAL WALL CLOCK TIME=          2.7 SECONDS, CPU UTILIZATION IS    97.42%

     ---------------------------------------------------------------------
     PROPERTIES FOR THE PBE      DFT FUNCTIONAL (RHF  TYPE) DENSITY MATRIX
     ---------------------------------------------------------------------

          -----------------
          ENERGY COMPONENTS
          -----------------

         WAVEFUNCTION NORMALIZATION =       1.0000000000

                ONE ELECTRON ENERGY =    -973.4689165741
                TWO ELECTRON ENERGY =     315.3957688986
           NUCLEAR REPULSION ENERGY =     109.8558930530
                                      ------------------
                       TOTAL ENERGY =    -548.2172546225

 ELECTRON-ELECTRON POTENTIAL ENERGY =     315.3957688986
  NUCLEUS-ELECTRON POTENTIAL ENERGY =   -1521.3600566986
   NUCLEUS-NUCLEUS POTENTIAL ENERGY =     109.8558930530
                                      ------------------
             TOTAL POTENTIAL ENERGY =   -1096.1083947470
               TOTAL KINETIC ENERGY =     547.8911401245
                 VIRIAL RATIO (V/T) =       2.0005952177

          ---------------------------------------
          MULLIKEN AND LOWDIN POPULATION ANALYSES
          ---------------------------------------

     ATOMIC MULLIKEN POPULATION IN EACH MOLECULAR ORBITAL

                      1          2          3          4          5

                  2.000000   2.000000   2.000000   2.000000   2.000000

    1             1.999875   0.001236   0.000983   2.001153   2.000095
    2             0.000063   1.053729   0.945162  -0.000576  -0.000048
    3             0.000063   0.945035   1.053856  -0.000576  -0.000048

                      6          7          8          9         10

                  2.000000   2.000000   2.000000   2.000000   2.000000

    1             2.000035   2.000016   0.737362   0.513568   0.737180
    2            -0.000018  -0.000008   0.631315   0.743220   0.631408
    3            -0.000018  -0.000008   0.631323   0.743211   0.631412

                     11         12         13         14         15

                  2.000000   2.000000   2.000000   2.000000   2.000000

    1             0.975631   0.897838   0.356820   0.136498   0.157330
    2             0.512184   0.551082   0.821590   0.931751   0.921335
    3             0.512185   0.551080   0.821590   0.931750   0.921334

                     16

                  2.000000

    1             0.971323
    2             0.514339
    3             0.514339

               ----- POPULATIONS IN EACH AO -----
                             MULLIKEN      LOWDIN
              1  S  1  S      1.99979     1.99922
              2  S  1  S      1.99184     1.88103
              3  S  1  S      1.25979     0.61945
              4  S  1  S      0.67600     0.51958
              5  S  1  X      1.99445     1.95879
              6  S  1  Y      1.99511     1.96680
              7  S  1  Z      1.99374     1.95930
              8  S  1  X      0.84359     0.66112
              9  S  1  Y      1.02485     0.93533
             10  S  1  Z      0.82507     0.72353
             11  S  1  X      0.02426     0.19131
             12  S  1  Y      0.12137     0.26113
             13  S  1  Z      0.14258     0.25452
             14  S  1 XX      0.06232     0.37960
             15  S  1 YY      0.21491     0.32172
             16  S  1 ZZ      0.16649     0.30184
             17  S  1 XY      0.13650     0.19166
             18  S  1 XZ      0.01428     0.16695
             19  S  1 YZ      0.00000     0.01381
             20  O  2  S      1.99545     1.97252
             21  O  2  S      0.94630     0.68532
             22  O  2  S      0.87022     0.50448
             23  O  2  X      0.92915     0.89047
             24  O  2  Y      1.08222     1.04964
             25  O  2  Z      0.87497     0.83269
             26  O  2  X      0.36999     0.53161
             27  O  2  Y      0.60197     0.65598
             28  O  2  Z      0.56052     0.59687
             29  O  2 XX      0.00241     0.21185
             30  O  2 YY      0.00789     0.19398
             31  O  2 ZZ      0.00701     0.19654
             32  O  2 XY      0.00732     0.01331
             33  O  2 XZ      0.00110     0.00992
             34  O  2 YZ      0.00000     0.00147
             35  O  3  S      1.99545     1.97252
             36  O  3  S      0.94630     0.68532
             37  O  3  S      0.87022     0.50448
             38  O  3  X      0.92915     0.89047
             39  O  3  Y      1.08222     1.04964
             40  O  3  Z      0.87497     0.83269
             41  O  3  X      0.36999     0.53161
             42  O  3  Y      0.60197     0.65598
             43  O  3  Z      0.56052     0.59687
             44  O  3 XX      0.00241     0.21185
             45  O  3 YY      0.00789     0.19398
             46  O  3 ZZ      0.00701     0.19654
             47  O  3 XY      0.00732     0.01331
             48  O  3 XZ      0.00110     0.00992
             49  O  3 YZ      0.00000     0.00147

          ----- MULLIKEN ATOMIC OVERLAP POPULATIONS -----
          (OFF-DIAGONAL ELEMENTS NEED TO BE MULTIPLIED BY 2)

             1           2           3

    1   14.8239436
    2    0.3314998   7.9307323
    3    0.3315004  -0.0057035   7.9307306

          TOTAL MULLIKEN AND LOWDIN ATOMIC POPULATIONS
       ATOM         MULL.POP.    CHARGE          LOW.POP.     CHARGE
    1 S            15.486944    0.513056        15.306683    0.693317
    2 O             8.256529   -0.256529         8.346659   -0.346659
    3 O             8.256528   -0.256528         8.346658   -0.346658

          MULLIKEN SPHERICAL HARMONIC POPULATIONS
       ATOM           S       P       D      F      G      H      I    TOTAL
    1 S             5.93    8.97    0.59   0.00   0.00   0.00   0.00   15.49
    2 O             3.81    4.42    0.03   0.00   0.00   0.00   0.00    8.26
    3 O             3.81    4.42    0.03   0.00   0.00   0.00   0.00    8.26

          -------------------------------
          BOND ORDER AND VALENCE ANALYSIS     BOND ORDER THRESHOLD=0.050
          -------------------------------

                   BOND                       BOND                       BOND
  ATOM PAIR DIST  ORDER      ATOM PAIR DIST  ORDER      ATOM PAIR DIST  ORDER
    1   2  1.400  1.960        1   3  1.400  1.960        2   3  2.587  0.221

                       TOTAL       BONDED        FREE
      ATOM            VALENCE     VALENCE     VALENCE
    1 S                 3.920       3.920       0.000
    2 O                 2.181       2.181       0.000
    3 O                 2.181       2.181      -0.000

          ---------------------
          ELECTROSTATIC MOMENTS
          ---------------------

 POINT   1           X           Y           Z (BOHR)    CHARGE
                 0.000000    0.000000    0.000000        0.00 (A.U.)
         DX          DY          DZ         /D/  (DEBYE)
    -0.000002   -0.702060    0.000000    0.702060
 ...... END OF PROPERTY EVALUATION ......
 STEP CPU TIME =     0.00 TOTAL CPU TIME =          2.6 (      0.0 MIN)
 TOTAL WALL CLOCK TIME=          2.7 SECONDS, CPU UTILIZATION IS    97.42%
                580000  WORDS OF DYNAMIC MEMORY USED
 EXECUTION OF GAMESS TERMINATED NORMALLY Sun Sep 29 10:46:15 2019
 DDI: 263640 bytes (0.3 MB / 0 MWords) used by master data server.

 ----------------------------------------
 CPU timing information for all processes
 ========================================
 0: 2.565 + 0.84 = 2.649
 ----------------------------------------
 ddikick.x: exited gracefully.
----- accounting info -----
Files used on the master node crcfe02.crc.nd.edu were:
-rw-r--r-- 1 cdrisko campus     208 Sep 29 10:46 /afs/crc.nd.edu/user/c/cdrisko/SO2.F05
-rw-r--r-- 1 cdrisko campus   37566 Sep 29 10:46 /afs/crc.nd.edu/user/c/cdrisko/SO2.F07
-rw-r--r-- 1 cdrisko campus 4140368 Sep 29 10:46 /afs/crc.nd.edu/user/c/cdrisko/SO2.F08
-rw-r--r-- 1 cdrisko campus 1766880 Sep 29 10:46 /afs/crc.nd.edu/user/c/cdrisko/SO2.F10
Sun Sep 29 10:46:18 EDT 2019
0.431u 0.249s 0:06.36 10.5%	0+0k 0+24io 0pf+0w
