----- GAMESS execution script 'rungms' -----
This job is running on host crcfe02.crc.nd.edu
under operating system Linux at Sun Sep 29 10:52:24 EDT 2019
Available scratch disk space (Kbyte units) at beginning of the job is
Filesystem      1K-blocks  Used  Available Use% Mounted on
AFS            2147483647     0 2147483647   0% /afs
GAMESS temporary binary files will be written to /afs/crc.nd.edu/user/c/cdrisko
GAMESS supplementary output files will be written to /afs/crc.nd.edu/user/c/cdrisko/scr
Copying input file SO2.inp to your run's scratch directory...

 Distributed Data Interface kickoff program.
 Initiating 1 compute processes on 1 nodes to run the following command:
 /afs/crc.nd.edu/x86_64_linux/g/gamess/nov-2017/gamess/gamess.00.x SO2 

          ******************************************************
          *         GAMESS VERSION = 11 NOV 2017 (R3)         *
          *             FROM IOWA STATE UNIVERSITY             *
          * M.W.SCHMIDT, K.K.BALDRIDGE, J.A.BOATZ, S.T.ELBERT, *
          *   M.S.GORDON, J.H.JENSEN, S.KOSEKI, N.MATSUNAGA,   *
          *          K.A.NGUYEN, S.J.SU, T.L.WINDUS,           *
          *       TOGETHER WITH M.DUPUIS, J.A.MONTGOMERY       *
          *         J.COMPUT.CHEM.  14, 1347-1363(1993)        *
          **************** 64 BIT INTEL VERSION ****************

  SINCE 1993, STUDENTS AND POSTDOCS WORKING AT IOWA STATE UNIVERSITY
  AND ALSO IN THEIR VARIOUS JOBS AFTER LEAVING ISU HAVE MADE IMPORTANT
  CONTRIBUTIONS TO THE CODE:
     IVANA ADAMOVIC, CHRISTINE AIKENS, YURI ALEXEEV, POOJA ARORA,
     ANDREY ASADCHEV, ROB BELL, PRADIPTA BANDYOPADHYAY, JONATHAN BENTZ,
     BRETT BODE, KURT BRORSEN, CALEB CARLIN, GALINA CHABAN, WEI CHEN,
     CHEOL HO CHOI, PAUL DAY, ALBERT DEFUSCO, NUWAN DESILVA, TIM DUDLEY,
     DMITRI FEDOROV, ALEX FINDLATER, GRAHAM FLETCHER, MARK FREITAG,
     KURT GLAESEMANN, ANASTASIA GUININA,
     DAN KEMP, GRANT MERRILL, NORIYUKI MINEZAWA, JONATHAN MULLIN,
     TAKESHI NAGATA, SEAN NEDD, HEATHER NETZLOFF, BOSILJKA NJEGIC, RYAN OLSON,
     MIKE PAK, BUU PHAM,
     SPENCER PRUITT, LUKE ROSKOP, JIM SHOEMAKER, LYUDMILA SLIPCHENKO,
     TONY SMITH, SAROM SOK LEANG, JIE SONG, TETSUYA TAKETSUGU, SIMON WEBB,
     PENG XU, SOOHAENG YOO, FEDERICO ZAHARIEV

  ADDITIONAL CODE HAS BEEN PROVIDED BY COLLABORATORS IN OTHER GROUPS:
     IOWA STATE UNIVERSITY:
          JOE IVANIC, AARON WEST, LAIMUTIS BYTAUTAS, KLAUS RUEDENBERG
     UNIVERSITY OF TOKYO: KIMIHIKO HIRAO, TAKAHITO NAKAJIMA,
          TAKAO TSUNEDA, MUNEAKI KAMIYA, SUSUMU YANAGISAWA,
          KIYOSHI YAGI, MAHITO CHIBA, SEIKEN TOKURA, NAOAKI KAWAKAMI
     UNIVERSITY OF AARHUS: FRANK JENSEN
     UNIVERSITY OF IOWA: VISVALDAS KAIRYS, HUI LI
     NATIONAL INST. OF STANDARDS AND TECHNOLOGY: WALT STEVENS, DAVID GARMER
     UNIVERSITY OF PISA: BENEDETTA MENNUCCI, JACOPO TOMASI
     UNIVERSITY OF MEMPHIS: HENRY KURTZ, PRAKASHAN KORAMBATH
     UNIVERSITY OF ALBERTA: TOBY ZENG, MARIUSZ KLOBUKOWSKI
     UNIVERSITY OF NEW ENGLAND: MARK SPACKMAN
     MIE UNIVERSITY: HIROAKI UMEDA
     NAT. INST. OF ADVANCED INDUSTRIAL SCIENCE AND TECHNOLOGY: KAZUO KITAURA
     MICHIGAN STATE UNIVERSITY:
          KAROL KOWALSKI, MARTA WLOCH, JEFFREY GOUR, JESSE LUTZ,
          WEI LI, PIOTR PIECUCH
     UNIVERSITY OF SILESIA: MONIKA MUSIAL, STANISLAW KUCHARSKI
     FACULTES UNIVERSITAIRES NOTRE-DAME DE LA PAIX:
          OLIVIER QUINET, BENOIT CHAMPAGNE
     UNIVERSITY OF CALIFORNIA - SANTA BARBARA: BERNARD KIRTMAN
     INSTITUTE FOR MOLECULAR SCIENCE:
          KAZUYA ISHIMURA, MICHIO KATOUDA, AND SHIGERU NAGASE
     UNIVERSITY OF NOTRE DAME: ANNA POMOGAEVA, DAN CHIPMAN
     KYUSHU UNIVERSITY:
          HARUYUKI NAKANO,
          FENG LONG GU, JACEK KORCHOWIEC, MARCIN MAKOWSKI, AND YURIKO AOKI,
          HIROTOSHI MORI AND EISAKU MIYOSHI
     PENNSYLVANIA STATE UNIVERSITY:
          TZVETELIN IORDANOV, CHET SWALINA, JONATHAN SKONE,
          SHARON HAMMES-SCHIFFER
     WASEDA UNIVERSITY:
          MASATO KOBAYASHI, TOMOKO AKAMA, TSUGUKI TOUMA,
          TAKESHI YOSHIKAWA, YASUHIRO IKABATA, JUNJI SEINO,
          YUYA NAKAJIMA, HIROMI NAKAI
     NANJING UNIVERSITY: SHUHUA LI
     UNIVERSITY OF NEBRASKA:
          PEIFENG SU, DEJUN SI, NANDUN THELLAMUREGE, YALI WANG, HUI LI
     UNIVERSITY OF ZURICH: ROBERTO PEVERATI, KIM BALDRIDGE
     N. COPERNICUS UNIVERSITY AND JACKSON STATE UNIVERSITY:
          MARIA BARYSZ
     UNIVERSITY OF COPENHAGEN: Jimmy Kromann, CASPER STEINMANN
     TOKYO INSTITUTE OF TECHNOLOGY: HIROYA NAKATA
     NAGOYA UNIVERSITY: YOSHIO NISHIMOTO, STEPHAN IRLE
     MOSCOW STATE UNIVERSITY: VLADIMIR MIRONOV

 EXECUTION OF GAMESS BEGUN Sun Sep 29 10:52:25 2019

            ECHO OF THE FIRST FEW INPUT CARDS -
 INPUT CARD> $BASIS GBASIS=PCSEG-1 $END                                                     
 INPUT CARD> $CONTRL COORD=ZMT ISPHER=1 RUNTYP=ENERGY DFTTYP=PBE MULT=1 $END                
 INPUT CARD>                                                                                
 INPUT CARD> $DATA                                                                          
 INPUT CARD>Title SO2 single-point calculation template with Z-Matrix                       
 INPUT CARD>C1                                                                              
 INPUT CARD>S                                                                               
 INPUT CARD>O 1 1.65                                                                        
 INPUT CARD>O 1 1.65 2 100                                                                  
 INPUT CARD> $END                                                                           
    1000000 WORDS OF MEMORY AVAILABLE

     BASIS OPTIONS
     -------------
     GBASIS=PCSEG-1      IGAUSS=       0      POLAR=NONE    
     NDFUNC=       0     NFFUNC=       0     DIFFSP=       F
     NPFUNC=       0      DIFFS=       F     BASNAM=        


     RUN TITLE
     ---------
 Title SO2 single-point calculation template with Z-Matrix                       

 THE POINT GROUP OF THE MOLECULE IS C1      
 THE ORDER OF THE PRINCIPAL AXIS IS     0

 YOUR FULLY SUBSTITUTED Z-MATRIX IS
 S   
 O      1   1.6500000
 O      1   1.6500000  2  100.0000

 THE MOMENTS OF INERTIA ARE (AMU-ANGSTROM**2)
 IXX=    17.987   IYY=    51.108   IZZ=    69.095

 ATOM      ATOMIC                      COORDINATES (BOHR)
           CHARGE         X                   Y                   Z
 S          16.0     0.0000000000       -1.0023993694        0.0000000000
 O           8.0     2.3885632517        1.0018431741        0.0000000000
 O           8.0    -2.3885632517        1.0018431741        0.0000000000

          INTERNUCLEAR DISTANCES (ANGS.)
          ------------------------------

                1 S          2 O          3 O     

   1 S       0.0000000    1.6500000 *  1.6500000 *
   2 O       1.6500000 *  0.0000000    2.5279467 *
   3 O       1.6500000 *  2.5279467 *  0.0000000  

  * ... LESS THAN  3.000


     ATOMIC BASIS SET
     ----------------
 THE CONTRACTED PRIMITIVE FUNCTIONS HAVE BEEN UNNORMALIZED
 THE CONTRACTED BASIS FUNCTIONS ARE NOW NORMALIZED TO UNITY

  SHELL TYPE  PRIMITIVE        EXPONENT          CONTRACTION COEFFICIENT(S)

 S         

      1   S       1         49299.4000000    0.000677492991
      1   S       2          7395.8400000    0.005232317766
      1   S       3          1683.3000000    0.026769459077
      1   S       4           476.1440000    0.102869580705
      1   S       5           154.3290000    0.286438127414
      1   S       6            55.0288000    0.454278639081
      1   S       7            20.5029000    0.271743121997

      2   S       8            45.9596000   -0.088421914560
      2   S       9             4.9274000    0.564350486135
      2   S      10             1.9179900    0.505415953466

      3   S      11             0.3684980    1.000000000000

      4   S      12             0.1291650    1.000000000000

      5   P      13           451.6620000    0.003707705453
      5   P      14           106.0980000    0.029219352245
      5   P      15            33.6996000    0.124444551509
      5   P      16            12.3054000    0.321808587656
      5   P      17             4.7141200    0.462822172957
      5   P      18             1.7810500    0.266513371364

      6   P      19             0.8722350    0.349265132972
      6   P      20             0.3102780    0.717115018770

      7   P      21             0.1001940    1.000000000000

      8   D      22             0.5500000    1.000000000000

 O         

      9   S      23          2288.6400000    0.005451138222
      9   S      24           344.4160000    0.040718922842
      9   S      25            78.2538000    0.181369420873
      9   S      26            21.7195000    0.465536820246
      9   S      27             6.5590700    0.451211321214

     10   S      28            10.4656000   -0.150211201174
     10   S      29             0.9643510    1.052867983385

     11   S      30             0.2851270    1.000000000000

     12   P      31            17.0590000    0.068749256972
     12   P      32             3.6899900    0.351671941499
     12   P      33             0.9929960    0.724532099722

     13   P      34             0.2449240    1.000000000000

     14   D      35             1.0000000    1.000000000000

 O         

     15   S      36          2288.6400000    0.005451138222
     15   S      37           344.4160000    0.040718922842
     15   S      38            78.2538000    0.181369420873
     15   S      39            21.7195000    0.465536820246
     15   S      40             6.5590700    0.451211321214

     16   S      41            10.4656000   -0.150211201174
     16   S      42             0.9643510    1.052867983385

     17   S      43             0.2851270    1.000000000000

     18   P      44            17.0590000    0.068749256972
     18   P      45             3.6899900    0.351671941499
     18   P      46             0.9929960    0.724532099722

     19   P      47             0.2449240    1.000000000000

     20   D      48             1.0000000    1.000000000000

 TOTAL NUMBER OF BASIS SET SHELLS             =   20
 NUMBER OF CARTESIAN GAUSSIAN BASIS FUNCTIONS =   49
 NOTE: THIS RUN WILL RESTRICT THE MO VARIATION SPACE TO SPHERICAL HARMONICS.
 THE NUMBER OF ORBITALS KEPT IN THE VARIATIONAL SPACE WILL BE PRINTED LATER.
 NUMBER OF ELECTRONS                          =   32
 CHARGE OF MOLECULE                           =    0
 SPIN MULTIPLICITY                            =    1
 NUMBER OF OCCUPIED ORBITALS (ALPHA)          =   16
 NUMBER OF OCCUPIED ORBITALS (BETA )          =   16
 TOTAL NUMBER OF ATOMS                        =    3
 THE NUCLEAR REPULSION ENERGY IS       95.4998270531

     LEBEDEV GRID-BASED DFT OPTIONS
     ------------------------------
     DFTTYP=PBE     
     NRAD  =      96     NLEB  =     302
     NRAD0 =      24     NLEB0 =     110
     SWOFF =    5.00E-03 (PURE SCF -> DFT)
     SWITCH=    3.00E-04 (COARSE -> TIGHT GRID)
     THRESH=    0.00E+00 GTHRE=    1.00E+00

 GRIMME'S EMPIRICAL DISPERSION CORRECTION= F

     $CONTRL OPTIONS
     ---------------
 SCFTYP=RHF          RUNTYP=ENERGY       EXETYP=RUN     
 MPLEVL=       0     CITYP =NONE         CCTYP =NONE         VBTYP =NONE    
 DFTTYP=PBE          TDDFT =NONE    
 MULT  =       1     ICHARG=       0     NZVAR =       0     COORD =ZMT     
 PP    =NONE         RELWFN=NONE         LOCAL =NONE         NUMGRD=       F
 ISPHER=       1     NOSYM =       0     MAXIT =      30     UNITS =ANGS    
 PLTORB=       F     MOLPLT=       F     AIMPAC=       F     FRIEND=        
 NPRINT=       7     IREST =       0     GEOM  =INPUT   
 NORMF =       0     NORMP =       0     ITOL  =      20     ICUT  =       9
 INTTYP=BEST         GRDTYP=BEST         QMTTOL= 1.0E-06

     $SYSTEM OPTIONS
     ---------------
  REPLICATED MEMORY=     1000000 WORDS (ON EVERY NODE).
 DISTRIBUTED MEMDDI=           0 MILLION WORDS IN AGGREGATE,
 MEMDDI DISTRIBUTED OVER   1 PROCESSORS IS           0 WORDS/PROCESSOR.
 TOTAL MEMORY REQUESTED ON EACH PROCESSOR=     1000000 WORDS.
 TIMLIM=      525600.00 MINUTES, OR     365.0 DAYS.
 PARALL= F  BALTYP=  DLB     KDIAG=    0  COREFL= F
 MXSEQ2=     300 MXSEQ3=     150  mem10=         0

          ----------------
          PROPERTIES INPUT
          ----------------

     MOMENTS            FIELD           POTENTIAL          DENSITY
 IEMOM =       1   IEFLD =       0   IEPOT =       0   IEDEN =       0
 WHERE =COMASS     WHERE =NUCLEI     WHERE =NUCLEI     WHERE =NUCLEI  
 OUTPUT=BOTH       OUTPUT=BOTH       OUTPUT=BOTH       OUTPUT=BOTH    
 IEMINT=       0   IEFINT=       0                     IEDINT=       0
                                                       MORB  =       0
          EXTRAPOLATION IN EFFECT
          DIIS IN EFFECT
 ORBITAL PRINTING OPTION: NPREO=     1    49     2     1

     -------------------------------
     INTEGRAL TRANSFORMATION OPTIONS
     -------------------------------
     NWORD  =            0
     CUTOFF = 1.0E-09     MPTRAN =       0
     DIRTRF =       F     AOINTS =DUP     

          ----------------------
          INTEGRAL INPUT OPTIONS
          ----------------------
 NOPK  =       1 NORDER=       0 SCHWRZ=       F

   --- ENCODED Z MATRIX ---
 COORD  TYPE   I   J   K   L   M   N
    1      1    2   1
    2      1    3   1
    3      2    3   1   2

 THE DETERMINANT OF THE G MATRIX IS 10**(    -4)

 THE DETERMINANT OF THE G MATRIX IS 10**(    -4)
 * * * WARNING * * *
 YOUR B MATRIX HAS A SMALL DETERMINANT.
 THIS SUGGESTS YOU MAY HAVE BADLY CHOSEN COORDINATES.

     ------------------------------------------
     THE POINT GROUP IS C1 , NAXIS= 0, ORDER= 1
     ------------------------------------------

 -- VARIATIONAL SPACE WILL BE RESTRICTED TO PURE SPHERICAL HARMONICS ONLY --
 AFTER EXCLUDING CONTAMINANT COMBINATIONS FROM THE CARTESIAN GAUSSIAN BASIS
 SET, THE NUMBER OF SPHERICAL HARMONICS KEPT IN THE VARIATION SPACE IS   46

     DIMENSIONS OF THE SYMMETRY SUBSPACES ARE
 A   =   46

 ..... DONE SETTING UP THE RUN .....
 STEP CPU TIME =     0.03 TOTAL CPU TIME =          0.0 (      0.0 MIN)
 TOTAL WALL CLOCK TIME=          0.0 SECONDS, CPU UTILIZATION IS   100.00%

          ********************
          1 ELECTRON INTEGRALS
          ********************
 ...... END OF ONE-ELECTRON INTEGRALS ......
 STEP CPU TIME =     0.00 TOTAL CPU TIME =          0.0 (      0.0 MIN)
 TOTAL WALL CLOCK TIME=          0.0 SECONDS, CPU UTILIZATION IS   100.00%

          -------------
          GUESS OPTIONS
          -------------
          GUESS =HUCKEL            NORB  =       0          NORDER=       0
          MIX   =       F          PRTMO =       F          PUNMO =       F
          TOLZ  = 1.0E-08          TOLE  = 1.0E-05
          SYMDEN=       F          PURIFY=       F

 INITIAL GUESS ORBITALS GENERATED BY HUCKEL   ROUTINE.
 HUCKEL GUESS REQUIRES     21634 WORDS.

 STATISTICS FOR GENERATION OF SYMMETRY ORBITAL -Q- MATRIX
 NUMBER OF CARTESIAN ATOMIC ORBITALS=         49
 NUMBER OF SPHERICAL CONTAMINANTS DROPPED=     3
 NUMBER OF LINEARLY DEPENDENT MOS DROPPED=     0
 TOTAL NUMBER OF MOS IN VARIATION SPACE=      46

 SYMMETRIES FOR INITIAL GUESS ORBITALS FOLLOW.   BOTH SET(S).
    16 ORBITALS ARE OCCUPIED (    7 CORE ORBITALS).
     8=A        9=A       10=A       11=A       12=A       13=A       14=A   
    15=A       16=A       17=A       18=A       19=A       20=A       21=A   
    22=A       23=A       24=A       25=A       26=A   
 ...... END OF INITIAL ORBITAL SELECTION ......
 STEP CPU TIME =     0.01 TOTAL CPU TIME =          0.0 (      0.0 MIN)
 TOTAL WALL CLOCK TIME=          0.0 SECONDS, CPU UTILIZATION IS   100.00%

                    ----------------------
                    AO INTEGRAL TECHNOLOGY
                    ----------------------
     S,P,L SHELL ROTATED AXIS INTEGRALS, REPROGRAMMED BY
        KAZUYA ISHIMURA (IMS) AND JOSE SIERRA (SYNSTAR).
     S,P,D,L SHELL ROTATED AXIS INTEGRALS PROGRAMMED BY
        KAZUYA ISHIMURA (INSTITUTE FOR MOLECULAR SCIENCE).
     S,P,D,F,G SHELL TO TOTAL QUARTET ANGULAR MOMENTUM SUM 5,
        ERIC PROGRAM BY GRAHAM FLETCHER (ELORET AND NASA ADVANCED
        SUPERCOMPUTING DIVISION, AMES RESEARCH CENTER).
     S,P,D,F,G,L SHELL GENERAL RYS QUADRATURE PROGRAMMED BY
        MICHEL DUPUIS (PACIFIC NORTHWEST NATIONAL LABORATORY).

          --------------------
          2 ELECTRON INTEGRALS
          --------------------

 THE -PK- OPTION IS OFF, THE INTEGRALS ARE NOT IN SUPERMATRIX FORM.
 STORING   15000 INTEGRALS/RECORD ON DISK, USING 12 BYTES/INTEGRAL.
 TWO ELECTRON INTEGRAL EVALUATION REQUIRES   90606 WORDS OF MEMORY.
 II,JST,KST,LST =  1  1  1  1 NREC =         1 INTLOC =    1
 II,JST,KST,LST =  2  1  1  1 NREC =         1 INTLOC =    2
 II,JST,KST,LST =  3  1  1  1 NREC =         1 INTLOC =    7
 II,JST,KST,LST =  4  1  1  1 NREC =         1 INTLOC =   22
 II,JST,KST,LST =  5  1  1  1 NREC =         1 INTLOC =   56
 II,JST,KST,LST =  6  1  1  1 NREC =         1 INTLOC =  125
 II,JST,KST,LST =  7  1  1  1 NREC =         1 INTLOC =  329
 II,JST,KST,LST =  8  1  1  1 NREC =         1 INTLOC =  776
 II,JST,KST,LST =  9  1  1  1 NREC =         1 INTLOC = 2864
 II,JST,KST,LST = 10  1  1  1 NREC =         1 INTLOC = 4882
 II,JST,KST,LST = 11  1  1  1 NREC =         1 INTLOC = 7534
 II,JST,KST,LST = 12  1  1  1 NREC =         1 INTLOC =10644
 II,JST,KST,LST = 13  1  1  1 NREC =         2 INTLOC = 6522
 II,JST,KST,LST = 14  1  1  1 NREC =         3 INTLOC = 6770
 II,JST,KST,LST = 15  1  1  1 NREC =         6 INTLOC = 8682
 II,JST,KST,LST = 16  1  1  1 NREC =         7 INTLOC =  947
 II,JST,KST,LST = 17  1  1  1 NREC =         7 INTLOC =12626
 II,JST,KST,LST = 18  1  1  1 NREC =         8 INTLOC =11027
 II,JST,KST,LST = 19  1  1  1 NREC =        11 INTLOC = 6422
 II,JST,KST,LST = 20  1  1  1 NREC =        14 INTLOC =13556
 TOTAL NUMBER OF NONZERO TWO-ELECTRON INTEGRALS =              341480
         23 INTEGRAL RECORDS WERE STORED ON DISK FILE  8.
  ...... END OF TWO-ELECTRON INTEGRALS .....
 STEP CPU TIME =     0.12 TOTAL CPU TIME =          0.2 (      0.0 MIN)
 TOTAL WALL CLOCK TIME=          0.2 SECONDS, CPU UTILIZATION IS   100.00%

          --------------------------
               R-PBE SCF CALCULATION
          --------------------------

     NUCLEAR ENERGY =        95.4998270531
     MAXIT =   30     NPUNCH=    2
     EXTRAP=T  DAMP=F  SHIFT=F  RSTRCT=F  DIIS=T  DEM=F  SOSCF=F
         DENSITY MATRIX CONVERGENCE THRESHOLD=  1.00E-05
     COARSE -> FINE DFT GRID SWITCH THRESHOLD=  3.00E-04 (SWITCH IN $DFT)
                   HF -> DFT SWITCH THRESHOLD=  5.00E-03 (SWOFF IN $DFT)
     MEMORY REQUIRED FOR RHF ITERS=    183108 WORDS.

 DFT CODE IS SWITCHING FROM THE FINE GRID NRAD= 96,  NLEB=  302
                      TO THE COARSE GRID NRAD0= 24, NLEB0=  110

     EXCHANGE FUNCTIONAL   =PBE       
     CORRELATION FUNCTIONAL=PBE       
     DFT THRESHOLD         =.460E-07
     GRID CHANGE THRESHOLD =.300E-03
 FOR AN EULER-MACLAURIN QUADRATURE USING  96 RADIAL POINTS:
 SMALLEST GAUSSIAN PRIMITIVE EXPONENT=        0.1001940000 OF TYPE -P-
 ON ATOM NUMBER   1 HAS RADIAL NORMALIZATION=  1.000000
  LARGEST GAUSSIAN PRIMITIVE EXPONENT=    49299.4000000000 OF TYPE -S-
 ON ATOM NUMBER   1 HAS RADIAL NORMALIZATION=  1.000000
 DFT IS SWITCHED OFF, PERFORMING PURE SCF UNTIL SWOFF THRESHOLD IS REACHED.

 ITER EX DEM     TOTAL ENERGY        E CHANGE  DENSITY CHANGE    DIIS ERROR
   1  0  0     -546.0018393976  -546.0018393976   0.691917483   0.945467704
          * * *   INITIATING DIIS PROCEDURE   * * *
   2  1  0     -546.5191408410    -0.5173014434   0.753758273   0.348467164
   3  2  0     -546.5195003702    -0.0003595293   0.297023231   0.357552981
   4  3  0     -546.9956140868    -0.4761137165   0.028331688   0.009612395
   5  4  0     -546.9965396392    -0.0009255524   0.006887069   0.007064936
   6  5  0     -546.9967234722    -0.0001838330   0.002815786   0.002348132
 CONVERGED TO SWOFF, SO DFT CALCULATION IS NOW SWITCHED ON.
          * * *   INITIATING DIIS PROCEDURE   * * *
   7  6  0     -548.1541960729    -1.1574726007   0.467348896   0.099379662
   8  7  0     -548.1279535534     0.0262425196   0.415370212   0.151373221
   9  8  0     -548.1477460114    -0.0197924580   0.125387981   0.132037378
  10  9  0     -548.1956682757    -0.0479222643   0.028937253   0.013551694
  11 10  0     -548.1963334345    -0.0006651589   0.002220627   0.001013752
  12 11  0     -548.1963379410    -0.0000045065   0.000725275   0.000555935
  13 12  0     -548.1963378156     0.0000001255   0.000539994   0.000732429
  14 13  0     -548.1963387259    -0.0000009103   0.000076675   0.000081723
 DFT CODE IS SWITCHING BACK TO THE FINE GRID
          * * *   INITIATING DIIS PROCEDURE   * * *
  15 14  0     -548.2021834134    -0.0058446876   0.017388948   0.011834309
  16 15  0     -548.2021780071     0.0000054063   0.024432491   0.008582305
  17 16  0     -548.2021065108     0.0000714963   0.014373408   0.010719525
  18 17  0     -548.2024052348    -0.0002987240   0.000759693   0.000459153
  19 18  0     -548.2024058005    -0.0000005657   0.000299982   0.000111830
  20 19  0     -548.2024056131     0.0000001874   0.000260697   0.000381017
  21 20  0     -548.2024058602    -0.0000002471   0.000019303   0.000019127
  22 21  0     -548.2024058610    -0.0000000008   0.000001463   0.000001198
  23 22  0     -548.2024058610    -0.0000000000   0.000000898   0.000000544

          -----------------
          DENSITY CONVERGED
          -----------------
     TIME TO FORM FOCK OPERATORS=       2.5 SECONDS (       0.1 SEC/ITER)
     TIME TO SOLVE SCF EQUATIONS=       0.0 SECONDS (       0.0 SEC/ITER)

 FINAL R-PBE ENERGY IS     -548.2024058610 AFTER  23 ITERATIONS
 DFT EXCHANGE + CORRELATION ENERGY =       -42.3057180915
 TOTAL ELECTRON NUMBER             =        32.0000028556

          ------------
          EIGENVECTORS
          ------------

                      1          2          3          4          5
                  -88.2298   -18.8088   -18.8088    -7.8455    -5.8713
                     A          A          A          A          A   
    1  S  1  S    0.997762  -0.000008  -0.000000  -0.308395  -0.000000
    2  S  1  S    0.008222  -0.000014  -0.000000   1.031767   0.000000
    3  S  1  S   -0.002898  -0.001045  -0.000006   0.027801   0.000000
    4  S  1  S    0.001023   0.008009   0.000043  -0.006029  -0.000000
    5  S  1  X   -0.000000   0.000001  -0.000116  -0.000000   0.994704
    6  S  1  Y    0.000123  -0.000192  -0.000001   0.008100  -0.000002
    7  S  1  Z    0.000000   0.000000   0.000000   0.000000   0.000000
    8  S  1  X    0.000000  -0.000008   0.001532  -0.000000   0.017006
    9  S  1  Y   -0.000311   0.001707   0.000009   0.000927  -0.000000
   10  S  1  Z    0.000000   0.000000   0.000000   0.000000   0.000000
   11  S  1  X    0.000000  -0.000015   0.002810  -0.000000  -0.002748
   12  S  1  Y    0.000047   0.003744   0.000020  -0.000195   0.000000
   13  S  1  Z    0.000000   0.000000   0.000000   0.000000   0.000000
   14  S  1 XX   -0.000096   0.000536   0.000003   0.000385  -0.000000
   15  S  1 YY   -0.000021   0.000364   0.000002  -0.000030  -0.000000
   16  S  1 ZZ    0.000118  -0.000900  -0.000005  -0.000355   0.000000
   17  S  1 XY    0.000000  -0.000004   0.000685  -0.000000   0.001126
   18  S  1 XZ    0.000000   0.000000   0.000000   0.000000   0.000000
   19  S  1 YZ    0.000000   0.000000   0.000000   0.000000   0.000000
   20  O  2  S   -0.000009   0.698596   0.706045   0.000011  -0.000099
   21  O  2  S   -0.000101   0.023715   0.023487  -0.000073  -0.000073
   22  O  2  S    0.000169  -0.012027  -0.010056  -0.000116  -0.000630
   23  O  2  X   -0.000007  -0.000633  -0.000730   0.000181  -0.000017
   24  O  2  Y    0.000003  -0.000567  -0.000644   0.000129   0.000041
   25  O  2  Z    0.000000   0.000000   0.000000   0.000000   0.000000
   26  O  2  X   -0.000231   0.002416   0.001606   0.000574   0.000776
   27  O  2  Y   -0.000220   0.001549   0.001609   0.000567   0.000735
   28  O  2  Z    0.000000   0.000000   0.000000   0.000000   0.000000
   29  O  2 XX    0.000080  -0.000155  -0.000135  -0.000114   0.000183
   30  O  2 YY    0.000025   0.000014  -0.000072  -0.000048  -0.000060
   31  O  2 ZZ   -0.000105   0.000142   0.000207   0.000161  -0.000123
   32  O  2 XY    0.000180  -0.000300  -0.000226  -0.000276   0.000190
   33  O  2 XZ    0.000000   0.000000   0.000000   0.000000   0.000000
   34  O  2 YZ    0.000000   0.000000   0.000000   0.000000   0.000000
   35  O  3  S   -0.000009   0.706067  -0.698574   0.000011   0.000099
   36  O  3  S   -0.000101   0.023964  -0.023233  -0.000073   0.000073
   37  O  3  S    0.000169  -0.012134   0.009927  -0.000116   0.000630
   38  O  3  X    0.000007   0.000641  -0.000723  -0.000181  -0.000017
   39  O  3  Y    0.000003  -0.000573   0.000638   0.000129  -0.000041
   40  O  3  Z    0.000000   0.000000   0.000000   0.000000   0.000000
   41  O  3  X    0.000231  -0.002433   0.001580  -0.000574   0.000776
   42  O  3  Y   -0.000220   0.001566  -0.001592   0.000567  -0.000735
   43  O  3  Z    0.000000   0.000000   0.000000   0.000000   0.000000
   44  O  3 XX    0.000080  -0.000157   0.000133  -0.000114  -0.000183
   45  O  3 YY    0.000025   0.000013   0.000072  -0.000048   0.000060
   46  O  3 ZZ   -0.000105   0.000144  -0.000205   0.000161   0.000123
   47  O  3 XY   -0.000180   0.000303  -0.000222   0.000276   0.000190
   48  O  3 XZ    0.000000   0.000000   0.000000   0.000000   0.000000
   49  O  3 YZ    0.000000   0.000000   0.000000   0.000000   0.000000

                      6          7          8          9         10
                   -5.8698    -5.8669    -0.9731    -0.8937    -0.6290
                     A          A          A          A          A   
    1  S  1  S    0.000000   0.002507   0.046332  -0.000000   0.072378
    2  S  1  S    0.000000  -0.008586  -0.286495   0.000001  -0.462262
    3  S  1  S    0.000000  -0.000574   0.406689  -0.000002   0.705773
    4  S  1  S    0.000000   0.001788   0.080769   0.000005   0.268469
    5  S  1  X    0.000000   0.000002   0.000000   0.092323   0.000000
    6  S  1  Y    0.000000   0.994812  -0.059166  -0.000000   0.048453
    7  S  1  Z    0.994960   0.000000   0.000000   0.000000   0.000000
    8  S  1  X    0.000000   0.000000   0.000000  -0.210671  -0.000000
    9  S  1  Y    0.000000   0.016446   0.130891   0.000001  -0.116432
   10  S  1  Z    0.015935   0.000000   0.000000   0.000000   0.000000
   11  S  1  X    0.000000  -0.000000   0.000002   0.001584  -0.000001
   12  S  1  Y    0.000000  -0.002510  -0.013788   0.000003  -0.043334
   13  S  1  Z   -0.003143   0.000000   0.000000   0.000000   0.000000
   14  S  1 XX    0.000000  -0.000018   0.022476   0.000000  -0.006281
   15  S  1 YY    0.000000   0.000619   0.006822   0.000000  -0.008340
   16  S  1 ZZ    0.000000  -0.000601  -0.029298  -0.000001   0.014621
   17  S  1 XY    0.000000   0.000000   0.000000  -0.065851  -0.000000
   18  S  1 XZ   -0.000000   0.000000   0.000000   0.000000   0.000000
   19  S  1 YZ    0.000408   0.000000   0.000000   0.000000   0.000000
   20  O  2  S    0.000000  -0.000087  -0.138274   0.167455   0.106220
   21  O  2  S    0.000000   0.000032   0.282525  -0.348531  -0.225884
   22  O  2  S    0.000000  -0.000831   0.269124  -0.338612  -0.277784
   23  O  2  X    0.000000   0.000003  -0.077673   0.056744  -0.073189
   24  O  2  Y    0.000000  -0.000053  -0.060776   0.060745  -0.078657
   25  O  2  Z   -0.000065   0.000000   0.000000   0.000000   0.000000
   26  O  2  X    0.000000   0.000777  -0.030477   0.020126  -0.033211
   27  O  2  Y    0.000000   0.000425  -0.025152   0.023023  -0.034366
   28  O  2  Z   -0.000083   0.000000   0.000000   0.000000   0.000000
   29  O  2 XX    0.000000  -0.000035   0.003904  -0.000814   0.001303
   30  O  2 YY    0.000000   0.000193   0.000640  -0.001022   0.002450
   31  O  2 ZZ    0.000000  -0.000159  -0.004543   0.001836  -0.003753
   32  O  2 XY    0.000000   0.000304   0.011170  -0.008471   0.004449
   33  O  2 XZ    0.000150   0.000000   0.000000   0.000000   0.000000
   34  O  2 YZ    0.000119   0.000000   0.000000   0.000000   0.000000
   35  O  3  S    0.000000  -0.000087  -0.138274  -0.167454   0.106220
   36  O  3  S    0.000000   0.000032   0.282525   0.348531  -0.225885
   37  O  3  S    0.000000  -0.000831   0.269128   0.338604  -0.277785
   38  O  3  X    0.000000  -0.000003   0.077673   0.056744   0.073189
   39  O  3  Y    0.000000  -0.000053  -0.060776  -0.060745  -0.078658
   40  O  3  Z   -0.000065   0.000000   0.000000   0.000000   0.000000
   41  O  3  X    0.000000  -0.000777   0.030478   0.020123   0.033212
   42  O  3  Y    0.000000   0.000425  -0.025153  -0.023022  -0.034365
   43  O  3  Z   -0.000083   0.000000   0.000000   0.000000   0.000000
   44  O  3 XX    0.000000  -0.000035   0.003904   0.000814   0.001303
   45  O  3 YY    0.000000   0.000193   0.000640   0.001022   0.002450
   46  O  3 ZZ    0.000000  -0.000159  -0.004543  -0.001836  -0.003753
   47  O  3 XY    0.000000  -0.000304  -0.011170  -0.008471  -0.004449
   48  O  3 XZ   -0.000150   0.000000   0.000000   0.000000   0.000000
   49  O  3 YZ    0.000119   0.000000   0.000000   0.000000   0.000000

                     11         12         13         14         15
                   -0.4260    -0.4138    -0.4065    -0.3002    -0.2948
                     A          A          A          A          A   
    1  S  1  S    0.000000  -0.009888   0.000000   0.000000   0.013560
    2  S  1  S   -0.000000   0.062184   0.000000   0.000000  -0.088001
    3  S  1  S    0.000000  -0.060302   0.000000   0.000000   0.113571
    4  S  1  S    0.000000  -0.213067   0.000000   0.000000   0.234537
    5  S  1  X   -0.193081  -0.000000   0.000000   0.000000   0.000000
    6  S  1  Y    0.000000  -0.213830   0.000000   0.000000   0.070243
    7  S  1  Z    0.000000   0.000000  -0.223468   0.000000   0.000000
    8  S  1  X    0.522854   0.000001   0.000000   0.000000  -0.000000
    9  S  1  Y   -0.000001   0.576857   0.000000   0.000000  -0.193007
   10  S  1  Z    0.000000   0.000000   0.607882  -0.000001   0.000000
   11  S  1  X    0.051300   0.000001   0.000000   0.000000   0.000001
   12  S  1  Y   -0.000000   0.094283   0.000000   0.000000  -0.009027
   13  S  1  Z    0.000000   0.000000   0.176645  -0.000000   0.000000
   14  S  1 XX   -0.000000  -0.017918   0.000000   0.000000  -0.110132
   15  S  1 YY   -0.000000   0.040813   0.000000   0.000000   0.075646
   16  S  1 ZZ    0.000000  -0.022895   0.000000   0.000000   0.034486
   17  S  1 XY    0.049356   0.000000   0.000000   0.000000  -0.000000
   18  S  1 XZ    0.000000   0.000000  -0.000000  -0.090226   0.000000
   19  S  1 YZ    0.000000   0.000000   0.041956   0.000000   0.000000
   20  O  2  S    0.064009   0.041563   0.000000   0.000000  -0.001917
   21  O  2  S   -0.134741  -0.089164   0.000000   0.000000   0.005500
   22  O  2  S   -0.214153  -0.128781   0.000000   0.000000  -0.018658
   23  O  2  X   -0.204440  -0.309713   0.000000   0.000000  -0.107034
   24  O  2  Y   -0.285328  -0.026638   0.000000   0.000000   0.437359
   25  O  2  Z    0.000000   0.000000   0.282957  -0.474021   0.000000
   26  O  2  X   -0.108321  -0.186074   0.000000   0.000000  -0.082740
   27  O  2  Y   -0.157106  -0.009370   0.000000   0.000000   0.318592
   28  O  2  Z    0.000000   0.000000   0.174168  -0.337673   0.000000
   29  O  2 XX   -0.000268   0.014162   0.000000   0.000000   0.009829
   30  O  2 YY    0.007627  -0.008078   0.000000   0.000000  -0.013420
   31  O  2 ZZ   -0.007359  -0.006083   0.000000   0.000000   0.003591
   32  O  2 XY    0.010871   0.007043   0.000000   0.000000  -0.008730
   33  O  2 XZ    0.000000   0.000000  -0.013503   0.011685   0.000000
   34  O  2 YZ    0.000000   0.000000  -0.011113   0.012313   0.000000
   35  O  3  S   -0.064009   0.041563   0.000000   0.000000  -0.001917
   36  O  3  S    0.134740  -0.089164   0.000000   0.000000   0.005499
   37  O  3  S    0.214153  -0.128779   0.000000   0.000000  -0.018657
   38  O  3  X   -0.204440   0.309713   0.000000   0.000000   0.107039
   39  O  3  Y    0.285329  -0.026637   0.000000   0.000000   0.437361
   40  O  3  Z    0.000000   0.000000   0.282958   0.474022   0.000000
   41  O  3  X   -0.108320   0.186075   0.000000   0.000000   0.082743
   42  O  3  Y    0.157106  -0.009370   0.000000   0.000000   0.318593
   43  O  3  Z    0.000000   0.000000   0.174169   0.337672   0.000000
   44  O  3 XX    0.000268   0.014162   0.000000   0.000000   0.009829
   45  O  3 YY   -0.007627  -0.008078   0.000000   0.000000  -0.013420
   46  O  3 ZZ    0.007358  -0.006083   0.000000   0.000000   0.003591
   47  O  3 XY    0.010871  -0.007043   0.000000   0.000000   0.008730
   48  O  3 XZ    0.000000   0.000000   0.013503   0.011685   0.000000
   49  O  3 YZ    0.000000   0.000000  -0.011113  -0.012313   0.000000

                     16         17         18         19         20
                   -0.2686    -0.2109    -0.0803    -0.0353     0.2105
                     A          A          A          A          A   
    1  S  1  S   -0.000000   0.000000  -0.000000   0.033203   0.000000
    2  S  1  S    0.000001   0.000000   0.000002  -0.224684   0.000000
    3  S  1  S   -0.000002   0.000000  -0.000003   0.378825   0.000000
    4  S  1  S    0.000003   0.000000  -0.000006   0.508101   0.000000
    5  S  1  X   -0.016769   0.000000  -0.213550  -0.000002   0.000000
    6  S  1  Y   -0.000000   0.000000   0.000002  -0.184810   0.000000
    7  S  1  Z    0.000000  -0.214051   0.000000   0.000000   0.250216
    8  S  1  X    0.045208   0.000000   0.649179   0.000008   0.000000
    9  S  1  Y    0.000001   0.000000  -0.000005   0.575557   0.000000
   10  S  1  Z    0.000000   0.626171   0.000000   0.000000  -0.989547
   11  S  1  X    0.138937   0.000000   0.632243   0.000001   0.000000
   12  S  1  Y    0.000003   0.000000  -0.000006   0.672145   0.000000
   13  S  1  Z    0.000000   0.261954   0.000000   0.000000   1.306163
   14  S  1 XX    0.000001   0.000000   0.000000  -0.081985   0.000000
   15  S  1 YY   -0.000000   0.000000   0.000000  -0.091551   0.000000
   16  S  1 ZZ   -0.000000   0.000000  -0.000001   0.173536   0.000000
   17  S  1 XY   -0.081706   0.000000  -0.189593  -0.000001   0.000000
   18  S  1 XZ    0.000000  -0.000000   0.000000   0.000000   0.000000
   19  S  1 YZ    0.000000  -0.069020   0.000000   0.000000  -0.103957
   20  O  2  S    0.005054   0.000000   0.038470   0.051986   0.000000
   21  O  2  S   -0.011123   0.000000  -0.076533  -0.099707   0.000000
   22  O  2  S   -0.049611   0.000000  -0.314542  -0.414237   0.000000
   23  O  2  X    0.422285   0.000000   0.072592   0.332700   0.000000
   24  O  2  Y   -0.236060   0.000000   0.327267   0.123243   0.000000
   25  O  2  Z    0.000000  -0.390907   0.000000   0.000000  -0.040244
   26  O  2  X    0.287167   0.000000   0.064987   0.354961   0.000000
   27  O  2  Y   -0.160812   0.000000   0.287694   0.102872   0.000000
   28  O  2  Z    0.000000  -0.310553   0.000000   0.000000  -0.133901
   29  O  2 XX   -0.013222   0.000000  -0.001368   0.002107   0.000000
   30  O  2 YY    0.012794   0.000000   0.004035  -0.005090   0.000000
   31  O  2 ZZ    0.000428   0.000000  -0.002667   0.002983   0.000000
   32  O  2 XY   -0.002863   0.000000   0.001972   0.001795   0.000000
   33  O  2 XZ    0.000000   0.003582   0.000000   0.000000   0.013656
   34  O  2 YZ    0.000000   0.001721   0.000000   0.000000   0.008817
   35  O  3  S   -0.005054   0.000000  -0.038470   0.051986   0.000000
   36  O  3  S    0.011124   0.000000   0.076531  -0.099709   0.000000
   37  O  3  S    0.049607   0.000000   0.314552  -0.414231   0.000000
   38  O  3  X    0.422283   0.000000   0.072596  -0.332701   0.000000
   39  O  3  Y    0.236055   0.000000  -0.327269   0.123237   0.000000
   40  O  3  Z    0.000000  -0.390907   0.000000   0.000000  -0.040245
   41  O  3  X    0.287164   0.000000   0.064995  -0.354958   0.000000
   42  O  3  Y    0.160809   0.000000  -0.287697   0.102867   0.000000
   43  O  3  Z    0.000000  -0.310552   0.000000   0.000000  -0.133901
   44  O  3 XX    0.013222   0.000000   0.001368   0.002107   0.000000
   45  O  3 YY   -0.012794   0.000000  -0.004035  -0.005090   0.000000
   46  O  3 ZZ   -0.000428   0.000000   0.002667   0.002983   0.000000
   47  O  3 XY   -0.002863   0.000000   0.001972  -0.001795   0.000000
   48  O  3 XZ    0.000000  -0.003582   0.000000   0.000000  -0.013656
   49  O  3 YZ    0.000000   0.001721   0.000000   0.000000   0.008817

                     21         22         23         24         25
                    0.2197     0.2384     0.2467     0.4890     0.4941
                     A          A          A          A          A   
    1  S  1  S    0.019749   0.000004  -0.061875   0.000000   0.000000
    2  S  1  S   -0.146148  -0.000026   0.457227   0.000000   0.000000
    3  S  1  S    0.531300   0.000105  -1.832369   0.000000   0.000000
    4  S  1  S   -0.532122  -0.000133   2.249820   0.000000   0.000000
    5  S  1  X   -0.000002   0.266667   0.000014   0.000000   0.000000
    6  S  1  Y    0.263104  -0.000001   0.046854   0.000000   0.000000
    7  S  1  Z    0.000000   0.000000   0.000000  -0.000000   0.027811
    8  S  1  X    0.000006  -1.038872  -0.000054   0.000000   0.000000
    9  S  1  Y   -1.021825   0.000003  -0.171630   0.000000   0.000000
   10  S  1  Z    0.000000   0.000000   0.000000   0.000001  -0.118542
   11  S  1  X   -0.000007   1.433499   0.000080   0.000000   0.000000
   12  S  1  Y    1.223397  -0.000036   0.747871   0.000000   0.000000
   13  S  1  Z    0.000000   0.000000   0.000000  -0.000001   0.096606
   14  S  1 XX    0.131197   0.000001  -0.022820   0.000000   0.000000
   15  S  1 YY   -0.065406   0.000004  -0.093170   0.000000   0.000000
   16  S  1 ZZ   -0.065792  -0.000004   0.115990   0.000000   0.000000
   17  S  1 XY    0.000001   0.074162   0.000007   0.000000   0.000000
   18  S  1 XZ    0.000000   0.000000   0.000000   0.903990   0.000005
   19  S  1 YZ    0.000000   0.000000   0.000000  -0.000005   0.904995
   20  O  2  S   -0.004019   0.008065   0.029190   0.000000   0.000000
   21  O  2  S    0.055604   0.033222  -0.023682   0.000000   0.000000
   22  O  2  S   -0.186116  -0.375944  -0.566704   0.000000   0.000000
   23  O  2  X   -0.118291  -0.191027  -0.122192   0.000000   0.000000
   24  O  2  Y   -0.073360  -0.090875  -0.116766   0.000000   0.000000
   25  O  2  Z    0.000000   0.000000   0.000000  -0.291995  -0.282712
   26  O  2  X    0.002093  -0.088634   0.189790   0.000000   0.000000
   27  O  2  Y   -0.121493   0.047955   0.063019   0.000000   0.000000
   28  O  2  Z    0.000000   0.000000   0.000000   0.121076   0.127838
   29  O  2 XX   -0.019117  -0.002459  -0.021850   0.000000   0.000000
   30  O  2 YY    0.013366  -0.012104  -0.003036   0.000000   0.000000
   31  O  2 ZZ    0.005751   0.014563   0.024886   0.000000   0.000000
   32  O  2 XY   -0.005467  -0.025544  -0.030614   0.000000   0.000000
   33  O  2 XZ    0.000000   0.000000   0.000000  -0.030012  -0.043478
   34  O  2 YZ    0.000000   0.000000   0.000000  -0.044272  -0.013757
   35  O  3  S   -0.004019  -0.008068   0.029190   0.000000   0.000000
   36  O  3  S    0.055601  -0.033227  -0.023694   0.000000   0.000000
   37  O  3  S   -0.186116   0.376015  -0.566651   0.000000   0.000000
   38  O  3  X    0.118292  -0.191043   0.122167   0.000000   0.000000
   39  O  3  Y   -0.073361   0.090887  -0.116757   0.000000   0.000000
   40  O  3  Z    0.000000   0.000000   0.000000   0.291998  -0.282709
   41  O  3  X   -0.002090  -0.088607  -0.189792   0.000000   0.000000
   42  O  3  Y   -0.121493  -0.047965   0.063010   0.000000   0.000000
   43  O  3  Z    0.000000   0.000000   0.000000  -0.121077   0.127837
   44  O  3 XX   -0.019117   0.002461  -0.021850   0.000000   0.000000
   45  O  3 YY    0.013366   0.012105  -0.003035   0.000000   0.000000
   46  O  3 ZZ    0.005751  -0.014566   0.024884   0.000000   0.000000
   47  O  3 XY    0.005467  -0.025548   0.030611   0.000000   0.000000
   48  O  3 XZ    0.000000   0.000000   0.000000  -0.030012   0.043478
   49  O  3 YZ    0.000000   0.000000   0.000000   0.044272  -0.013756

                     26         27         28         29         30
                    0.5006     0.6167     0.6857     0.7792     0.8139
                     A          A          A          A          A   
    1  S  1  S   -0.001117  -0.002125   0.000000   0.007567   0.000000
    2  S  1  S    0.008535   0.013731  -0.000000  -0.064857   0.000000
    3  S  1  S   -0.034418   0.128004   0.000001   0.292696   0.000000
    4  S  1  S    0.023730  -0.894862  -0.000007   0.101881   0.000000
    5  S  1  X   -0.000000   0.000000  -0.107828   0.000000   0.000000
    6  S  1  Y    0.035933   0.077849   0.000000  -0.017714   0.000000
    7  S  1  Z    0.000000   0.000000   0.000000   0.000000  -0.000000
    8  S  1  X    0.000001  -0.000002   0.544960   0.000000   0.000000
    9  S  1  Y   -0.154108  -0.352028  -0.000001   0.165376   0.000000
   10  S  1  Z    0.000000   0.000000   0.000000   0.000000   0.000000
   11  S  1  X   -0.000001  -0.000003   0.208959   0.000001   0.000000
   12  S  1  Y    0.142008  -0.265966  -0.000003   0.268714   0.000000
   13  S  1  Z    0.000000   0.000000   0.000000   0.000000  -0.000001
   14  S  1 XX   -0.607076  -0.622630  -0.000001  -0.509594   0.000000
   15  S  1 YY    0.788124  -0.316463  -0.000001   0.383984   0.000000
   16  S  1 ZZ   -0.181049   0.939093   0.000002   0.125610   0.000000
   17  S  1 XY    0.000001  -0.000003   0.848214   0.000001   0.000000
   18  S  1 XZ    0.000000   0.000000   0.000000   0.000000   0.442996
   19  S  1 YZ    0.000000   0.000000   0.000000   0.000000  -0.000001
   20  O  2  S    0.002475  -0.067599   0.075237   0.004868   0.000000
   21  O  2  S   -0.020825   0.267144  -0.303369  -0.006302   0.000000
   22  O  2  S   -0.000790   0.240845  -0.153143  -0.092403   0.000000
   23  O  2  X    0.224030   0.064665  -0.115422  -0.543889   0.000000
   24  O  2  Y   -0.307380   0.002715  -0.154938   0.123534   0.000000
   25  O  2  Z    0.000000   0.000000   0.000000   0.000000   0.582740
   26  O  2  X   -0.110146  -0.449410   0.587478   0.724996   0.000000
   27  O  2  Y    0.110809  -0.317087   0.553250  -0.199756   0.000000
   28  O  2  Z    0.000000   0.000000   0.000000   0.000000  -0.776406
   29  O  2 XX    0.051629  -0.002219   0.021292   0.039608   0.000000
   30  O  2 YY   -0.048674  -0.018803  -0.005673  -0.045877   0.000000
   31  O  2 ZZ   -0.002955   0.021021  -0.015619   0.006269   0.000000
   32  O  2 XY   -0.019595  -0.003423   0.034239   0.014630   0.000000
   33  O  2 XZ    0.000000   0.000000   0.000000   0.000000  -0.037218
   34  O  2 YZ    0.000000   0.000000   0.000000   0.000000  -0.033059
   35  O  3  S    0.002475  -0.067599  -0.075237   0.004868   0.000000
   36  O  3  S   -0.020826   0.267148   0.303370  -0.006301   0.000000
   37  O  3  S   -0.000789   0.240836   0.153148  -0.092403   0.000000
   38  O  3  X   -0.224030  -0.064660  -0.115426   0.543884   0.000000
   39  O  3  Y   -0.307380   0.002715   0.154940   0.123533   0.000000
   40  O  3  Z    0.000000   0.000000   0.000000   0.000000  -0.582742
   41  O  3  X    0.110146   0.449401   0.587486  -0.724989   0.000000
   42  O  3  Y    0.110809  -0.317084  -0.553254  -0.199756   0.000000
   43  O  3  Z    0.000000   0.000000   0.000000   0.000000   0.776409
   44  O  3 XX    0.051629  -0.002219  -0.021292   0.039608   0.000000
   45  O  3 YY   -0.048674  -0.018803   0.005673  -0.045877   0.000000
   46  O  3 ZZ   -0.002955   0.021021   0.015619   0.006269   0.000000
   47  O  3 XY    0.019595   0.003423   0.034239  -0.014630   0.000000
   48  O  3 XZ    0.000000   0.000000   0.000000   0.000000  -0.037218
   49  O  3 YZ    0.000000   0.000000   0.000000   0.000000   0.033059

                     31         32         33         34         35
                    0.8315     0.8408     0.8650     0.9360     1.3858
                     A          A          A          A          A   
    1  S  1  S    0.014179   0.000000   0.000000   0.000000  -0.000000
    2  S  1  S   -0.121060   0.000000  -0.000000  -0.000000   0.000001
    3  S  1  S    0.601025   0.000000   0.000001   0.000000   0.000002
    4  S  1  S   -0.078517   0.000000  -0.000001   0.000005  -0.000029
    5  S  1  X   -0.000000   0.000000   0.003583  -0.008636   0.064765
    6  S  1  Y   -0.033801   0.000000  -0.000000  -0.000000   0.000001
    7  S  1  Z    0.000000  -0.001274   0.000000   0.000000   0.000000
    8  S  1  X   -0.000000   0.000000  -0.133883   0.160905  -0.429676
    9  S  1  Y    0.289311   0.000000   0.000000   0.000002  -0.000009
   10  S  1  Z    0.000000   0.005894   0.000000   0.000000   0.000000
   11  S  1  X    0.000000   0.000000  -0.084310  -0.589368  -0.651671
   12  S  1  Y   -0.373816   0.000000  -0.000001   0.000001  -0.000011
   13  S  1  Z    0.000000  -0.524027   0.000000   0.000000   0.000000
   14  S  1 XX    0.086539   0.000000   0.000000   0.000002  -0.000003
   15  S  1 YY   -0.369183   0.000000  -0.000000  -0.000001  -0.000002
   16  S  1 ZZ    0.282644   0.000000   0.000000  -0.000001   0.000005
   17  S  1 XY    0.000001   0.000000   0.524288  -0.416102  -0.339708
   18  S  1 XZ    0.000000  -0.000001   0.000000   0.000000   0.000000
   19  S  1 YZ    0.000000  -0.432564   0.000000   0.000000   0.000000
   20  O  2  S    0.004879   0.000000   0.008378  -0.003933   0.079467
   21  O  2  S   -0.022748   0.000000  -0.002425  -0.073973  -1.179058
   22  O  2  S    0.070705   0.000000  -0.056171   0.302935   1.645293
   23  O  2  X   -0.197672   0.000000   0.058768  -0.625766   0.096308
   24  O  2  Y   -0.554330   0.000000   0.612232   0.092440   0.067543
   25  O  2  Z    0.000000  -0.583129   0.000000   0.000000   0.000000
   26  O  2  X    0.242862   0.000000   0.082604   0.763909  -0.418640
   27  O  2  Y    0.794928   0.000000  -0.686808  -0.278360  -0.402532
   28  O  2  Z    0.000000   0.860066   0.000000   0.000000   0.000000
   29  O  2 XX   -0.016298   0.000000   0.023876   0.038499  -0.082649
   30  O  2 YY    0.032588   0.000000  -0.022240  -0.013660  -0.022705
   31  O  2 ZZ   -0.016289   0.000000  -0.001636  -0.024840   0.105354
   32  O  2 XY    0.047405   0.000000   0.000723  -0.014546  -0.120905
   33  O  2 XZ    0.000000   0.039087   0.000000   0.000000   0.000000
   34  O  2 YZ    0.000000   0.029507   0.000000   0.000000   0.000000
   35  O  3  S    0.004879   0.000000  -0.008378   0.003932  -0.079464
   36  O  3  S   -0.022743   0.000000   0.002427   0.073989   1.179007
   37  O  3  S    0.070701   0.000000   0.056170  -0.302955  -1.645217
   38  O  3  X    0.197672   0.000000   0.058767  -0.625769   0.096307
   39  O  3  Y   -0.554329   0.000000  -0.612233  -0.092442  -0.067541
   40  O  3  Z    0.000000  -0.583127   0.000000   0.000000   0.000000
   41  O  3  X   -0.242862   0.000000   0.082605   0.763910  -0.418622
   42  O  3  Y    0.794927   0.000000   0.686809   0.278365   0.402519
   43  O  3  Z    0.000000   0.860064   0.000000   0.000000   0.000000
   44  O  3 XX   -0.016298   0.000000  -0.023876  -0.038500   0.082647
   45  O  3 YY    0.032588   0.000000   0.022240   0.013660   0.022705
   46  O  3 ZZ   -0.016289   0.000000   0.001636   0.024839  -0.105352
   47  O  3 XY   -0.047405   0.000000   0.000723  -0.014546  -0.120899
   48  O  3 XZ    0.000000  -0.039087   0.000000   0.000000   0.000000
   49  O  3 YZ    0.000000   0.029507   0.000000   0.000000   0.000000

                     36         37         38         39         40
                    1.4927     2.0883     2.0907     2.0913     2.0992
                     A          A          A          A          A   
    1  S  1  S    0.000643  -0.000000   0.000000   0.000000   0.000567
    2  S  1  S   -0.001733   0.000000   0.000000   0.000000  -0.003794
    3  S  1  S    0.400903  -0.000001   0.000000   0.000000   0.025126
    4  S  1  S   -1.924278   0.000001   0.000000   0.000000  -0.097838
    5  S  1  X   -0.000001  -0.023446   0.000000   0.000000  -0.000000
    6  S  1  Y    0.070107  -0.000000   0.000000   0.000000  -0.000023
    7  S  1  Z    0.000000   0.000000  -0.009827   0.000002   0.000000
    8  S  1  X    0.000010   0.078588   0.000000   0.000000   0.000001
    9  S  1  Y   -0.410350   0.000000   0.000000   0.000000  -0.008841
   10  S  1  Z    0.000000   0.000000   0.031683  -0.000005   0.000000
   11  S  1  X    0.000005   0.059910   0.000000   0.000000   0.000001
   12  S  1  Y   -0.870370   0.000001   0.000000   0.000000  -0.058268
   13  S  1  Z    0.000000   0.000000   0.021101  -0.000004   0.000000
   14  S  1 XX   -0.227644  -0.000000   0.000000   0.000000   0.022057
   15  S  1 YY   -0.149911   0.000000   0.000000   0.000000   0.031235
   16  S  1 ZZ    0.377554   0.000000   0.000000   0.000000  -0.053292
   17  S  1 XY    0.000003  -0.058258   0.000000   0.000000  -0.000000
   18  S  1 XZ    0.000000   0.000000   0.000005   0.030007   0.000000
   19  S  1 YZ    0.000000   0.000000   0.003413  -0.000001   0.000000
   20  O  2  S    0.071356  -0.001155   0.000000   0.000000   0.004698
   21  O  2  S   -1.249919   0.027547   0.000000   0.000000  -0.063781
   22  O  2  S    2.077449  -0.054566   0.000000   0.000000   0.097446
   23  O  2  X    0.033023   0.025060   0.000000   0.000000   0.024485
   24  O  2  Y    0.024308  -0.031640   0.000000   0.000000   0.000035
   25  O  2  Z    0.000000   0.000000   0.017498   0.016661   0.000000
   26  O  2  X   -0.540483  -0.033237   0.000000   0.000000  -0.049363
   27  O  2  Y   -0.321768   0.052621   0.000000   0.000000  -0.002768
   28  O  2  Z    0.000000   0.000000  -0.029423  -0.025725   0.000000
   29  O  2 XX   -0.057124   0.319000   0.000000   0.000000  -0.283277
   30  O  2 YY    0.003307  -0.696960   0.000000   0.000000  -0.340634
   31  O  2 ZZ    0.053818   0.377960   0.000000   0.000000   0.623911
   32  O  2 XY   -0.148146   0.127058   0.000000   0.000000   0.330401
   33  O  2 XZ    0.000000   0.000000  -0.324795   0.576657   0.000000
   34  O  2 YZ    0.000000   0.000000   0.628293  -0.409771   0.000000
   35  O  3  S    0.071359   0.001154   0.000000   0.000000   0.004698
   36  O  3  S   -1.249962  -0.027545   0.000000   0.000000  -0.063780
   37  O  3  S    2.077506   0.054563   0.000000   0.000000   0.097445
   38  O  3  X   -0.033031   0.025060   0.000000   0.000000  -0.024483
   39  O  3  Y    0.024309   0.031640   0.000000   0.000000   0.000036
   40  O  3  Z    0.000000   0.000000   0.017492  -0.016668   0.000000
   41  O  3  X    0.540506  -0.033238   0.000000   0.000000   0.049361
   42  O  3  Y   -0.321777  -0.052621   0.000000   0.000000  -0.002769
   43  O  3  Z    0.000000   0.000000  -0.029414   0.025735   0.000000
   44  O  3 XX   -0.057130  -0.318998   0.000000   0.000000  -0.283293
   45  O  3 YY    0.003307   0.696963   0.000000   0.000000  -0.340625
   46  O  3 ZZ    0.053824  -0.377966   0.000000   0.000000   0.623918
   47  O  3 XY    0.148152   0.127060   0.000000   0.000000  -0.330408
   48  O  3 XZ    0.000000   0.000000   0.324989   0.576548   0.000000
   49  O  3 YZ    0.000000   0.000000   0.628432   0.409559   0.000000

                     41         42         43         44         45
                    2.1096     2.1595     2.1812     2.2706     2.5110
                     A          A          A          A          A   
    1  S  1  S   -0.000000   0.000000   0.000000  -0.002122  -0.028005
    2  S  1  S    0.000000   0.000000   0.000000   0.016912   0.214781
    3  S  1  S   -0.000001   0.000000   0.000000  -0.078637  -0.455204
    4  S  1  S    0.000003   0.000000   0.000000   0.086614  -0.732009
    5  S  1  X   -0.011990   0.000000   0.000000  -0.000000   0.000000
    6  S  1  Y    0.000000   0.000000   0.000000  -0.029418   0.138541
    7  S  1  Z    0.000000  -0.000000  -0.043772   0.000000   0.000000
    8  S  1  X    0.015697   0.000000   0.000000   0.000000  -0.000001
    9  S  1  Y    0.000000   0.000000   0.000000   0.083469  -0.670488
   10  S  1  Z    0.000000   0.000001   0.140580   0.000000   0.000000
   11  S  1  X    0.051322   0.000000   0.000000   0.000000  -0.000002
   12  S  1  Y    0.000002   0.000000   0.000000   0.123426  -0.176028
   13  S  1  Z    0.000000   0.000000   0.087741   0.000000   0.000000
   14  S  1 XX   -0.000000   0.000000   0.000000  -0.329107  -0.262824
   15  S  1 YY   -0.000000   0.000000   0.000000   0.335414  -0.113133
   16  S  1 ZZ    0.000000   0.000000   0.000000  -0.006307   0.375958
   17  S  1 XY   -0.019551   0.000000   0.000000   0.000000  -0.000001
   18  S  1 XZ    0.000000  -0.293186   0.000001   0.000000   0.000000
   19  S  1 YZ    0.000000   0.000001   0.262177   0.000000   0.000000
   20  O  2  S    0.003801   0.000000   0.000000   0.000315   0.011667
   21  O  2  S   -0.052492   0.000000   0.000000   0.015737  -0.475272
   22  O  2  S    0.048552   0.000000   0.000000  -0.065299   0.919542
   23  O  2  X    0.067411   0.000000   0.000000  -0.005216   0.050760
   24  O  2  Y   -0.027182   0.000000   0.000000   0.035091   0.051566
   25  O  2  Z    0.000000  -0.040502   0.048233   0.000000   0.000000
   26  O  2  X   -0.115835   0.000000   0.000000   0.055654  -0.433913
   27  O  2  Y    0.041798   0.000000   0.000000  -0.097952  -0.346558
   28  O  2  Z    0.000000   0.082261  -0.115173   0.000000   0.000000
   29  O  2 XX    0.575346   0.000000   0.000000  -0.592704   0.317068
   30  O  2 YY   -0.096940   0.000000   0.000000   0.634537   0.044088
   31  O  2 ZZ   -0.478406   0.000000   0.000000  -0.041833  -0.361155
   32  O  2 XY   -0.348204   0.000000   0.000000   0.151050   0.643063
   33  O  2 XZ    0.000000  -0.416435   0.637054   0.000000   0.000000
   34  O  2 YZ    0.000000  -0.581766   0.333503   0.000000   0.000000
   35  O  3  S   -0.003801   0.000000   0.000000   0.000315   0.011667
   36  O  3  S    0.052496   0.000000   0.000000   0.015737  -0.475272
   37  O  3  S   -0.048558   0.000000   0.000000  -0.065299   0.919539
   38  O  3  X    0.067412   0.000000   0.000000   0.005216  -0.050761
   39  O  3  Y    0.027182   0.000000   0.000000   0.035091   0.051566
   40  O  3  Z    0.000000   0.040502   0.048233   0.000000   0.000000
   41  O  3  X   -0.115837   0.000000   0.000000  -0.055654   0.433914
   42  O  3  Y   -0.041798   0.000000   0.000000  -0.097952  -0.346556
   43  O  3  Z    0.000000  -0.082262  -0.115172   0.000000   0.000000
   44  O  3 XX   -0.575339   0.000000   0.000000  -0.592703   0.317068
   45  O  3 YY    0.096948   0.000000   0.000000   0.634536   0.044087
   46  O  3 ZZ    0.478392   0.000000   0.000000  -0.041833  -0.361154
   47  O  3 XY   -0.348198   0.000000   0.000000  -0.151050  -0.643060
   48  O  3 XZ    0.000000  -0.416440  -0.637051   0.000000   0.000000
   49  O  3 YZ    0.000000   0.581768   0.333499   0.000000   0.000000

                     46
                    2.6606
                     A   
    1  S  1  S   -0.000000
    2  S  1  S    0.000000
    3  S  1  S    0.000001
    4  S  1  S   -0.000006
    5  S  1  X   -0.175533
    6  S  1  Y    0.000000
    7  S  1  Z    0.000000
    8  S  1  X    0.851033
    9  S  1  Y   -0.000002
   10  S  1  Z    0.000000
   11  S  1  X    0.156781
   12  S  1  Y   -0.000003
   13  S  1  Z    0.000000
   14  S  1 XX   -0.000001
   15  S  1 YY   -0.000001
   16  S  1 ZZ    0.000002
   17  S  1 XY    0.664577
   18  S  1 XZ    0.000000
   19  S  1 YZ    0.000000
   20  O  2  S   -0.005775
   21  O  2  S    0.457788
   22  O  2  S   -0.881263
   23  O  2  X   -0.041314
   24  O  2  Y   -0.019684
   25  O  2  Z    0.000000
   26  O  2  X    0.462574
   27  O  2  Y    0.385250
   28  O  2  Z    0.000000
   29  O  2 XX   -0.288011
   30  O  2 YY   -0.103088
   31  O  2 ZZ    0.391099
   32  O  2 XY   -0.674336
   33  O  2 XZ    0.000000
   34  O  2 YZ    0.000000
   35  O  3  S    0.005775
   36  O  3  S   -0.457792
   37  O  3  S    0.881273
   38  O  3  X   -0.041314
   39  O  3  Y    0.019684
   40  O  3  Z    0.000000
   41  O  3  X    0.462577
   42  O  3  Y   -0.385253
   43  O  3  Z    0.000000
   44  O  3 XX    0.288012
   45  O  3 YY    0.103088
   46  O  3 ZZ   -0.391100
   47  O  3 XY   -0.674338
   48  O  3 XZ    0.000000
   49  O  3 YZ    0.000000
 ...... END OF RHF CALCULATION ......
 STEP CPU TIME =     2.56 TOTAL CPU TIME =          2.7 (      0.0 MIN)
 TOTAL WALL CLOCK TIME=          2.8 SECONDS, CPU UTILIZATION IS    98.91%

     ---------------------------------------------------------------------
     PROPERTIES FOR THE PBE      DFT FUNCTIONAL (RHF  TYPE) DENSITY MATRIX
     ---------------------------------------------------------------------

          -----------------
          ENERGY COMPONENTS
          -----------------

         WAVEFUNCTION NORMALIZATION =       1.0000000000

                ONE ELECTRON ENERGY =    -945.5415180602
                TWO ELECTRON ENERGY =     301.8392851461
           NUCLEAR REPULSION ENERGY =      95.4998270531
                                      ------------------
                       TOTAL ENERGY =    -548.2024058610

 ELECTRON-ELECTRON POTENTIAL ENERGY =     301.8392851461
  NUCLEUS-ELECTRON POTENTIAL ENERGY =   -1492.4458339368
   NUCLEUS-NUCLEUS POTENTIAL ENERGY =      95.4998270531
                                      ------------------
             TOTAL POTENTIAL ENERGY =   -1095.1067217376
               TOTAL KINETIC ENERGY =     546.9043158765
                 VIRIAL RATIO (V/T) =       2.0023735230

          ---------------------------------------
          MULLIKEN AND LOWDIN POPULATION ANALYSES
          ---------------------------------------

     ATOMIC MULLIKEN POPULATION IN EACH MOLECULAR ORBITAL

                      1          2          3          4          5

                  2.000000   2.000000   2.000000   2.000000   2.000000

    1             1.999975   0.001241   0.000525   2.000484   2.000269
    2             0.000012   0.988746   1.010370  -0.000242  -0.000135
    3             0.000012   1.010013   0.989104  -0.000242  -0.000135

                      6          7          8          9         10

                  2.000000   2.000000   2.000000   2.000000   2.000000

    1             2.000010   2.000206   0.629084   0.243164   1.236758
    2            -0.000005  -0.000103   0.685453   0.878424   0.381620
    3            -0.000005  -0.000103   0.685462   0.878412   0.381622

                     11         12         13         14         15

                  2.000000   2.000000   2.000000   2.000000   2.000000

    1             0.631020   0.966185   1.168065   0.046826   0.224676
    2             0.684489   0.516907   0.415967   0.976587   0.887656
    3             0.684491   0.516908   0.415969   0.976587   0.887668

                     16

                  2.000000

    1             0.122734
    2             0.938642
    3             0.938624

               ----- POPULATIONS IN EACH AO -----
                             MULLIKEN      LOWDIN
              1  S  1  S      1.99983     1.99926
              2  S  1  S      1.99239     1.88724
              3  S  1  S      1.35183     0.69115
              4  S  1  S      0.52386     0.46445
              5  S  1  X      1.99357     1.95770
              6  S  1  Y      1.99458     1.96443
              7  S  1  Z      1.99400     1.96200
              8  S  1  X      0.81845     0.70618
              9  S  1  Y      0.99517     0.90334
             10  S  1  Z      0.91394     0.82385
             11  S  1  X      0.09596     0.22527
             12  S  1  Y      0.10392     0.26807
             13  S  1  Z      0.25003     0.35594
             14  S  1 XX      0.02135     0.29160
             15  S  1 YY      0.07567     0.29131
             16  S  1 ZZ      0.08972     0.28106
             17  S  1 XY      0.04683     0.10678
             18  S  1 XZ      0.01010     0.05468
             19  S  1 YZ      0.00000     0.00980
             20  O  2  S      1.99567     1.97293
             21  O  2  S      0.96326     0.70764
             22  O  2  S      0.97696     0.55261
             23  O  2  X      0.95296     0.91595
             24  O  2  Y      0.95108     0.91831
             25  O  2  Z      0.83290     0.80177
             26  O  2  X      0.54120     0.62371
             27  O  2  Y      0.58114     0.65878
             28  O  2  Z      0.55589     0.58994
             29  O  2 XX      0.00161     0.20686
             30  O  2 YY      0.00306     0.20569
             31  O  2 ZZ      0.00490     0.20938
             32  O  2 XY      0.00211     0.00921
             33  O  2 XZ      0.00165     0.00297
             34  O  2 YZ      0.00000     0.00218
             35  O  3  S      1.99567     1.97293
             36  O  3  S      0.96326     0.70764
             37  O  3  S      0.97695     0.55261
             38  O  3  X      0.95296     0.91595
             39  O  3  Y      0.95108     0.91831
             40  O  3  Z      0.83290     0.80177
             41  O  3  X      0.54120     0.62371
             42  O  3  Y      0.58114     0.65878
             43  O  3  Z      0.55589     0.58994
             44  O  3 XX      0.00161     0.20686
             45  O  3 YY      0.00306     0.20569
             46  O  3 ZZ      0.00490     0.20938
             47  O  3 XY      0.00211     0.00921
             48  O  3 XZ      0.00165     0.00297
             49  O  3 YZ      0.00000     0.00218

          ----- MULLIKEN ATOMIC OVERLAP POPULATIONS -----
          (OFF-DIAGONAL ELEMENTS NEED TO BE MULTIPLIED BY 2)

             1           2           3

    1   14.6602065
    2    0.3055045   8.1186729
    3    0.3055115  -0.0597869   8.1186625

          TOTAL MULLIKEN AND LOWDIN ATOMIC POPULATIONS
       ATOM         MULL.POP.    CHARGE          LOW.POP.     CHARGE
    1 S            15.271222    0.728778        15.244117    0.755883
    2 O             8.364390   -0.364390         8.377942   -0.377942
    3 O             8.364387   -0.364387         8.377941   -0.377941

          MULLIKEN SPHERICAL HARMONIC POPULATIONS
       ATOM           S       P       D      F      G      H      I    TOTAL
    1 S             5.87    9.16    0.24   0.00   0.00   0.00   0.00   15.27
    2 O             3.94    4.42    0.01   0.00   0.00   0.00   0.00    8.36
    3 O             3.94    4.42    0.01   0.00   0.00   0.00   0.00    8.36

          -------------------------------
          BOND ORDER AND VALENCE ANALYSIS     BOND ORDER THRESHOLD=0.050
          -------------------------------

                   BOND                       BOND                       BOND
  ATOM PAIR DIST  ORDER      ATOM PAIR DIST  ORDER      ATOM PAIR DIST  ORDER
    1   2  1.650  1.689        1   3  1.650  1.689        2   3  2.528  0.409

                       TOTAL       BONDED        FREE
      ATOM            VALENCE     VALENCE     VALENCE
    1 S                 3.377       3.377       0.000
    2 O                 2.097       2.097      -0.000
    3 O                 2.097       2.097       0.000

          ---------------------
          ELECTROSTATIC MOMENTS
          ---------------------

 POINT   1           X           Y           Z (BOHR)    CHARGE
                 0.000000    0.000000    0.000000        0.00 (A.U.)
         DX          DY          DZ         /D/  (DEBYE)
    -0.000004   -2.835154    0.000000    2.835154
 ...... END OF PROPERTY EVALUATION ......
 STEP CPU TIME =     0.00 TOTAL CPU TIME =          2.7 (      0.0 MIN)
 TOTAL WALL CLOCK TIME=          2.8 SECONDS, CPU UTILIZATION IS    98.56%
                580000  WORDS OF DYNAMIC MEMORY USED
 EXECUTION OF GAMESS TERMINATED NORMALLY Sun Sep 29 10:52:27 2019
 DDI: 263640 bytes (0.3 MB / 0 MWords) used by master data server.

 ----------------------------------------
 CPU timing information for all processes
 ========================================
 0: 2.652 + 0.82 = 2.735
 ----------------------------------------
 ddikick.x: exited gracefully.
----- accounting info -----
Files used on the master node crcfe02.crc.nd.edu were:
-rw-r--r-- 1 cdrisko campus     208 Sep 29 10:52 /afs/crc.nd.edu/user/c/cdrisko/SO2.F05
-rw-r--r-- 1 cdrisko campus   37566 Sep 29 10:52 /afs/crc.nd.edu/user/c/cdrisko/SO2.F07
-rw-r--r-- 1 cdrisko campus 4140368 Sep 29 10:52 /afs/crc.nd.edu/user/c/cdrisko/SO2.F08
-rw-r--r-- 1 cdrisko campus 1766880 Sep 29 10:52 /afs/crc.nd.edu/user/c/cdrisko/SO2.F10
Sun Sep 29 10:52:30 EDT 2019
0.433u 0.250s 0:06.42 10.5%	0+0k 0+32io 0pf+0w
