  12  12   0   0
  0.4617591E+02  0.5142081E-09  0.5142081E-09  0.2419849E-08  0.5000000E-15
  1.000000000000000E-004
  CAR 
 unknown system                          
     10.06116618    -11.07863490  301     -1.50614118      1.00000000
    -11.079  0.0000E+00  0.0000E+00
    -11.008  0.0000E+00  0.0000E+00
    -10.938 -0.3777E-33 -0.2661E-34
    -10.867 -0.3822E-28 -0.2693E-29
    -10.797 -0.1421E-23 -0.1002E-24
    -10.726 -0.1939E-19 -0.1367E-20
    -10.656 -0.9392E-16 -0.6619E-17
    -10.585 -0.1697E-12 -0.1196E-13
    -10.515 -0.1108E-09 -0.7817E-11
    -10.444 -0.2585E-07 -0.1829E-08
    -10.374 -0.2115E-05 -0.1508E-06
    -10.304 -0.5844E-04 -0.4269E-05
    -10.233 -0.5026E-03 -0.3968E-04
    -10.163 -0.9026E-03 -0.1033E-03
    -10.092  0.4780E-02  0.2335E-03
    -10.022  0.3216E-01  0.2500E-02
     -9.951  0.5849E-01  0.6621E-02
     -9.881  0.2881E-01  0.8651E-02
     -9.810  0.3223E-01  0.1092E-01
     -9.740  0.7479E-01  0.1619E-01
     -9.669  0.7504E-01  0.2148E-01
     -9.599  0.2873E-01  0.2350E-01
     -9.528 -0.5804E-02  0.2310E-01
     -9.458  0.3613E-01  0.2564E-01
     -9.387  0.1125E+00  0.3357E-01
     -9.317  0.6922E-01  0.3845E-01
     -9.247  0.3707E-01  0.4106E-01
     -9.176  0.5226E-01  0.4474E-01
     -9.106  0.1390E-01  0.4572E-01
     -9.035 -0.2875E-02  0.4552E-01
     -8.965  0.3941E-01  0.4829E-01
     -8.894  0.1145E+00  0.5636E-01
     -8.824  0.1288E+00  0.6543E-01
     -8.753  0.3991E-01  0.6825E-01
     -8.683 -0.3832E-03  0.6822E-01
     -8.612  0.4147E-01  0.7114E-01
     -8.542  0.5024E-01  0.7468E-01
     -8.471  0.5027E-02  0.7504E-01
     -8.401  0.2397E-01  0.7672E-01
     -8.330  0.1035E+00  0.8402E-01
     -8.260  0.9192E-01  0.9049E-01
     -8.190  0.9730E-01  0.9735E-01
     -8.119  0.1015E+00  0.1045E+00
     -8.049  0.5170E-01  0.1081E+00
     -7.978  0.5145E-01  0.1118E+00
     -7.908  0.5783E-01  0.1158E+00
     -7.837  0.1011E+00  0.1230E+00
     -7.767  0.1113E+00  0.1308E+00
     -7.696  0.1363E+00  0.1404E+00
     -7.626  0.1564E+00  0.1514E+00
     -7.555  0.1021E+00  0.1586E+00
     -7.485  0.1532E+00  0.1694E+00
     -7.414  0.2042E+00  0.1838E+00
     -7.344  0.1045E+00  0.1912E+00
     -7.273  0.4333E-01  0.1942E+00
     -7.203  0.1956E-01  0.1956E+00
     -7.133  0.6463E-01  0.2002E+00
     -7.062  0.1681E+00  0.2120E+00
     -6.992  0.2819E+00  0.2319E+00
     -6.921  0.2315E+00  0.2482E+00
     -6.851  0.1304E+00  0.2574E+00
     -6.780  0.1513E+00  0.2680E+00
     -6.710  0.1051E+00  0.2754E+00
     -6.639  0.8228E-01  0.2812E+00
     -6.569  0.2226E+00  0.2969E+00
     -6.498  0.2450E+00  0.3142E+00
     -6.428  0.2627E+00  0.3327E+00
     -6.357  0.4880E+00  0.3671E+00
     -6.287  0.3860E+00  0.3943E+00
     -6.216  0.2552E+00  0.4123E+00
     -6.146  0.5088E+00  0.4481E+00
     -6.076  0.5554E+00  0.4873E+00
     -6.005  0.6471E+00  0.5329E+00
     -5.935  0.9343E+00  0.5987E+00
     -5.864  0.8763E+00  0.6604E+00
     -5.794  0.6656E+00  0.7073E+00
     -5.723  0.5610E+00  0.7469E+00
     -5.653  0.5772E+00  0.7875E+00
     -5.582  0.9309E+00  0.8531E+00
     -5.512  0.1446E+01  0.9550E+00
     -5.441  0.1395E+01  0.1053E+01
     -5.371  0.1182E+01  0.1137E+01
     -5.300  0.1101E+01  0.1214E+01
     -5.230  0.1095E+01  0.1291E+01
     -5.159  0.1077E+01  0.1367E+01
     -5.089  0.1032E+01  0.1440E+01
     -5.019  0.6544E+00  0.1486E+01
     -4.948  0.9792E+00  0.1555E+01
     -4.878  0.2134E+01  0.1705E+01
     -4.807  0.2090E+01  0.1853E+01
     -4.737  0.1188E+01  0.1936E+01
     -4.666  0.9307E+00  0.2002E+01
     -4.596  0.1089E+01  0.2079E+01
     -4.525  0.1608E+01  0.2192E+01
     -4.455  0.2511E+01  0.2369E+01
     -4.384  0.2529E+01  0.2547E+01
     -4.314  0.2336E+01  0.2712E+01
     -4.243  0.2904E+01  0.2916E+01
     -4.173  0.3574E+01  0.3168E+01
     -4.103  0.3431E+01  0.3410E+01
     -4.032  0.2720E+01  0.3602E+01
     -3.962  0.1931E+01  0.3738E+01
     -3.891  0.1410E+01  0.3837E+01
     -3.821  0.1196E+01  0.3921E+01
     -3.750  0.1582E+01  0.4033E+01
     -3.680  0.2803E+01  0.4230E+01
     -3.609  0.3573E+01  0.4482E+01
     -3.539  0.2957E+01  0.4691E+01
     -3.468  0.1880E+01  0.4823E+01
     -3.398  0.1895E+01  0.4957E+01
     -3.327  0.2357E+01  0.5123E+01
     -3.257  0.2469E+01  0.5297E+01
     -3.186  0.2916E+01  0.5502E+01
     -3.116  0.4071E+01  0.5789E+01
     -3.046  0.3964E+01  0.6068E+01
     -2.975  0.2227E+01  0.6225E+01
     -2.905  0.8820E+00  0.6287E+01
     -2.834  0.6016E+00  0.6330E+01
     -2.764  0.5038E+00  0.6365E+01
     -2.693  0.1446E+00  0.6375E+01
     -2.623 -0.9268E-02  0.6375E+01
     -2.552  0.2114E-01  0.6376E+01
     -2.482  0.5276E-01  0.6380E+01
     -2.411  0.1386E+00  0.6390E+01
     -2.341  0.4422E+00  0.6421E+01
     -2.270  0.6291E+00  0.6465E+01
     -2.200  0.3509E+00  0.6490E+01
     -2.129  0.1668E+00  0.6502E+01
     -2.059  0.1319E+00  0.6511E+01
     -1.989  0.1085E+00  0.6519E+01
     -1.918  0.5098E-01  0.6522E+01
     -1.848 -0.2091E-02  0.6522E+01
     -1.777  0.3965E-01  0.6525E+01
     -1.707  0.1202E+00  0.6533E+01
     -1.636  0.1133E+00  0.6541E+01
     -1.566  0.2806E+00  0.6561E+01
     -1.495  0.6660E+00  0.6608E+01
     -1.425  0.5914E+00  0.6650E+01
     -1.354  0.2413E+00  0.6667E+01
     -1.284  0.1403E+00  0.6677E+01
     -1.213  0.1514E+00  0.6687E+01
     -1.143  0.1304E+00  0.6696E+01
     -1.072  0.1368E+00  0.6706E+01
     -1.002  0.7621E-01  0.6711E+01
     -0.932  0.4979E-01  0.6715E+01
     -0.861  0.1150E+00  0.6723E+01
     -0.791  0.1261E+00  0.6732E+01
     -0.720  0.9894E-01  0.6739E+01
     -0.650  0.1125E+00  0.6747E+01
     -0.579  0.1968E+00  0.6761E+01
     -0.509  0.4360E+00  0.6791E+01
     -0.438  0.6893E+00  0.6840E+01
     -0.368  0.4881E+00  0.6874E+01
     -0.297  0.1447E+00  0.6885E+01
     -0.227  0.9209E-01  0.6891E+01
     -0.156  0.6670E-01  0.6896E+01
     -0.086  0.4761E-01  0.6899E+01
     -0.015  0.5655E-01  0.6903E+01
      0.055  0.1513E+00  0.6914E+01
      0.125  0.2180E+00  0.6929E+01
      0.196  0.1844E+00  0.6942E+01
      0.266  0.8886E-01  0.6948E+01
      0.337  0.5323E-01  0.6952E+01
      0.407  0.1732E+00  0.6964E+01
      0.478  0.3138E+00  0.6987E+01
      0.548  0.3883E+00  0.7014E+01
      0.619  0.2360E+00  0.7031E+01
      0.689  0.1212E+00  0.7039E+01
      0.760  0.2505E+00  0.7057E+01
      0.830  0.2816E+00  0.7077E+01
      0.901  0.1330E+00  0.7086E+01
      0.971  0.1544E+00  0.7097E+01
      1.042  0.3711E+00  0.7123E+01
      1.112  0.3234E+00  0.7146E+01
      1.182  0.1368E+00  0.7155E+01
      1.253  0.2363E+00  0.7172E+01
      1.323  0.2423E+00  0.7189E+01
      1.394  0.8538E-01  0.7195E+01
      1.464  0.8385E-01  0.7201E+01
      1.535  0.9678E-01  0.7208E+01
      1.605  0.1764E-01  0.7209E+01
      1.676 -0.1167E-01  0.7208E+01
      1.746 -0.4040E-02  0.7208E+01
      1.817  0.9914E-01  0.7215E+01
      1.887  0.2089E+00  0.7230E+01
      1.958  0.1446E+00  0.7240E+01
      2.028  0.1595E+00  0.7251E+01
      2.099  0.2247E+00  0.7267E+01
      2.169  0.1874E+00  0.7280E+01
      2.239  0.1378E+00  0.7290E+01
      2.310  0.1002E+00  0.7297E+01
      2.380  0.1020E+00  0.7304E+01
      2.451  0.1183E+00  0.7312E+01
      2.521  0.2301E+00  0.7329E+01
      2.592  0.1822E+00  0.7342E+01
      2.662  0.2478E-01  0.7343E+01
      2.733  0.3049E-01  0.7345E+01
      2.803  0.5189E-01  0.7349E+01
      2.874  0.4003E-01  0.7352E+01
      2.944  0.1021E+00  0.7359E+01
      3.015  0.2000E+00  0.7373E+01
      3.085  0.3403E+00  0.7397E+01
      3.155  0.3947E+00  0.7425E+01
      3.226  0.2459E+00  0.7442E+01
      3.296  0.2893E+00  0.7463E+01
      3.367  0.4384E+00  0.7494E+01
      3.437  0.4425E+00  0.7525E+01
      3.508  0.2793E+00  0.7544E+01
      3.578  0.1426E+00  0.7554E+01
      3.649  0.2331E+00  0.7571E+01
      3.719  0.4102E+00  0.7600E+01
      3.790  0.4170E+00  0.7629E+01
      3.860  0.2904E+00  0.7650E+01
      3.931  0.4206E+00  0.7679E+01
      4.001  0.4784E+00  0.7713E+01
      4.072  0.3103E+00  0.7735E+01
      4.142  0.2132E+00  0.7750E+01
      4.212  0.4527E+00  0.7782E+01
      4.283  0.5884E+00  0.7823E+01
      4.353  0.5285E+00  0.7860E+01
      4.424  0.3793E+00  0.7887E+01
      4.494  0.4085E+00  0.7916E+01
      4.565  0.3872E+00  0.7943E+01
      4.635  0.3217E+00  0.7966E+01
      4.706  0.2985E+00  0.7987E+01
      4.776  0.3410E+00  0.8011E+01
      4.847  0.3955E+00  0.8039E+01
      4.917  0.3539E+00  0.8064E+01
      4.988  0.4261E+00  0.8094E+01
      5.058  0.6394E+00  0.8139E+01
      5.129  0.4831E+00  0.8173E+01
      5.199  0.3496E+00  0.8198E+01
      5.269  0.5531E+00  0.8237E+01
      5.340  0.6419E+00  0.8282E+01
      5.410  0.5345E+00  0.8319E+01
      5.481  0.2901E+00  0.8340E+01
      5.551  0.1972E+00  0.8354E+01
      5.622  0.3202E+00  0.8376E+01
      5.692  0.4545E+00  0.8408E+01
      5.763  0.5817E+00  0.8449E+01
      5.833  0.7368E+00  0.8501E+01
      5.904  0.6828E+00  0.8549E+01
      5.974  0.3680E+00  0.8575E+01
      6.045  0.1412E+00  0.8585E+01
      6.115  0.2890E+00  0.8606E+01
      6.186  0.4974E+00  0.8641E+01
      6.256  0.4399E+00  0.8672E+01
      6.326  0.3830E+00  0.8699E+01
      6.397  0.3243E+00  0.8722E+01
      6.467  0.2438E+00  0.8739E+01
      6.538  0.3279E+00  0.8762E+01
      6.608  0.4610E+00  0.8794E+01
      6.679  0.5630E+00  0.8834E+01
      6.749  0.5661E+00  0.8874E+01
      6.820  0.4653E+00  0.8907E+01
      6.890  0.5683E+00  0.8947E+01
      6.961  0.6690E+00  0.8994E+01
      7.031  0.4257E+00  0.9024E+01
      7.102  0.3636E+00  0.9049E+01
      7.172  0.6690E+00  0.9097E+01
      7.243  0.5058E+00  0.9132E+01
      7.313  0.2877E+00  0.9153E+01
      7.383  0.4545E+00  0.9185E+01
      7.454  0.4325E+00  0.9215E+01
      7.524  0.3011E+00  0.9236E+01
      7.595  0.5695E+00  0.9276E+01
      7.665  0.7393E+00  0.9328E+01
      7.736  0.6397E+00  0.9374E+01
      7.806  0.6230E+00  0.9417E+01
      7.877  0.6199E+00  0.9461E+01
      7.947  0.4272E+00  0.9491E+01
      8.018  0.3686E+00  0.9517E+01
      8.088  0.2744E+00  0.9537E+01
      8.159  0.5849E-01  0.9541E+01
      8.229 -0.1920E-01  0.9539E+01
      8.300  0.1418E-01  0.9540E+01
      8.370  0.1132E+00  0.9548E+01
      8.440  0.2257E+00  0.9564E+01
      8.511  0.2302E+00  0.9580E+01
      8.581  0.1120E+00  0.9588E+01
      8.652  0.4214E-01  0.9591E+01
      8.722  0.5218E-02  0.9592E+01
      8.793 -0.3281E-02  0.9591E+01
      8.863 -0.1941E-02  0.9591E+01
      8.934 -0.1943E-02  0.9591E+01
      9.004  0.2115E-01  0.9593E+01
      9.075  0.6309E-01  0.9597E+01
      9.145  0.4225E-01  0.9600E+01
      9.216  0.2285E-02  0.9600E+01
      9.286 -0.2459E-02  0.9600E+01
      9.357 -0.3401E-03  0.9600E+01
      9.427 -0.1265E-04  0.9600E+01
      9.497 -0.1552E-06  0.9600E+01
      9.568 -0.6652E-09  0.9600E+01
      9.638 -0.1019E-11  0.9600E+01
      9.709 -0.5602E-15  0.9600E+01
      9.779  0.0000E+00  0.9600E+01
      9.850  0.0000E+00  0.9600E+01
      9.920  0.0000E+00  0.9600E+01
      9.991  0.0000E+00  0.9600E+01
     10.061  0.0000E+00  0.9600E+01
