   12   12   20    1
  0.4617591E+02  0.5142081E-09  0.5142081E-09  0.2419849E-08  0.5000000E-15
  1.000000000000000E-004
  CAR 
 unknown system                          
    132     12     96
 
  0.0000000E+00  0.0000000E+00  0.0000000E+00  0.1234568E-01
    1      -10.078635   1.000000
    2       -8.107505   1.000000
    3       -6.598696   1.000000
    4       -6.176246   1.000000
    5       -6.176232   1.000000
    6       -6.176232   1.000000
    7       -5.988838   1.000000
    8       -5.988830   1.000000
    9       -5.988830   1.000000
   10       -5.602540   1.000000
   11       -5.602540   1.000000
   12       -5.602538   1.000000
   13       -5.556642   1.000000
   14       -5.556632   1.000000
   15       -5.556632   1.000000
   16       -4.904840   1.000000
   17       -4.904840   1.000000
   18       -4.904837   1.000000
   19       -4.505099   1.000000
   20       -4.505099   1.000000
   21       -4.505094   1.000000
   22       -4.436951   1.000000
   23       -4.412322   1.000000
   24       -4.412318   1.000000
   25       -4.374485   1.000000
   26       -4.269334   1.000000
   27       -4.269332   1.000000
   28       -4.262139   1.000000
   29       -4.262139   1.000000
   30       -4.262136   1.000000
   31       -4.139451   1.000000
   32       -4.139446   1.000000
   33       -4.030408   1.000000
   34       -4.030408   1.000000
   35       -4.030404   1.000000
   36       -3.604332   1.000000
   37       -3.604332   1.000000
   38       -3.581404   1.000000
   39       -3.581404   1.000000
   40       -3.581402   1.000000
   41       -3.580213   1.000000
   42       -3.580213   1.000000
   43       -3.580212   1.000000
   44       -3.340383   1.000000
   45       -3.340381   1.000000
   46       -3.154686   1.000000
   47       -3.154685   1.000000
   48       -3.154685   1.000000
   49       -3.116506   1.000000
   50       -3.116498   1.000000
   51       -3.116498   1.000000
   52       -3.094318   1.000000
   53       -3.094316   1.000000
   54       -3.059818   1.000000
   55       -3.059807   1.000000
   56       -3.059807   1.000000
   57       -3.012674   1.000000
   58       -2.902795   1.000000
   59       -2.902782   1.000000
   60       -2.902782   1.000000
   61       -2.884875   1.000000
   62       -2.884862   1.000000
   63       -2.884862   1.000000
   64       -1.532440   0.714256
   65       -1.479391   0.282351
   66       -1.479391   0.282351
   67       -1.479364   0.282147
   68       -0.383282  -0.000000
   69       -0.383282  -0.000000
   70       -0.383265  -0.000000
   71        0.051576  -0.000000
   72        0.051576  -0.000000
   73        0.051597  -0.000000
   74        2.670723   0.000000
   75        2.906713   0.000000
   76        2.906736   0.000000
   77        2.906736   0.000000
   78        3.040274   0.000000
   79        3.366865   0.000000
   80        4.061206   0.000000
   81        4.061223   0.000000
   82        4.061223   0.000000
   83        4.354571   0.000000
   84        4.764307   0.000000
   85        4.901225   0.000000
   86        4.901241   0.000000
   87        4.901241   0.000000
   88        6.503049   0.000000
   89        6.590203   0.000000
   90        7.540562   0.000000
   91        7.540562   0.000000
   92        7.540580   0.000000
   93        7.832310   0.000000
   94        7.832337   0.000000
   95        7.832337   0.000000
   96        9.009640   0.000000
 
  0.1111111E+00 -0.6938894E-17  0.0000000E+00  0.7407407E-01
    1       -9.981533   1.000000
    2       -8.015895   1.000000
    3       -6.526285   1.000000
    4       -6.265999   1.000000
    5       -6.154799   1.000000
    6       -6.154786   1.000000
    7       -5.989075   1.000000
    8       -5.956100   1.000000
    9       -5.956092   1.000000
   10       -5.610483   1.000000
   11       -5.585407   1.000000
   12       -5.585406   1.000000
   13       -5.500119   1.000000
   14       -5.500110   1.000000
   15       -5.498114   1.000000
   16       -4.901580   1.000000
   17       -4.901576   1.000000
   18       -4.896032   1.000000
   19       -4.491513   1.000000
   20       -4.490693   1.000000
   21       -4.487993   1.000000
   22       -4.487989   1.000000
   23       -4.440225   1.000000
   24       -4.396504   1.000000
   25       -4.379748   1.000000
   26       -4.309594   1.000000
   27       -4.309591   1.000000
   28       -4.251706   1.000000
   29       -4.245922   1.000000
   30       -4.237602   1.000000
   31       -4.152616   1.000000
   32       -4.106035   1.000000
   33       -4.075886   1.000000
   34       -4.049196   1.000000
   35       -4.049193   1.000000
   36       -3.657814   1.000000
   37       -3.657813   1.000000
   38       -3.623905   1.000000
   39       -3.622720   1.000000
   40       -3.615489   1.000000
   41       -3.580814   1.000000
   42       -3.570188   1.000000
   43       -3.570186   1.000000
   44       -3.484010   1.000000
   45       -3.339947   1.000000
   46       -3.212144   1.000000
   47       -3.193052   1.000000
   48       -3.193048   1.000000
   49       -3.171826   1.000000
   50       -3.160889   1.000000
   51       -3.146144   1.000000
   52       -3.146132   1.000000
   53       -3.112451   1.000000
   54       -3.112445   1.000000
   55       -3.093244   1.000000
   56       -3.083734   1.000000
   57       -2.998313   1.000000
   58       -2.998306   1.000000
   59       -2.945402   1.000000
   60       -2.945391   1.000000
   61       -2.939586   1.000000
   62       -2.922975   1.000000
   63       -2.800062   1.000000
   64       -2.144925   1.000000
   65       -1.508769   0.522232
   66       -1.508748   0.522054
   67       -1.296995  -0.005883
   68       -1.053015  -0.000000
   69       -0.466197  -0.000000
   70       -0.466175  -0.000000
   71        0.462285  -0.000000
   72        0.462301  -0.000000
   73        0.741909  -0.000000
   74        2.755663   0.000000
   75        3.076796   0.000000
   76        3.076817   0.000000
   77        3.136038   0.000000
   78        3.156372   0.000000
   79        3.456493   0.000000
   80        3.930388   0.000000
   81        3.930410   0.000000
   82        3.977787   0.000000
   83        4.449066   0.000000
   84        4.847881   0.000000
   85        5.241681   0.000000
   86        5.241694   0.000000
   87        5.356965   0.000000
   88        6.595555   0.000000
   89        6.675588   0.000000
   90        6.991873   0.000000
   91        7.154520   0.000000
   92        7.154522   0.000000
   93        8.341587   0.000000
   94        8.476378   0.000000
   95        8.476396   0.000000
   96        9.061166   0.000000
 
  0.2222222E+00 -0.2775558E-16  0.0000000E+00  0.7407407E-01
    1       -9.693650   1.000000
    2       -7.747890   1.000000
    3       -6.578400   1.000000
    4       -6.319776   1.000000
    5       -6.093390   1.000000
    6       -6.093378   1.000000
    7       -6.005114   1.000000
    8       -5.864205   1.000000
    9       -5.864198   1.000000
   10       -5.579409   1.000000
   11       -5.518323   1.000000
   12       -5.518322   1.000000
   13       -5.385092   1.000000
   14       -5.358596   1.000000
   15       -5.358588   1.000000
   16       -4.898438   1.000000
   17       -4.898435   1.000000
   18       -4.872149   1.000000
   19       -4.628956   1.000000
   20       -4.498529   1.000000
   21       -4.468125   1.000000
   22       -4.468123   1.000000
   23       -4.462965   1.000000
   24       -4.445460   1.000000
   25       -4.412669   1.000000
   26       -4.412664   1.000000
   27       -4.287276   1.000000
   28       -4.229803   1.000000
   29       -4.222120   1.000000
   30       -4.184626   1.000000
   31       -4.183464   1.000000
   32       -4.169531   1.000000
   33       -4.110236   1.000000
   34       -4.110234   1.000000
   35       -4.008763   1.000000
   36       -3.791196   1.000000
   37       -3.791194   1.000000
   38       -3.756461   1.000000
   39       -3.752541   1.000000
   40       -3.636986   1.000000
   41       -3.617873   1.000000
   42       -3.617871   1.000000
   43       -3.596915   1.000000
   44       -3.585646   1.000000
   45       -3.465096   1.000000
   46       -3.465088   1.000000
   47       -3.376715   1.000000
   48       -3.342034   1.000000
   49       -3.332354   1.000000
   50       -3.264032   1.000000
   51       -3.264024   1.000000
   52       -3.244887   1.000000
   53       -3.201347   1.000000
   54       -3.201337   1.000000
   55       -3.135853   1.000000
   56       -3.100756   1.000000
   57       -3.100755   1.000000
   58       -3.090153   1.000000
   59       -3.053739   1.000000
   60       -3.004239   1.000000
   61       -2.998909   1.000000
   62       -2.998906   1.000000
   63       -2.964693   1.000000
   64       -2.433062   1.000000
   65       -2.039265   1.000000
   66       -1.546572   0.813118
   67       -1.546559   0.813035
   68       -0.731995  -0.000000
   69       -0.465404  -0.000000
   70       -0.465385  -0.000000
   71        0.654066  -0.000000
   72        1.208042  -0.000000
   73        1.208058  -0.000000
   74        3.010150   0.000000
   75        3.329437   0.000000
   76        3.329458   0.000000
   77        3.423060   0.000000
   78        3.725938   0.000000
   79        3.784588   0.000000
   80        4.183088   0.000000
   81        4.183111   0.000000
   82        4.325640   0.000000
   83        4.732405   0.000000
   84        5.099848   0.000000
   85        5.651445   0.000000
   86        5.655281   0.000000
   87        5.655288   0.000000
   88        6.872911   0.000000
   89        6.933007   0.000000
   90        7.105349   0.000000
   91        7.212252   0.000000
   92        7.212254   0.000000
   93        7.683230   0.000000
   94        7.880830   0.000000
   95        8.432911   0.000000
   96        8.586673   0.000000
 
  0.3333333E+00 -0.5551115E-16  0.0000000E+00  0.7407407E-01
    1       -9.226501   1.000000
    2       -7.328785   1.000000
    3       -7.150807   1.000000
    4       -6.094354   1.000000
    5       -6.017059   1.000000
    6       -6.006644   1.000000
    7       -6.006634   1.000000
    8       -5.738055   1.000000
    9       -5.738050   1.000000
   10       -5.523094   1.000000
   11       -5.408472   1.000000
   12       -5.408470   1.000000
   13       -5.241583   1.000000
   14       -5.180266   1.000000
   15       -5.180260   1.000000
   16       -4.890347   1.000000
   17       -4.890346   1.000000
   18       -4.851201   1.000000
   19       -4.781187   1.000000
   20       -4.642223   1.000000
   21       -4.642220   1.000000
   22       -4.641501   1.000000
   23       -4.478297   1.000000
   24       -4.470130   1.000000
   25       -4.348521   1.000000
   26       -4.348517   1.000000
   27       -4.291731   1.000000
   28       -4.230552   1.000000
   29       -4.209044   1.000000
   30       -4.209043   1.000000
   31       -4.179354   1.000000
   32       -4.171971   1.000000
   33       -4.163772   1.000000
   34       -4.093489   1.000000
   35       -3.958661   1.000000
   36       -3.955293   1.000000
   37       -3.955291   1.000000
   38       -3.898149   1.000000
   39       -3.856695   1.000000
   40       -3.846556   1.000000
   41       -3.846554   1.000000
   42       -3.743365   1.000000
   43       -3.731395   1.000000
   44       -3.675990   1.000000
   45       -3.675987   1.000000
   46       -3.634213   1.000000
   47       -3.626763   1.000000
   48       -3.427833   1.000000
   49       -3.427822   1.000000
   50       -3.395573   1.000000
   51       -3.359214   1.000000
   52       -3.356373   1.000000
   53       -3.349518   1.000000
   54       -3.308135   1.000000
   55       -3.308132   1.000000
   56       -3.249054   1.000000
   57       -3.215994   1.000000
   58       -3.113624   1.000000
   59       -3.113624   1.000000
   60       -3.085425   1.000000
   61       -3.056837   1.000000
   62       -3.005940   1.000000
   63       -3.005939   1.000000
   64       -2.744554   1.000000
   65       -1.998274   1.000000
   66       -1.551042   0.840820
   67       -1.551035   0.840779
   68       -0.429729  -0.000000
   69       -0.429719  -0.000000
   70       -0.122080  -0.000000
   71        0.016491  -0.000000
   72        1.838430   0.000000
   73        1.838447   0.000000
   74        2.984574   0.000000
   75        3.433538   0.000000
   76        3.728296   0.000000
   77        3.728325   0.000000
   78        3.900405   0.000000
   79        4.176763   0.000000
   80        4.983740   0.000000
   81        4.983756   0.000000
   82        5.204006   0.000000
   83        5.451557   0.000000
   84        5.523418   0.000000
   85        5.800879   0.000000
   86        5.800884   0.000000
   87        6.051378   0.000000
   88        6.504241   0.000000
   89        6.654691   0.000000
   90        7.334220   0.000000
   91        7.365027   0.000000
   92        7.608813   0.000000
   93        7.755645   0.000000
   94        7.828270   0.000000
   95        7.828273   0.000000
   96        8.046662   0.000000
 
  0.4444444E+00 -0.5551115E-16  0.0000000E+00  0.7407407E-01
    1       -8.604774   1.000000
    2       -7.879079   1.000000
    3       -6.821519   1.000000
    4       -6.360209   1.000000
    5       -5.934861   1.000000
    6       -5.934857   1.000000
    7       -5.703778   1.000000
    8       -5.635734   1.000000
    9       -5.635732   1.000000
   10       -5.523709   1.000000
   11       -5.290073   1.000000
   12       -5.290071   1.000000
   13       -5.114285   1.000000
   14       -5.114284   1.000000
   15       -5.082223   1.000000
   16       -4.930180   1.000000
   17       -4.857564   1.000000
   18       -4.804714   1.000000
   19       -4.804712   1.000000
   20       -4.792426   1.000000
   21       -4.774744   1.000000
   22       -4.774741   1.000000
   23       -4.484485   1.000000
   24       -4.450885   1.000000
   25       -4.369600   1.000000
   26       -4.327899   1.000000
   27       -4.327899   1.000000
   28       -4.239097   1.000000
   29       -4.239096   1.000000
   30       -4.227761   1.000000
   31       -4.187837   1.000000
   32       -4.187836   1.000000
   33       -4.180727   1.000000
   34       -4.135489   1.000000
   35       -4.129550   1.000000
   36       -4.114959   1.000000
   37       -4.100790   1.000000
   38       -4.076581   1.000000
   39       -4.076581   1.000000
   40       -4.018482   1.000000
   41       -3.934778   1.000000
   42       -3.757740   1.000000
   43       -3.753806   1.000000
   44       -3.682888   1.000000
   45       -3.682886   1.000000
   46       -3.664643   1.000000
   47       -3.638567   1.000000
   48       -3.566658   1.000000
   49       -3.562559   1.000000
   50       -3.562554   1.000000
   51       -3.465388   1.000000
   52       -3.439219   1.000000
   53       -3.359046   1.000000
   54       -3.359045   1.000000
   55       -3.355898   1.000000
   56       -3.330482   1.000000
   57       -3.244145   1.000000
   58       -3.114616   1.000000
   59       -3.114616   1.000000
   60       -3.079959   1.000000
   61       -3.072887   1.000000
   62       -3.067628   1.000000
   63       -3.003029   1.000000
   64       -3.003029   1.000000
   65       -1.543620   0.793827
   66       -1.543618   0.793813
   67       -1.486302   0.335718
   68       -0.868011  -0.000000
   69       -0.408224  -0.000000
   70       -0.408220  -0.000000
   71        0.897955  -0.000000
   72        1.894741   0.000000
   73        2.070336   0.000000
   74        2.070342   0.000000
   75        4.024793   0.000000
   76        4.566071   0.000000
   77        4.690059   0.000000
   78        4.690081   0.000000
   79        4.775554   0.000000
   80        4.810794   0.000000
   81        5.364498   0.000000
   82        5.364502   0.000000
   83        5.414477   0.000000
   84        5.626814   0.000000
   85        5.862153   0.000000
   86        6.120816   0.000000
   87        6.254150   0.000000
   88        6.254167   0.000000
   89        6.649883   0.000000
   90        6.649892   0.000000
   91        6.694687   0.000000
   92        6.871712   0.000000
   93        7.859170   0.000000
   94        7.859171   0.000000
   95        7.968580   0.000000
   96        7.975025   0.000000
 
  0.2222222E+00  0.1111111E+00  0.0000000E+00  0.7407407E-01
    1       -9.789002   1.000000
    2       -7.835933   1.000000
    3       -6.386494   1.000000
    4       -6.342202   1.000000
    5       -6.342190   1.000000
    6       -6.013488   1.000000
    7       -5.959294   1.000000
    8       -5.959287   1.000000
    9       -5.864201   1.000000
   10       -5.573740   1.000000
   11       -5.573739   1.000000
   12       -5.524346   1.000000
   13       -5.412941   1.000000
   14       -5.412934   1.000000
   15       -5.400230   1.000000
   16       -4.901566   1.000000
   17       -4.887828   1.000000
   18       -4.887824   1.000000
   19       -4.589258   1.000000
   20       -4.466902   1.000000
   21       -4.466897   1.000000
   22       -4.455224   1.000000
   23       -4.454335   1.000000
   24       -4.453847   1.000000
   25       -4.431493   1.000000
   26       -4.316287   1.000000
   27       -4.306091   1.000000
   28       -4.306088   1.000000
   29       -4.221467   1.000000
   30       -4.209587   1.000000
   31       -4.166829   1.000000
   32       -4.115882   1.000000
   33       -4.115877   1.000000
   34       -4.080137   1.000000
   35       -4.038490   1.000000
   36       -3.768030   1.000000
   37       -3.721998   1.000000
   38       -3.721996   1.000000
   39       -3.710080   1.000000
   40       -3.638220   1.000000
   41       -3.602714   1.000000
   42       -3.592391   1.000000
   43       -3.592388   1.000000
   44       -3.544873   1.000000
   45       -3.423611   1.000000
   46       -3.377204   1.000000
   47       -3.314427   1.000000
   48       -3.314426   1.000000
   49       -3.269547   1.000000
   50       -3.233157   1.000000
   51       -3.233151   1.000000
   52       -3.216496   1.000000
   53       -3.163045   1.000000
   54       -3.163044   1.000000
   55       -3.128070   1.000000
   56       -3.127434   1.000000
   57       -3.105975   1.000000
   58       -3.047398   1.000000
   59       -3.047381   1.000000
   60       -3.005662   1.000000
   61       -3.005649   1.000000
   62       -3.001783   1.000000
   63       -2.537199   1.000000
   64       -2.377776   1.000000
   65       -2.377774   1.000000
   66       -1.383762  -0.035458
   67       -1.383745  -0.035458
   68       -0.904976  -0.000000
   69       -0.803323  -0.000000
   70        0.054962  -0.000000
   71        0.587439  -0.000000
   72        0.988245  -0.000000
   73        0.988273  -0.000000
   74        2.925384   0.000000
   75        3.050801   0.000000
   76        3.327439   0.000000
   77        3.387548   0.000000
   78        3.387571   0.000000
   79        3.636037   0.000000
   80        4.308950   0.000000
   81        4.465034   0.000000
   82        4.465046   0.000000
   83        4.637991   0.000000
   84        5.015676   0.000000
   85        5.140360   0.000000
   86        5.281622   0.000000
   87        5.281625   0.000000
   88        6.780505   0.000000
   89        6.847032   0.000000
   90        7.565126   0.000000
   91        7.565141   0.000000
   92        7.787551   0.000000
   93        7.787576   0.000000
   94        7.820545   0.000000
   95        8.056067   0.000000
   96        8.452154   0.000000
 
  0.3333333E+00  0.1111111E+00  0.0000000E+00  0.1481481E+00
    1       -9.411063   1.000000
    2       -7.490901   1.000000
    3       -6.781455   1.000000
    4       -6.383609   1.000000
    5       -6.129032   1.000000
    6       -5.998270   1.000000
    7       -5.876163   1.000000
    8       -5.851998   1.000000
    9       -5.727741   1.000000
   10       -5.520761   1.000000
   11       -5.476969   1.000000
   12       -5.433328   1.000000
   13       -5.285760   1.000000
   14       -5.258745   1.000000
   15       -5.237004   1.000000
   16       -4.897150   1.000000
   17       -4.892034   1.000000
   18       -4.868835   1.000000
   19       -4.724511   1.000000
   20       -4.597491   1.000000
   21       -4.573246   1.000000
   22       -4.524034   1.000000
   23       -4.488731   1.000000
   24       -4.476970   1.000000
   25       -4.394675   1.000000
   26       -4.354783   1.000000
   27       -4.293161   1.000000
   28       -4.258501   1.000000
   29       -4.224756   1.000000
   30       -4.185619   1.000000
   31       -4.180847   1.000000
   32       -4.174630   1.000000
   33       -4.153133   1.000000
   34       -4.118264   1.000000
   35       -3.911016   1.000000
   36       -3.907470   1.000000
   37       -3.879669   1.000000
   38       -3.877467   1.000000
   39       -3.827656   1.000000
   40       -3.725689   1.000000
   41       -3.715993   1.000000
   42       -3.685506   1.000000
   43       -3.670745   1.000000
   44       -3.656930   1.000000
   45       -3.629125   1.000000
   46       -3.602755   1.000000
   47       -3.586905   1.000000
   48       -3.476525   1.000000
   49       -3.409711   1.000000
   50       -3.378692   1.000000
   51       -3.334641   1.000000
   52       -3.277774   1.000000
   53       -3.274901   1.000000
   54       -3.267396   1.000000
   55       -3.220642   1.000000
   56       -3.147174   1.000000
   57       -3.138463   1.000000
   58       -3.109937   1.000000
   59       -3.102452   1.000000
   60       -3.081208   1.000000
   61       -3.035251   1.000000
   62       -3.034353   1.000000
   63       -2.924694   1.000000
   64       -2.357736   1.000000
   65       -2.284574   1.000000
   66       -2.157453   1.000000
   67       -1.470269   0.216997
   68       -0.527686  -0.000000
   69       -0.264655  -0.000000
   70        0.373356  -0.000000
   71        0.514251  -0.000000
   72        1.056113  -0.000000
   73        1.297807   0.000000
   74        3.264392   0.000000
   75        3.437435   0.000000
   76        3.607875   0.000000
   77        3.709676   0.000000
   78        3.996233   0.000000
   79        4.022343   0.000000
   80        4.354291   0.000000
   81        4.590415   0.000000
   82        4.897009   0.000000
   83        5.015523   0.000000
   84        5.353666   0.000000
   85        5.757335   0.000000
   86        5.896926   0.000000
   87        6.181469   0.000000
   88        6.948892   0.000000
   89        7.142465   0.000000
   90        7.150014   0.000000
   91        7.192115   0.000000
   92        7.349191   0.000000
   93        7.395187   0.000000
   94        7.614464   0.000000
   95        7.725723   0.000000
   96        7.964278   0.000000
 
  0.4444444E+00  0.1111111E+00  0.0000000E+00  0.1481481E+00
    1       -8.864938   1.000000
    2       -7.446790   1.000000
    3       -7.021424   1.000000
    4       -6.398624   1.000000
    5       -6.156476   1.000000
    6       -5.809592   1.000000
    7       -5.774872   1.000000
    8       -5.695006   1.000000
    9       -5.585624   1.000000
   10       -5.470379   1.000000
   11       -5.339466   1.000000
   12       -5.326396   1.000000
   13       -5.135022   1.000000
   14       -5.134922   1.000000
   15       -5.100016   1.000000
   16       -4.884827   1.000000
   17       -4.878165   1.000000
   18       -4.864561   1.000000
   19       -4.847228   1.000000
   20       -4.757359   1.000000
   21       -4.730668   1.000000
   22       -4.674386   1.000000
   23       -4.511805   1.000000
   24       -4.507066   1.000000
   25       -4.350600   1.000000
   26       -4.348477   1.000000
   27       -4.320931   1.000000
   28       -4.252826   1.000000
   29       -4.249370   1.000000
   30       -4.245158   1.000000
   31       -4.223891   1.000000
   32       -4.211110   1.000000
   33       -4.157829   1.000000
   34       -4.092616   1.000000
   35       -4.061462   1.000000
   36       -4.060450   1.000000
   37       -4.017720   1.000000
   38       -4.010028   1.000000
   39       -3.997768   1.000000
   40       -3.997610   1.000000
   41       -3.913103   1.000000
   42       -3.781560   1.000000
   43       -3.722218   1.000000
   44       -3.704666   1.000000
   45       -3.686005   1.000000
   46       -3.660529   1.000000
   47       -3.578453   1.000000
   48       -3.568565   1.000000
   49       -3.567371   1.000000
   50       -3.479444   1.000000
   51       -3.415836   1.000000
   52       -3.403313   1.000000
   53       -3.353776   1.000000
   54       -3.295508   1.000000
   55       -3.283801   1.000000
   56       -3.239066   1.000000
   57       -3.211037   1.000000
   58       -3.148578   1.000000
   59       -3.111709   1.000000
   60       -3.100848   1.000000
   61       -3.087878   1.000000
   62       -3.038383   1.000000
   63       -3.034453   1.000000
   64       -2.840092   1.000000
   65       -2.313238   1.000000
   66       -1.693614   1.011729
   67       -1.469145   0.209401
   68       -0.511085  -0.000000
   69       -0.436540  -0.000000
   70        0.537542  -0.000000
   71        0.779202  -0.000000
   72        1.040207  -0.000000
   73        2.361040   0.000000
   74        2.512400   0.000000
   75        3.772238   0.000000
   76        3.892942   0.000000
   77        4.214505   0.000000
   78        4.281398   0.000000
   79        4.538947   0.000000
   80        4.780708   0.000000
   81        5.256594   0.000000
   82        5.346468   0.000000
   83        5.580713   0.000000
   84        5.853212   0.000000
   85        5.865255   0.000000
   86        5.966046   0.000000
   87        6.163633   0.000000
   88        6.610764   0.000000
   89        6.703622   0.000000
   90        6.943822   0.000000
   91        7.309578   0.000000
   92        7.424867   0.000000
   93        7.542559   0.000000
   94        7.586144   0.000000
   95        7.690237   0.000000
   96        7.702232   0.000000
 
 -0.4444444E+00  0.1111111E+00  0.0000000E+00  0.7407407E-01
    1       -8.186034   1.000000
    2       -8.186034   1.000000
    3       -6.522720   1.000000
    4       -6.522720   1.000000
    5       -6.401155   1.000000
    6       -5.725279   1.000000
    7       -5.614512   1.000000
    8       -5.544923   1.000000
    9       -5.544923   1.000000
   10       -5.523439   1.000000
   11       -5.258949   1.000000
   12       -5.225471   1.000000
   13       -5.136464   1.000000
   14       -5.125809   1.000000
   15       -4.989152   1.000000
   16       -4.989152   1.000000
   17       -4.912221   1.000000
   18       -4.868376   1.000000
   19       -4.868375   1.000000
   20       -4.763106   1.000000
   21       -4.729890   1.000000
   22       -4.688250   1.000000
   23       -4.474034   1.000000
   24       -4.474033   1.000000
   25       -4.453303   1.000000
   26       -4.386720   1.000000
   27       -4.384548   1.000000
   28       -4.384547   1.000000
   29       -4.286042   1.000000
   30       -4.277781   1.000000
   31       -4.277780   1.000000
   32       -4.232719   1.000000
   33       -4.173830   1.000000
   34       -4.150887   1.000000
   35       -4.136558   1.000000
   36       -4.125082   1.000000
   37       -4.106546   1.000000
   38       -4.106545   1.000000
   39       -4.015283   1.000000
   40       -4.015283   1.000000
   41       -3.838019   1.000000
   42       -3.838018   1.000000
   43       -3.705360   1.000000
   44       -3.705359   1.000000
   45       -3.680186   1.000000
   46       -3.646846   1.000000
   47       -3.630592   1.000000
   48       -3.573936   1.000000
   49       -3.521948   1.000000
   50       -3.521939   1.000000
   51       -3.474098   1.000000
   52       -3.474096   1.000000
   53       -3.389654   1.000000
   54       -3.344958   1.000000
   55       -3.344953   1.000000
   56       -3.320292   1.000000
   57       -3.148034   1.000000
   58       -3.148033   1.000000
   59       -3.146789   1.000000
   60       -3.113302   1.000000
   61       -3.067090   1.000000
   62       -3.067089   1.000000
   63       -3.037935   1.000000
   64       -3.032315   1.000000
   65       -2.295526   1.000000
   66       -1.462358   0.165935
   67       -1.129673  -0.000001
   68       -1.129671  -0.000001
   69       -0.514912  -0.000000
   70        0.836075  -0.000000
   71        1.027409  -0.000000
   72        1.469094   0.000000
   73        1.469095   0.000000
   74        3.106381   0.000000
   75        4.173775   0.000000
   76        4.182184   0.000000
   77        4.446672   0.000000
   78        4.446672   0.000000
   79        4.666664   0.000000
   80        5.039617   0.000000
   81        5.039617   0.000000
   82        5.265313   0.000000
   83        5.265313   0.000000
   84        5.809525   0.000000
   85        6.330085   0.000000
   86        6.330085   0.000000
   87        6.388831   0.000000
   88        6.431696   0.000000
   89        6.548362   0.000000
   90        6.548363   0.000000
   91        6.721696   0.000000
   92        6.841973   0.000000
   93        7.095818   0.000000
   94        7.631079   0.000000
   95        7.751964   0.000000
   96        8.376176   0.000000
 
  0.4444444E+00  0.2222222E+00  0.0000000E+00  0.7407407E-01
    1       -8.953000   1.000000
    2       -7.091181   1.000000
    3       -6.931104   1.000000
    4       -6.931097   1.000000
    5       -5.950705   1.000000
    6       -5.950699   1.000000
    7       -5.846382   1.000000
    8       -5.642605   1.000000
    9       -5.557304   1.000000
   10       -5.402403   1.000000
   11       -5.402403   1.000000
   12       -5.332545   1.000000
   13       -5.153967   1.000000
   14       -5.124661   1.000000
   15       -5.124657   1.000000
   16       -4.911095   1.000000
   17       -4.911091   1.000000
   18       -4.861962   1.000000
   19       -4.842344   1.000000
   20       -4.734732   1.000000