       N       E                     dE             d eps       ncg     rms          rms(c)
DAV:   1     0.987993813193E+03    0.98799E+03   -0.47300E+04  2304   0.125E+03
DAV:   2     0.928455226321E+01   -0.97871E+03   -0.93095E+03  2304   0.298E+02
DAV:   3    -0.488435428850E+02   -0.58128E+02   -0.56742E+02  2880   0.120E+02
DAV:   4    -0.503019588023E+02   -0.14584E+01   -0.14576E+01  2712   0.227E+01
DAV:   5    -0.503390854381E+02   -0.37127E-01   -0.37125E-01  3096   0.280E+00    0.254E+01
DAV:   6    -0.465545508400E+02    0.37845E+01   -0.10561E+02  2784   0.107E+02    0.154E+01
DAV:   7    -0.410342197584E+02    0.55203E+01   -0.22121E+01  2808   0.486E+01    0.146E+00
DAV:   8    -0.410422952970E+02   -0.80755E-02   -0.15362E+00  3168   0.191E+01    0.261E+00
DAV:   9    -0.409826809552E+02    0.59614E-01   -0.53723E-01  2880   0.156E+01    0.175E+00
DAV:  10    -0.409385936355E+02    0.44087E-01   -0.18588E-01  2712   0.411E+00    0.277E-01
DAV:  11    -0.409351138988E+02    0.34797E-02   -0.13329E-02  3288   0.206E+00    0.122E-01
DAV:  12    -0.409336293487E+02    0.14846E-02   -0.31706E-03  3312   0.475E-01    0.596E-02
DAV:  13    -0.409336258177E+02    0.35310E-05   -0.13647E-03  3792   0.670E-01    0.119E-01
DAV:  14    -0.409337828200E+02   -0.15700E-03   -0.13976E-03  2808   0.703E-01    0.440E-02
DAV:  15    -0.409344457877E+02   -0.66297E-03   -0.21410E-04  2112   0.822E-02    0.232E-02
DAV:  16    -0.409348300005E+02   -0.38421E-03   -0.10864E-04  2040   0.169E-01    0.171E-02
DAV:  17    -0.409351065676E+02   -0.27657E-03   -0.37088E-05  1944   0.840E-02    0.859E-03
DAV:  18    -0.409351773623E+02   -0.70795E-04   -0.13083E-05  1968   0.323E-02
   1 F= -.40935177E+02 E0= -.40928493E+02  d E =-.409352E+02
       N       E                     dE             d eps       ncg     rms          rms(c)
DAV:   1    -0.409377099618E+02   -0.26034E-02   -0.12964E+00  2472   0.353E+00    0.771E-02
DAV:   2    -0.409396251057E+02   -0.19151E-02   -0.20556E-02  3432   0.110E+00    0.103E-01
DAV:   3    -0.409395471832E+02    0.77922E-04   -0.11610E-03  2784   0.601E-01    0.613E-02
DAV:   4    -0.409395345251E+02    0.12658E-04   -0.11711E-04  1752   0.204E-01
   2 F= -.40939535E+02 E0= -.40932803E+02  d E =-.435716E-02
       N       E                     dE             d eps       ncg     rms          rms(c)
DAV:   1    -0.409301771197E+02    0.93701E-02   -0.11682E+01  2616   0.107E+01    0.269E-01
DAV:   2    -0.409499097179E+02   -0.19733E-01   -0.21373E-01  3552   0.406E+00    0.387E-01
DAV:   3    -0.409484163757E+02    0.14933E-02   -0.13273E-02  2904   0.232E+00    0.196E-01
DAV:   4    -0.409482556447E+02    0.16073E-03   -0.17990E-03  2640   0.592E-01    0.172E-01
DAV:   5    -0.409479402809E+02    0.31536E-03   -0.13860E-03  3552   0.481E-01    0.464E-02
DAV:   6    -0.409479957779E+02   -0.55497E-04   -0.21067E-04  1920   0.988E-02
   3 F= -.40947996E+02 E0= -.40941486E+02  d E =-.128184E-01
       N       E                     dE             d eps       ncg     rms          rms(c)
DAV:   1    -0.408680608754E+02    0.79879E-01   -0.46995E+01  2616   0.218E+01    0.583E-01
DAV:   2    -0.409574736179E+02   -0.89413E-01   -0.97358E-01  3648   0.911E+00    0.862E-01
DAV:   3    -0.409484518928E+02    0.90217E-02   -0.53617E-02  3048   0.511E+00    0.415E-01
DAV:   4    -0.409476426218E+02    0.80927E-03   -0.72120E-03  2808   0.102E+00    0.363E-01
DAV:   5    -0.409457438904E+02    0.18987E-02   -0.52913E-03  3648   0.100E+00    0.117E-01
DAV:   6    -0.409458247510E+02   -0.80861E-04   -0.16515E-03  3528   0.248E-01    0.481E-02
DAV:   7    -0.409457781715E+02    0.46580E-04   -0.65718E-05  1728   0.670E-02
   4 F= -.40945778E+02 E0= -.40941320E+02  d E =-.106008E-01
       N       E                     dE             d eps       ncg     rms          rms(c)
DAV:   1    -0.409257104750E+02    0.20114E-01   -0.15271E+01  2592   0.123E+01    0.252E-01
DAV:   2    -0.409521527276E+02   -0.26442E-01   -0.28188E-01  3336   0.275E+00    0.313E-01
DAV:   3    -0.409512379736E+02    0.91475E-03   -0.61086E-03  2856   0.681E-01    0.224E-01
DAV:   4    -0.409508392132E+02    0.39876E-03   -0.78270E-04  2664   0.564E-01    0.188E-01
DAV:   5    -0.409504380414E+02    0.40117E-03   -0.17042E-03  3792   0.871E-01    0.100E-01
DAV:   6    -0.409503931832E+02    0.44858E-04   -0.12716E-03  4080   0.664E-01    0.406E-02
DAV:   7    -0.409503660886E+02    0.27095E-04   -0.64422E-05  1584   0.123E-01
   5 F= -.40950366E+02 E0= -.40944472E+02  d E =-.151887E-01
