 vasp.5.4.1 05Feb16 (build Feb 08 2018 09:21:51) complex                        
  
 executed on             LinuxIFC date 2019.11.21  23:19:09
 running on   24 total cores
 distrk:  each k-point on   24 cores,    1 groups
 distr:  one band on NCORES_PER_BAND=   1 cores,   24 groups


--------------------------------------------------------------------------------------------------------


 INCAR:
 POTCAR:    PAW_PBE Cu 22Jun2005                  

 ----------------------------------------------------------------------------- 
|                                                                             |
|           W    W    AA    RRRRR   N    N  II  N    N   GGGG   !!!           |
|           W    W   A  A   R    R  NN   N  II  NN   N  G    G  !!!           |
|           W    W  A    A  R    R  N N  N  II  N N  N  G       !!!           |
|           W WW W  AAAAAA  RRRRR   N  N N  II  N  N N  G  GGG   !            |
|           WW  WW  A    A  R   R   N   NN  II  N   NN  G    G                |
|           W    W  A    A  R    R  N    N  II  N    N   GGGG   !!!           |
|                                                                             |
|      For optimal performance we recommend to set                            |
|        NCORE= 4 - approx SQRT( number of cores)                             |
|      NCORE specifies how many cores store one orbital (NPAR=cpu/NCORE).     |
|      This setting can  greatly improve the performance of VASP for DFT.     |
|      The default, NPAR=number of cores might be grossly inefficient         |
|      on modern multi-core architectures or massively parallel machines.     |
|      Do your own testing !!!!                                               |
|      Unfortunately you need to use the default for GW and RPA calculations. |
|      (for HF NCORE is supported but not extensively tested yet)             |
|                                                                             |
 ----------------------------------------------------------------------------- 

 POTCAR:    PAW_PBE Cu 22Jun2005                  
   VRHFIN =Cu: d10 p1                                                           
   LEXCH  = PE                                                                  
   EATOM  =  1390.9808 eV,  102.2342 Ry                                         
                                                                                
   TITEL  = PAW_PBE Cu 22Jun2005                                                
   LULTRA =        F    use ultrasoft PP ?                                      
   IUNSCR =        1    unscreen: 0-lin 1-nonlin 2-no                           
   RPACOR =    2.000    partial core radius                                     
   POMASS =   63.546; ZVAL   =   11.000    mass and valenz                      
   RCORE  =    2.300    outmost cutoff radius                                   
   RWIGS  =    2.200; RWIGS  =    1.164    wigner-seitz radius (au A)           
   ENMAX  =  295.446; ENMIN  =  221.585 eV                                      
   ICORE  =        3    local potential                                         
   LCOR   =        T    correct aug charges                                     
   LPAW   =        T    paw PP                                                  
   EAUG   =  586.980                                                            
   DEXC   =    0.000                                                            
   RMAX   =    2.344    core radius for proj-oper                               
   RAUG   =    1.300    factor for augmentation sphere                          
   RDEP   =    2.302    radius for radial grids                                 
   RDEPT  =    1.771    core radius for aug-charge                              
                                                                                
   Atomic configuration                                                         
    9 entries                                                                   
     n  l   j            E        occ.                                          
     1  0  0.50     -8850.2468   2.0000                                         
     2  0  0.50     -1062.3498   2.0000                                         
     2  1  1.50      -916.8226   6.0000                                         
     3  0  0.50      -114.6929   2.0000                                         
     3  1  1.50       -72.1325   6.0000                                         
     3  2  2.50        -5.0394  10.0000                                         
     4  0  0.50        -4.6097   1.0000                                         
     4  1  0.50        -4.0817   0.0000                                         
     4  3  2.50        -1.3606   0.0000                                         
   Description                                                                  
     l       E           TYP  RCUT    TYP  RCUT                                 
     2     -5.0393973     23  2.200                                             
     2     10.8846608     23  2.200                                             
     0     -4.6097109     23  2.200                                             
     0      8.2520465     23  2.200                                             
     1     -2.7211652     23  2.200                                             
     1     21.7055443     23  2.200                                             
     3      2.7211652     23  2.300                                             
  local pseudopotential read in
  partial core-charges read in
  partial kinetic energy density read in
  atomic valenz-charges read in
  non local Contribution for L=           2  read in
    real space projection operators read in
  non local Contribution for L=           2  read in
    real space projection operators read in
  non local Contribution for L=           0  read in
    real space projection operators read in
  non local Contribution for L=           0  read in
    real space projection operators read in
  non local Contribution for L=           1  read in
    real space projection operators read in
  non local Contribution for L=           1  read in
    real space projection operators read in
    PAW grid and wavefunctions read in
 
   number of l-projection  operators is LMAX  =           6
   number of lm-projection operators is LMMAX =          18
 
  PAW_PBE Cu 22Jun2005                  :
 energy of atom  1       EATOM=-1390.9808
 kinetic energy error for atom=    0.0232 (will be added to EATOM!!)
 
 
 POSCAR: Cu                                      
  positions in cartesian coordinates
  No initial velocities read in
 exchange correlation table for  LEXCH =        8
   RHO(1)=    0.500       N(1)  =     2000
   RHO(2)=  100.500       N(2)  =     4000
 


--------------------------------------------------------------------------------------------------------


 ion  position               nearest neighbor table
   1  0.167  0.167  0.413-   3 2.57   3 2.57   4 2.57   4 2.57   2 2.57   2 2.57   8 2.57   5 2.57
                             6 2.57
   2  0.667  0.167  0.413-   4 2.57   3 2.57   4 2.57   3 2.57   1 2.57   1 2.57   7 2.57   6 2.57
                             5 2.57
   3  0.167  0.667  0.413-   1 2.57   1 2.57   2 2.57   2 2.57   4 2.57   4 2.57   6 2.57   7 2.57
                             8 2.57
   4  0.667  0.667  0.413-   2 2.57   1 2.57   2 2.57   1 2.57   3 2.57   3 2.57   5 2.57   8 2.57
                             7 2.57
   5  0.833  0.333  0.500-   7 2.57   7 2.57   8 2.57   8 2.57   6 2.57   6 2.57   4 2.57  11 2.57
                             1 2.57   9 2.57  12 2.57   2 2.57
   6  0.333  0.333  0.500-   8 2.57   7 2.57   8 2.57   7 2.57   5 2.57   5 2.57   3 2.57  12 2.57
                             2 2.57  11 2.57  10 2.57   1 2.57
   7  0.833  0.833  0.500-   5 2.57   5 2.57   6 2.57   6 2.57   8 2.57   8 2.57   2 2.57   9 2.57
                             3 2.57  10 2.57  11 2.57   4 2.57
   8  0.333  0.833  0.500-   6 2.57   5 2.57   6 2.57   5 2.57   7 2.57   7 2.57   1 2.57  10 2.57
                             4 2.57   9 2.57  12 2.57   3 2.57
   9  0.000  0.000  0.587-  11 2.57  11 2.57  12 2.57  12 2.57  10 2.57  10 2.57   7 2.57   5 2.57
                             8 2.57
  10  0.500  0.000  0.587-  12 2.57  11 2.57  12 2.57  11 2.57   9 2.57   9 2.57   8 2.57   7 2.57
                             6 2.57
  11  0.000  0.500  0.587-   9 2.57   9 2.57  10 2.57  10 2.57  12 2.57  12 2.57   5 2.57   6 2.57
                             7 2.57
  12  0.500  0.500  0.587-  10 2.57   9 2.57  10 2.57   9 2.57  11 2.57  11 2.57   6 2.57   5 2.57
                             8 2.57
 
  LATTYP: Found a hexagonal cell.
 ALAT       =     5.1420805128
 C/A-ratio  =     4.7059728251
  
  Lattice vectors:
  
 A1 = (   2.5710402564,  -4.4531723524,   0.0000000000)
 A2 = (  -5.1420805128,   0.0000000000,   0.0000000000)
 A3 = (   0.0000000000,   0.0000000000, -24.1984911575)


Analysis of symmetry for initial positions (statically):
=====================================================================
 Subroutine PRICEL returns following result:
 
  LATTYP: Found a hexagonal cell.
 ALAT       =     2.5710402564
 C/A-ratio  =     9.4119456502
  
  Lattice vectors:
  
 A1 = (   1.2855201282,  -2.2265861762,   0.0000000000)
 A2 = (  -2.5710402564,   0.0000000000,   0.0000000000)
 A3 = (   0.0000000000,   0.0000000000, -24.1984911575)
 
   4 primitive cells build up your supercell.
 

 Routine SETGRP: Setting up the symmetry group for a 
 hexagonal supercell.


 Subroutine GETGRP returns: Found 12 space group operations
 (whereof  6 operations were pure point group operations)
 out of a pool of 24 trial point group operations.


The static configuration has the point symmetry C_3v.
 The point group associated with its full space group is D_3d.


Analysis of symmetry for dynamics (positions and initial velocities):
=====================================================================
 Subroutine PRICEL returns following result:
 
  LATTYP: Found a hexagonal cell.
 ALAT       =     2.5710402564
 C/A-ratio  =     9.4119456502
  
  Lattice vectors:
  
 A1 = (   1.2855201282,  -2.2265861762,   0.0000000000)
 A2 = (  -2.5710402564,   0.0000000000,   0.0000000000)
 A3 = (   0.0000000000,   0.0000000000, -24.1984911575)
 
   4 primitive cells build up your supercell.
 

 Routine SETGRP: Setting up the symmetry group for a 
 hexagonal supercell.


 Subroutine GETGRP returns: Found 12 space group operations
 (whereof  6 operations were pure point group operations)
 out of a pool of 24 trial point group operations.


The dynamic configuration has the point symmetry C_3v.
 The point group associated with its full space group is D_3d.


 Subroutine INISYM returns: Found 12 space group operations
 (whereof  6 operations are pure point group operations),
 and found     4 'primitive' translations

 
 
 KPOINTS: KPOINTS created by Atomic Simulation Env

Automatic generation of k-mesh.
Space group operators:
 irot       det(A)        alpha          n_x          n_y          n_z        tau_x        tau_y        tau_z
    1     1.000000     0.000000     1.000000     0.000000     0.000000     0.000000     0.000000     0.000000
    2     1.000000   120.000000     0.000000     0.000000     1.000000     0.000000     0.000000     0.000000
    3     1.000000   120.000000     0.000000     0.000000    -1.000000     0.000000     0.000000     0.000000
    4    -1.000000   179.999999     0.500000    -0.866025     0.000000     0.000000     0.000000     0.000000
    5    -1.000000   180.000000     1.000000     0.000000     0.000000     0.000000     0.000000     0.000000
    6    -1.000000   179.999999    -0.500000    -0.866025     0.000000     0.000000     0.000000     0.000000
    7    -1.000000     0.000000     1.000000     0.000000     0.000000     0.166667    -0.333333    -0.000000
    8    -1.000000   120.000000     0.000000     0.000000     1.000000     0.166667    -0.333333    -0.000000
    9    -1.000000   120.000000     0.000000     0.000000    -1.000000     0.166667    -0.333333    -0.000000
   10     1.000000   179.999999     0.500000    -0.866025     0.000000     0.166667    -0.333333    -0.000000
   11     1.000000   180.000000     1.000000     0.000000     0.000000     0.166667    -0.333333    -0.000000
   12     1.000000   179.999999    -0.500000    -0.866025     0.000000     0.166667    -0.333333    -0.000000
 
 Subroutine IBZKPT returns following result:
 ===========================================
 
 Found     12 irreducible k-points:
 
 Following reciprocal coordinates:
            Coordinates               Weight
  0.000000  0.000000  0.000000      1.000000
  0.111111 -0.000000  0.000000      6.000000
  0.222222 -0.000000  0.000000      6.000000
  0.333333 -0.000000  0.000000      6.000000
  0.444444 -0.000000  0.000000      6.000000
  0.222222  0.111111  0.000000      6.000000
  0.333333  0.111111  0.000000     12.000000
  0.444444  0.111111  0.000000     12.000000
 -0.444444  0.111111  0.000000      6.000000
  0.444444  0.222222  0.000000      6.000000
 -0.444444  0.222222  0.000000     12.000000
 -0.333333  0.333333  0.000000      2.000000
 
 Following cartesian coordinates:
            Coordinates               Weight
  0.000000  0.000000  0.000000      1.000000
  0.021608 -0.012476  0.000000      6.000000
  0.043216 -0.024951  0.000000      6.000000
  0.064825 -0.037427  0.000000      6.000000
  0.086433 -0.049902  0.000000      6.000000
  0.043216 -0.000000  0.000000      6.000000
  0.064825 -0.012476  0.000000     12.000000
  0.086433 -0.024951  0.000000     12.000000
 -0.086433  0.074853  0.000000      6.000000
  0.086433  0.000000  0.000000      6.000000
 -0.086433  0.099804  0.000000     12.000000
 -0.064825  0.112280  0.000000      2.000000
 


--------------------------------------------------------------------------------------------------------




 Dimension of arrays:
   k-points           NKPTS =     12   k-points in BZ     NKDIM =     12   number of bands    NBANDS=     96
   number of dos      NEDOS =    301   number of ions     NIONS =     12
   non local maximal  LDIM  =      6   non local SUM 2l+1 LMDIM =     18
   total plane-waves  NPLWV =  94080
   max r-space proj   IRMAX =      1   max aug-charges    IRDMAX=   5117
   dimension x,y,z NGX =    28 NGY =   28 NGZ =  120
   dimension x,y,z NGXF=    56 NGYF=   56 NGZF=  240
   support grid    NGXF=    56 NGYF=   56 NGZF=  240
   ions per type =              12
 NGX,Y,Z   is equivalent  to a cutoff of   9.05,  9.05,  8.24 a.u.
 NGXF,Y,Z  is equivalent  to a cutoff of  18.11, 18.11, 16.49 a.u.


 I would recommend the setting:
   dimension x,y,z NGX =    25 NGY =   25 NGZ =  118
 SYSTEM =  unknown system                          
 POSCAR =  Cu                                      

 Startparameter for this run:
   NWRITE =      2    write-flag & timer
   PREC   = normal    normal or accurate (medium, high low for compatibility)
   ISTART =      0    job   : 0-new  1-cont  2-samecut
   ICHARG =      2    charge: 1-file 2-atom 10-const
   ISPIN  =      1    spin polarized calculation?
   LNONCOLLINEAR =      F non collinear calculations
   LSORBIT =      F    spin-orbit coupling
   INIWAV =      1    electr: 0-lowe 1-rand  2-diag
   LASPH  =      F    aspherical Exc in radial PAW
   METAGGA=      F    non-selfconsistent MetaGGA calc.

 Electronic Relaxation 1
   ENCUT  =  400.0 eV  29.40 Ry    5.42 a.u.   8.39  8.39 39.46*2*pi/ulx,y,z
   ENINI  =  400.0     initial cutoff
   ENAUG  =  587.0 eV  augmentation charge cutoff
   NELM   =     60;   NELMIN=  2; NELMDL= -5     # of ELM steps 
   EDIFF  = 0.1E-03   stopping-criterion for ELM
   LREAL  =      F    real-space projection
   NLSPLINE    = F    spline interpolate recip. space projectors
   LCOMPAT=      F    compatible to vasp.4.4
   GGA_COMPAT  = T    GGA compatible to vasp.4.4-vasp.4.6
   LMAXPAW     = -100 max onsite density
   LMAXMIX     =    2 max onsite mixed and CHGCAR
   VOSKOWN=      0    Vosko Wilk Nusair interpolation
   ROPT   =    0.00000
 Ionic relaxation
   EDIFFG = 0.1E-02   stopping-criterion for IOM
   NSW    =     20    number of steps for IOM
   NBLOCK =      1;   KBLOCK =     20    inner block; outer block 
   IBRION =      2    ionic relax: 0-MD 1-quasi-New 2-CG
   NFREE  =      1    steps in history (QN), initial steepest desc. (CG)
   ISIF   =      2    stress and relaxation
   IWAVPR =     11    prediction:  0-non 1-charg 2-wave 3-comb
   ISYM   =      2    0-nonsym 1-usesym 2-fastsym
   LCORR  =      T    Harris-Foulkes like correction to forces

   POTIM  = 0.5000    time-step for ionic-motion
   TEIN   =    0.0    initial temperature
   TEBEG  =    0.0;   TEEND  =   0.0 temperature during run
   SMASS  =  -3.00    Nose mass-parameter (am)
   estimated Nose-frequenzy (Omega)   =  0.10E-29 period in steps =****** mass=  -0.604E-27a.u.
   SCALEE = 1.0000    scale energy and forces
   NPACO  =    256;   APACO  = 16.0  distance and # of slots for P.C.
   PSTRESS=    0.0 pullay stress

  Mass of Ions in am
   POMASS =  63.55
  Ionic Valenz
   ZVAL   =  11.00
  Atomic Wigner-Seitz radii
   RWIGS  =  -1.00
  virtual crystal weights 
   VCA    =   1.00
   NELECT =     132.0000    total number of electrons
   NUPDOWN=      -1.0000    fix difference up-down

 DOS related values:
   EMIN   =  10.00;   EMAX   =-10.00  energy-range for DOS
   EFERMI =   0.00
   ISMEAR =     1;   SIGMA  =   0.10  broadening in eV -4-tet -1-fermi 0-gaus

 Electronic relaxation 2 (details)
   IALGO  =     38    algorithm
   LDIAG  =      T    sub-space diagonalisation (order eigenvalues)
   LSUBROT=      F    optimize rotation matrix (better conditioning)
   TURBO    =      0    0=normal 1=particle mesh
   IRESTART =      0    0=no restart 2=restart with 2 vectors
   NREBOOT  =      0    no. of reboots
   NMIN     =      0    reboot dimension
   EREF     =   0.00    reference energy to select bands
   IMIX   =      4    mixing-type and parameters
     AMIX     =   0.40;   BMIX     =  1.00
     AMIX_MAG =   1.60;   BMIX_MAG =  1.00
     AMIN     =   0.10
     WC   =   100.;   INIMIX=   1;  MIXPRE=   1;  MAXMIX= -45

 Intra band minimization:
   WEIMIN = 0.0010     energy-eigenvalue tresh-hold
   EBREAK =  0.26E-06  absolut break condition
   DEPER  =   0.30     relativ break condition  

   TIME   =   0.40     timestep for ELM

  volume/ion in A,a.u.               =      46.18       311.61
  Fermi-wavevector in a.u.,A,eV,Ry     =   1.014847  1.917783 14.012838  1.029915
  Thomas-Fermi vector in A             =   2.148098
 
 Write flags
   LWAVE  =      F    write WAVECAR
   LCHARG =      F    write CHGCAR
   LVTOT  =      F    write LOCPOT, total local potential
   LVHAR  =      F    write LOCPOT, Hartree potential only
   LELF   =      F    write electronic localiz. function (ELF)
   LORBIT =      0    0 simple, 1 ext, 2 COOP (PROOUT)


 Dipole corrections
   LMONO  =      F    monopole corrections only (constant potential shift)
   LDIPOL =      F    correct potential (dipole corrections)
   IDIPOL =      0    1-x, 2-y, 3-z, 4-all directions 
   EPSILON=  1.0000000 bulk dielectric constant

 Exchange correlation treatment:
   GGA     =    --    GGA type
   LEXCH   =     8    internal setting for exchange type
   VOSKOWN=      0    Vosko Wilk Nusair interpolation
   LHFCALC =     F    Hartree Fock is set to
   LHFONE  =     F    Hartree Fock one center treatment
   AEXX    =    0.0000 exact exchange contribution

 Linear response parameters
   LEPSILON=     F    determine dielectric tensor
   LRPA    =     F    only Hartree local field effects (RPA)
   LNABLA  =     F    use nabla operator in PAW spheres
   LVEL    =     F    velocity operator in full k-point grid
   LINTERFAST=   F  fast interpolation
   KINTER  =     0    interpolate to denser k-point grid
   CSHIFT  =0.1000    complex shift for real part using Kramers Kronig
   OMEGAMAX=  -1.0    maximum frequency
   DEG_THRESHOLD= 0.2000000E-02 threshold for treating states as degnerate
   RTIME   =    0.100 relaxation time in fs

 Orbital magnetization related:
   ORBITALMAG=     F  switch on orbital magnetization
   LCHIMAG   =     F  perturbation theory with respect to B field
   DQ        =  0.001000  dq finite difference perturbation B field



--------------------------------------------------------------------------------------------------------


 conjugate gradient relaxation of ions
 charge density and potential will be updated during run
 non-spin polarized calculation
 Variant of blocked Davidson
 Davidson routine will perform the subspace rotation
 perform sub-space diagonalisation
    after iterative eigenvector-optimisation
 modified Broyden-mixing scheme, WC =      100.0
 initial mixing is a Kerker type mixing with AMIX =  0.4000 and BMIX =      1.0000
 Hartree-type preconditioning will be used
 using additional bands           30
 reciprocal scheme for non local part
 use partial core corrections
 calculate Harris-corrections to forces 
   (improved forces if not selfconsistent)
 use gradient corrections 
 use of overlap-Matrix (Vanderbilt PP)
 Methfessel and Paxton  Order N= 1 SIGMA  =   0.10


--------------------------------------------------------------------------------------------------------


  energy-cutoff  :      400.00
  volume of cell :      554.11
      direct lattice vectors                 reciprocal lattice vectors
     5.142080513  0.000000000  0.000000000     0.194473812 -0.112279508  0.000000000
     2.571040256  4.453172352  0.000000000     0.000000000  0.224559016  0.000000000
     0.000000000  0.000000000 24.198491158     0.000000000  0.000000000  0.041324891

  length of vectors
     5.142080513  5.142080513 24.198491158     0.224559016  0.224559016  0.041324891


 
 k-points in units of 2pi/SCALE and weight: KPOINTS created by Atomic Simulation Env
   0.00000000  0.00000000  0.00000000       0.012
   0.02160820 -0.01247550  0.00000000       0.074
   0.04321640 -0.02495100  0.00000000       0.074
   0.06482460 -0.03742650  0.00000000       0.074
   0.08643281 -0.04990200  0.00000000       0.074
   0.04321640 -0.00000000  0.00000000       0.074
   0.06482460 -0.01247550  0.00000000       0.148
   0.08643281 -0.02495100  0.00000000       0.148
  -0.08643281  0.07485301  0.00000000       0.074
   0.08643281  0.00000000  0.00000000       0.074
  -0.08643281  0.09980401  0.00000000       0.148
  -0.06482460  0.11227951  0.00000000       0.025
 
 k-points in reciprocal lattice and weights: KPOINTS created by Atomic Simulation Env
   0.00000000  0.00000000  0.00000000       0.012
   0.11111111 -0.00000000  0.00000000       0.074
   0.22222222 -0.00000000  0.00000000       0.074
   0.33333333 -0.00000000  0.00000000       0.074
   0.44444444 -0.00000000  0.00000000       0.074
   0.22222222  0.11111111  0.00000000       0.074
   0.33333333  0.11111111  0.00000000       0.148
   0.44444444  0.11111111  0.00000000       0.148
  -0.44444444  0.11111111  0.00000000       0.074
   0.44444444  0.22222222  0.00000000       0.074
  -0.44444444  0.22222222  0.00000000       0.148
  -0.33333333  0.33333333  0.00000000       0.025
 
 position of ions in fractional coordinates (direct lattice) 
   0.16666667  0.16666667  0.41324891
   0.66666667  0.16666667  0.41324891
   0.16666667  0.66666667  0.41324891
   0.66666667  0.66666667  0.41324891
   0.83333333  0.33333333  0.50000000
   0.33333333  0.33333333  0.50000000
   0.83333333  0.83333333  0.50000000
   0.33333333  0.83333333  0.50000000
   0.00000000  0.00000000  0.58675109
   0.50000000  0.00000000  0.58675109
   0.00000000  0.50000000  0.58675109
   0.50000000  0.50000000  0.58675109
 
 position of ions in cartesian coordinates  (Angst):
   1.28552013  0.74219539 10.00000000
   3.85656038  0.74219539 10.00000000
   2.57104026  2.96878157 10.00000000
   5.14208051  2.96878157 10.00000000
   5.14208051  1.48439078 12.09924558
   2.57104026  1.48439078 12.09924558
   6.42760064  3.71097696 12.09924558
   3.85656038  3.71097696 12.09924558
   0.00000000  0.00000000 14.19849116
   2.57104026  0.00000000 14.19849116
   1.28552013  2.22658618 14.19849116
   3.85656038  2.22658618 14.19849116
 


--------------------------------------------------------------------------------------------------------


 k-point  1 :   0.0000 0.0000 0.0000  plane waves:   10129
 k-point  2 :   0.1111-0.0000 0.0000  plane waves:   10127
 k-point  3 :   0.2222-0.0000 0.0000  plane waves:   10089
 k-point  4 :   0.3333-0.0000 0.0000  plane waves:   10064
 k-point  5 :   0.4444-0.0000 0.0000  plane waves:   10042
 k-point  6 :   0.2222 0.1111 0.0000  plane waves:   10097
 k-point  7 :   0.3333 0.1111 0.0000  plane waves:   10059
 k-point  8 :   0.4444 0.1111 0.0000  plane waves:   10045
 k-point  9 :  -0.4444 0.1111 0.0000  plane waves:   10036
 k-point 10 :   0.4444 0.2222 0.0000  plane waves:   10078
 k-point 11 :  -0.4444 0.2222 0.0000  plane waves:   10068
 k-point 12 :  -0.3333 0.3333 0.0000  plane waves:   10044

 maximum and minimum number of plane-waves per node :     10129    10036

 maximum number of plane-waves:     10129
 maximum index in each direction: 
   IXMAX=    8   IYMAX=    8   IZMAX=   39
   IXMIN=   -8   IYMIN=   -8   IZMIN=  -39

 WARNING: aliasing errors must be expected set NGX to  34 to avoid them
 WARNING: aliasing errors must be expected set NGY to  34 to avoid them
 WARNING: aliasing errors must be expected set NGZ to 158 to avoid them
 aliasing errors are usually negligible using standard VASP settings
 and one can safely disregard these warnings

 serial   3D FFT for wavefunctions
 parallel 3D FFT for charge:
    minimum data exchange during FFTs selected (reduces bandwidth)


 total amount of memory used by VASP on root node    65043. kBytes
========================================================================

   base      :      30000. kBytes
   nonl-proj :      19491. kBytes
   fftplans  :       1683. kBytes
   grid      :       5721. kBytes
   one-center:        186. kBytes
   wavefun   :       7962. kBytes
 
     INWAV:  cpu time    0.0000: real time    0.0061
 Broyden mixing: mesh for mixing (old mesh)
   NGX = 17   NGY = 17   NGZ = 79
  (NGX  = 56   NGY  = 56   NGZ  =240)
  gives a total of  22831 points

 initial charge density was supplied:
 charge density of overlapping atoms calculated
 number of electron     132.0000000 magnetization 
 keeping initial charge density in first step


--------------------------------------------------------------------------------------------------------


 Maximum index for augmentation-charges          471 (set IRDMAX)


--------------------------------------------------------------------------------------------------------


 First call to EWALD:  gamma=   0.216
 Maximum number of real-space cells 5x 5x 1
 Maximum number of reciprocal cells 2x 2x 7

 FEWALD executed in parallel
    FEWALD:  cpu time    0.0017: real time    0.0017


----------------------------------------- Iteration    1(   1)  ---------------------------------------


    POTLOK:  cpu time    0.0370: real time    0.0379
    SETDIJ:  cpu time    0.0032: real time    0.0032
     EDDAV:  cpu time    2.8994: real time    2.9065
       DOS:  cpu time    0.0008: real time    0.0008
    --------------------------------------------
      LOOP:  cpu time    2.9433: real time    2.9523

 eigenvalue-minimisations  :  2304
 total energy-change (2. order) : 0.9879938E+03  (-0.4730047E+04)
 number of electron     132.0000000 magnetization 
 augmentation part      132.0000000 magnetization 

 Free energy of the ion-electron system (eV)
  ---------------------------------------------------
  alpha Z        PSCENC =       190.05445386
  Ewald energy   TEWEN  =     65780.02233180
  -Hartree energ DENC   =    -81541.30646892
  -exchange      EXHF   =         0.00000000
  -V(xc)+E(xc)   XCENC  =       545.02175052
  PAW double counting   =     14738.47991854   -16008.58160551
  entropy T*S    EENTRO =        -0.00025447
  eigenvalues    EBANDS =       592.81200498
  atomic energy  EATOM  =     16691.49168240
  Solvation  Ediel_sol  =         0.00000000
  ---------------------------------------------------
  free energy    TOTEN  =       987.99381319 eV

  energy without entropy =      987.99406766  energy(sigma->0) =      987.99389802


--------------------------------------------------------------------------------------------------------




----------------------------------------- Iteration    1(   2)  ---------------------------------------


     EDDAV:  cpu time    2.9761: real time    2.9784
       DOS:  cpu time    0.0007: real time    0.0007
    --------------------------------------------
      LOOP:  cpu time    2.9782: real time    2.9816

 eigenvalue-minimisations  :  2304
 total energy-change (2. order) :-0.9787093E+03  (-0.9309466E+03)
 number of electron     132.0000000 magnetization 
 augmentation part      132.0000000 magnetization 

 Free energy of the ion-electron system (eV)
  ---------------------------------------------------
  alpha Z        PSCENC =       190.05445386
  Ewald energy   TEWEN  =     65780.02233180
  -Hartree energ DENC   =    -81541.30646892
  -exchange      EXHF   =         0.00000000
  -V(xc)+E(xc)   XCENC  =       545.02175052
  PAW double counting   =     14738.47991854   -16008.58160551
  entropy T*S    EENTRO =        -0.00661656
  eigenvalues    EBANDS =      -385.89089385
  atomic energy  EATOM  =     16691.49168240
  Solvation  Ediel_sol  =         0.00000000
  ---------------------------------------------------
  free energy    TOTEN  =         9.28455226 eV

  energy without entropy =        9.29116883  energy(sigma->0) =        9.28675778


--------------------------------------------------------------------------------------------------------




----------------------------------------- Iteration    1(   3)  ---------------------------------------


     EDDAV:  cpu time    3.6220: real time    3.6781
       DOS:  cpu time    0.0006: real time    0.0006
    --------------------------------------------
      LOOP:  cpu time    3.6235: real time    3.6810

 eigenvalue-minimisations  :  2880
 total energy-change (2. order) :-0.5812810E+02  (-0.5674202E+02)
 number of electron     132.0000000 magnetization 
 augmentation part      132.0000000 magnetization 

 Free energy of the ion-electron system (eV)
  ---------------------------------------------------
  alpha Z        PSCENC =       190.05445386
  Ewald energy   TEWEN  =     65780.02233180
  -Hartree energ DENC   =    -81541.30646892
  -exchange      EXHF   =         0.00000000
  -V(xc)+E(xc)   XCENC  =       545.02175052
  PAW double counting   =     14738.47991854   -16008.58160551
  entropy T*S    EENTRO =         0.00206809
  eigenvalues    EBANDS =      -444.02767366
  atomic energy  EATOM  =     16691.49168240
  Solvation  Ediel_sol  =         0.00000000
  ---------------------------------------------------
  free energy    TOTEN  =       -48.84354289 eV

  energy without entropy =      -48.84561098  energy(sigma->0) =      -48.84423225


--------------------------------------------------------------------------------------------------------




----------------------------------------- Iteration    1(   4)  ---------------------------------------


     EDDAV:  cpu time    3.4095: real time    3.4104
       DOS:  cpu time    0.0006: real time    0.0006
    --------------------------------------------
      LOOP:  cpu time    3.4111: real time    3.4134

 eigenvalue-minimisations  :  2712
 total energy-change (2. order) :-0.1458416E+01  (-0.1457565E+01)
 number of electron     132.0000000 magnetization 
 augmentation part      132.0000000 magnetization 

 Free energy of the ion-electron system (eV)
  ---------------------------------------------------
  alpha Z        PSCENC =       190.05445386
  Ewald energy   TEWEN  =     65780.02233180
  -Hartree energ DENC   =    -81541.30646892
  -exchange      EXHF   =         0.00000000
  -V(xc)+E(xc)   XCENC  =       545.02175052
  PAW double counting   =     14738.47991854   -16008.58160551
  entropy T*S    EENTRO =         0.00196668
  eigenvalues    EBANDS =      -445.48598816
  atomic energy  EATOM  =     16691.49168240
  Solvation  Ediel_sol  =         0.00000000
  ---------------------------------------------------
  free energy    TOTEN  =       -50.30195880 eV

  energy without entropy =      -50.30392548  energy(sigma->0) =      -50.30261436


--------------------------------------------------------------------------------------------------------




----------------------------------------- Iteration    1(   5)  ---------------------------------------


     EDDAV:  cpu time    3.6091: real time    3.6101
       DOS:  cpu time    0.0007: real time    0.0007
    CHARGE:  cpu time    0.1188: real time    0.1189
    MIXING:  cpu time    0.0021: real time    0.0071
    --------------------------------------------
      LOOP:  cpu time    3.7319: real time    3.7505

 eigenvalue-minimisations  :  3096
 total energy-change (2. order) :-0.3712664E-01  (-0.3712470E-01)
 number of electron     132.0000366 magnetization 
 augmentation part       78.1520798 magnetization 

 Broyden mixing:
  rms(total) = 0.25438E+01    rms(broyden)= 0.25437E+01
  rms(prec ) = 0.26720E+01
  weight for this iteration     100.00

 Free energy of the ion-electron system (eV)
  ---------------------------------------------------
  alpha Z        PSCENC =       190.05445386
  Ewald energy   TEWEN  =     65780.02233180
  -Hartree energ DENC   =    -81541.30646892
  -exchange      EXHF   =         0.00000000
  -V(xc)+E(xc)   XCENC  =       545.02175052
  PAW double counting   =     14738.47991854   -16008.58160551
  entropy T*S    EENTRO =         0.00196912
  eigenvalues    EBANDS =      -445.52311724
  atomic energy  EATOM  =     16691.49168240
  Solvation  Ediel_sol  =         0.00000000
  ---------------------------------------------------
  free energy    TOTEN  =       -50.33908544 eV

  energy without entropy =      -50.34105456  energy(sigma->0) =      -50.33974181


--------------------------------------------------------------------------------------------------------




----------------------------------------- Iteration    1(   6)  ---------------------------------------


    POTLOK:  cpu time    0.0254: real time    0.0254
    SETDIJ:  cpu time    0.0034: real time    0.0035
     EDDAV:  cpu time    3.4470: real time    3.4548
       DOS:  cpu time    0.0007: real time    0.0007
    CHARGE:  cpu time    0.1013: real time    0.1015
    MIXING:  cpu time    0.0013: real time    0.0013
    --------------------------------------------
      LOOP:  cpu time    3.5804: real time    3.5899

 eigenvalue-minimisations  :  2784
 total energy-change (2. order) : 0.3784535E+01  (-0.1056099E+02)
 number of electron     132.0000417 magnetization 
 augmentation part       88.4360585 magnetization 

 Broyden mixing:
  rms(total) = 0.15441E+01    rms(broyden)= 0.15440E+01
  rms(prec ) = 0.16172E+01
  weight for this iteration     100.00

 eigenvalues of (default mixing * dielectric matrix)
  average eigenvalue GAMMA=   0.6236
  0.6236

 Free energy of the ion-electron system (eV)
  ---------------------------------------------------
  alpha Z        PSCENC =       190.05445386
  Ewald energy   TEWEN  =     65780.02233180
  -Hartree energ DENC   =    -81199.77098937
  -exchange      EXHF   =         0.00000000
  -V(xc)+E(xc)   XCENC  =       528.80248456
  PAW double counting   =     14833.30605958   -16036.95645206
  entropy T*S    EENTRO =        -0.00468349
  eigenvalues    EBANDS =      -833.49943811
  atomic energy  EATOM  =     16691.49168240
  Solvation  Ediel_sol  =         0.00000000
  ---------------------------------------------------
  free energy    TOTEN  =       -46.55455084 eV

  energy without entropy =      -46.54986735  energy(sigma->0) =      -46.55298968


--------------------------------------------------------------------------------------------------------




----------------------------------------- Iteration    1(   7)  ---------------------------------------


    POTLOK:  cpu time    0.0254: real time    0.0254
    SETDIJ:  cpu time    0.0033: real time    0.0033
     EDDAV:  cpu time    3.4499: real time    3.4570
       DOS:  cpu time    0.0007: real time    0.0007
    CHARGE:  cpu time    0.1040: real time    0.1042
    MIXING:  cpu time    0.0012: real time    0.0012
    --------------------------------------------
      LOOP:  cpu time    3.5856: real time    3.5950

 eigenvalue-minimisations  :  2808
 total energy-change (2. order) : 0.5520331E+01  (-0.2212065E+01)
 number of electron     132.0000401 magnetization 
 augmentation part       84.6499769 magnetization 

 Broyden mixing:
  rms(total) = 0.14604E+00    rms(broyden)= 0.14597E+00
  rms(prec ) = 0.16737E+00
  weight for this iteration     100.00

 eigenvalues of (default mixing * dielectric matrix)
  average eigenvalue GAMMA=   0.8648
  1.0951  0.6344

 Free energy of the ion-electron system (eV)
  ---------------------------------------------------
  alpha Z        PSCENC =       190.05445386
  Ewald energy   TEWEN  =     65780.02233180
  -Hartree energ DENC   =    -81346.65320653
  -exchange      EXHF   =         0.00000000
  -V(xc)+E(xc)   XCENC  =       534.52595128
  PAW double counting   =     15120.17711620   -16379.91507564
  entropy T*S    EENTRO =        -0.00991190
  eigenvalues    EBANDS =      -630.72756122
  atomic energy  EATOM  =     16691.49168240
  Solvation  Ediel_sol  =         0.00000000
  ---------------------------------------------------
  free energy    TOTEN  =       -41.03421976 eV

  energy without entropy =      -41.02430786  energy(sigma->0) =      -41.03091579


--------------------------------------------------------------------------------------------------------




----------------------------------------- Iteration    1(   8)  ---------------------------------------


    POTLOK:  cpu time    0.0260: real time    0.0260
    SETDIJ:  cpu time    0.0040: real time    0.0040
     EDDAV:  cpu time    3.7939: real time    3.8025
       DOS:  cpu time    0.0007: real time    0.0007
    CHARGE:  cpu time    0.1058: real time    0.1059
    MIXING:  cpu time    0.0011: real time    0.0012
    --------------------------------------------
      LOOP:  cpu time    3.9329: real time    3.9437

 eigenvalue-minimisations  :  3168
 total energy-change (2. order) :-0.8075539E-02  (-0.1536158E+00)
 number of electron     132.0000393 magnetization 
 augmentation part       84.0257102 magnetization 

 Broyden mixing:
  rms(total) = 0.26108E+00    rms(broyden)= 0.26104E+00
  rms(prec ) = 0.28206E+00
  weight for this iteration     100.00

 eigenvalues of (default mixing * dielectric matrix)
  average eigenvalue GAMMA=   0.9424
  1.8367  0.5957  0.3947

 Free energy of the ion-electron system (eV)
  ---------------------------------------------------
  alpha Z        PSCENC =       190.05445386
  Ewald energy   TEWEN  =     65780.02233180
  -Hartree energ DENC   =    -81370.74468436
  -exchange      EXHF   =         0.00000000
  -V(xc)+E(xc)   XCENC  =       534.55464508
  PAW double counting   =     15355.32198631   -16633.47480348
  entropy T*S    EENTRO =        -0.02642862
  eigenvalues    EBANDS =      -588.24147829
  atomic energy  EATOM  =     16691.49168240
  Solvation  Ediel_sol  =         0.00000000
  ---------------------------------------------------
  free energy    TOTEN  =       -41.04229530 eV

  energy without entropy =      -41.01586668  energy(sigma->0) =      -41.03348576


--------------------------------------------------------------------------------------------------------




----------------------------------------- Iteration    1(   9)  ---------------------------------------


    POTLOK:  cpu time    0.0263: real time    0.0263
    SETDIJ:  cpu time    0.0033: real time    0.0033
     EDDAV:  cpu time    3.3467: real time    3.3477
       DOS:  cpu time    0.0007: real time    0.0007
    CHARGE:  cpu time    0.1010: real time    0.1011
    MIXING:  cpu time    0.0012: real time    0.0012
    --------------------------------------------
      LOOP:  cpu time    3.4805: real time    3.4835

 eigenvalue-minimisations  :  2880
 total energy-change (2. order) : 0.5961434E-01  (-0.5372348E-01)
 number of electron     132.0000397 magnetization 
 augmentation part       83.9716440 magnetization 

 Broyden mixing:
  rms(total) = 0.17492E+00    rms(broyden)= 0.17490E+00
  rms(prec ) = 0.18416E+00
  weight for this iteration     100.00

 eigenvalues of (default mixing * dielectric matrix)
  average eigenvalue GAMMA=   1.0127
  2.2096  0.7562  0.7562  0.3289

 Free energy of the ion-electron system (eV)
  ---------------------------------------------------
  alpha Z        PSCENC =       190.05445386
  Ewald energy   TEWEN  =     65780.02233180
  -Hartree energ DENC   =    -81369.16122371
  -exchange      EXHF   =         0.00000000
  -V(xc)+E(xc)   XCENC  =       534.20358680
  PAW double counting   =     15480.33744903   -16767.05854588
  entropy T*S    EENTRO =        -0.02347917
  eigenvalues    EBANDS =      -580.84893608
  atomic energy  EATOM  =     16691.49168240
  Solvation  Ediel_sol  =         0.00000000
  ---------------------------------------------------
  free energy    TOTEN  =       -40.98268096 eV

  energy without entropy =      -40.95920178  energy(sigma->0) =      -40.97485456


--------------------------------------------------------------------------------------------------------




----------------------------------------- Iteration    1(  10)  ---------------------------------------


    POTLOK:  cpu time    0.0241: real time    0.0241
    SETDIJ:  cpu time    0.0031: real time    0.0031
     EDDAV:  cpu time    6.9083: real time    6.9089
       DOS:  cpu time    0.0008: real time    0.0008
    CHARGE:  cpu time    0.1032: real time    0.1032
    MIXING:  cpu time    0.0013: real time    0.0013
    --------------------------------------------
      LOOP:  cpu time    7.0420: real time    7.0443

 eigenvalue-minimisations  :  2712
 total energy-change (2. order) : 0.4408732E-01  (-0.1858768E-01)
 number of electron     132.0000399 magnetization 
 augmentation part       84.3842668 magnetization 

 Broyden mixing:
  rms(total) = 0.27695E-01    rms(broyden)= 0.27670E-01
  rms(prec ) = 0.32911E-01
  weight for this iteration     100.00

 eigenvalues of (default mixing * dielectric matrix)
  average eigenvalue GAMMA=   1.1199
  2.0641  1.5846  0.9019  0.7074  0.3418

 Free energy of the ion-electron system (eV)
  ---------------------------------------------------
  alpha Z        PSCENC =       190.05445386
  Ewald energy   TEWEN  =     65780.02233180
  -Hartree energ DENC   =    -81354.96039334
  -exchange      EXHF   =         0.00000000
  -V(xc)+E(xc)   XCENC  =       533.34676332
  PAW double counting   =     15538.16978365   -16826.24017742
  entropy T*S    EENTRO =        -0.01904852
  eigenvalues    EBANDS =      -592.80398938
  atomic energy  EATOM  =     16691.49168240
  Solvation  Ediel_sol  =         0.00000000
  ---------------------------------------------------
  free energy    TOTEN  =       -40.93859364 eV

  energy without entropy =      -40.91954512  energy(sigma->0) =      -40.93224413


--------------------------------------------------------------------------------------------------------




----------------------------------------- Iteration    1(  11)  ---------------------------------------


    POTLOK:  cpu time    0.0241: real time    0.0241
    SETDIJ:  cpu time    0.0032: real time    0.0032
     EDDAV:  cpu time    3.6541: real time    3.6544
       DOS:  cpu time    0.0007: real time    0.0007
    CHARGE:  cpu time    0.1079: real time    0.1079
    MIXING:  cpu time    0.0016: real time    0.0016
    --------------------------------------------
      LOOP:  cpu time    3.7928: real time    3.7950

 eigenvalue-minimisations  :  3288
 total energy-change (2. order) : 0.3479737E-02  (-0.1332864E-02)
 number of electron     132.0000398 magnetization 
 augmentation part       84.3344991 magnetization 

 Broyden mixing:
  rms(total) = 0.12178E-01    rms(broyden)= 0.12176E-01
  rms(prec ) = 0.15179E-01
  weight for this iteration     100.00

 eigenvalues of (default mixing * dielectric matrix)
  average eigenvalue GAMMA=   1.2462
  2.4138  2.1669  0.9778  0.8469  0.7281  0.3439

 Free energy of the ion-electron system (eV)
  ---------------------------------------------------
  alpha Z        PSCENC =       190.05445386
  Ewald energy   TEWEN  =     65780.02233180
  -Hartree energ DENC   =    -81361.43418830
  -exchange      EXHF   =         0.00000000
  -V(xc)+E(xc)   XCENC  =       533.36279453
  PAW double counting   =     15556.10381611   -16846.13837201
  entropy T*S    EENTRO =        -0.02088253
  eigenvalues    EBANDS =      -584.37674976
  atomic energy  EATOM  =     16691.49168240
  Solvation  Ediel_sol  =         0.00000000
  ---------------------------------------------------
  free energy    TOTEN  =       -40.93511390 eV

  energy without entropy =      -40.91423137  energy(sigma->0) =      -40.92815305


--------------------------------------------------------------------------------------------------------




----------------------------------------- Iteration    1(  12)  ---------------------------------------


    POTLOK:  cpu time    0.0251: real time    0.0251
    SETDIJ:  cpu time    0.0031: real time    0.0031
     EDDAV:  cpu time    3.5984: real time    3.5987
       DOS:  cpu time    0.0007: real time    0.0007
    CHARGE:  cpu time    0.1013: real time    0.1013
    MIXING:  cpu time    0.0014: real time    0.0014
    --------------------------------------------
      LOOP:  cpu time    3.7311: real time    3.7336

 eigenvalue-minimisations  :  3312
 total energy-change (2. order) : 0.1484550E-02  (-0.3170621E-03)
 number of electron     132.0000398 magnetization 
 augmentation part       84.3568953 magnetization 

 Broyden mixing:
  rms(total) = 0.59624E-02    rms(broyden)= 0.59614E-02
  rms(prec ) = 0.86037E-02
  weight for this iteration     100.00

 eigenvalues of (default mixing * dielectric matrix)
  average eigenvalue GAMMA=   1.3602
  2.3727  2.3727  1.8050  1.0604  0.8405  0.7264  0.3438

 Free energy of the ion-electron system (eV)
  ---------------------------------------------------
  alpha Z        PSCENC =       190.05445386
  Ewald energy   TEWEN  =     65780.02233180
  -Hartree energ DENC   =    -81367.17663184
  -exchange      EXHF   =         0.00000000
  -V(xc)+E(xc)   XCENC  =       533.31782464
  PAW double counting   =     15555.55824513   -16845.79931993
  entropy T*S    EENTRO =        -0.02036529
  eigenvalues    EBANDS =      -578.38185011
  atomic energy  EATOM  =     16691.49168240
  Solvation  Ediel_sol  =         0.00000000
  ---------------------------------------------------
  free energy    TOTEN  =       -40.93362935 eV

  energy without entropy =      -40.91326406  energy(sigma->0) =      -40.92684092


--------------------------------------------------------------------------------------------------------




----------------------------------------- Iteration    1(  13)  ---------------------------------------


    POTLOK:  cpu time    0.0243: real time    0.0243
    SETDIJ:  cpu time    0.0031: real time    0.0031
     EDDAV:  cpu time    4.0720: real time    4.0724
       DOS:  cpu time    0.0007: real time    0.0007
    CHARGE:  cpu time    0.0988: real time    0.0988
    MIXING:  cpu time    0.0013: real time    0.0013
    --------------------------------------------
      LOOP:  cpu time    4.2014: real time    4.2038

 eigenvalue-minimisations  :  3792
 total energy-change (2. order) : 0.3531044E-05  (-0.1364650E-03)
 number of electron     132.0000398 magnetization 
 augmentation part       84.3664103 magnetization 

 Broyden mixing:
  rms(total) = 0.11931E-01    rms(broyden)= 0.11930E-01
  rms(prec ) = 0.13005E-01
  weight for this iteration     100.00

 eigenvalues of (default mixing * dielectric matrix)
  average eigenvalue GAMMA=   1.4459
  2.9956  2.9956  1.5576  0.3438  1.2494  0.7301  0.7920  0.9028

 Free energy of the ion-electron system (eV)
  ---------------------------------------------------
  alpha Z        PSCENC =       190.05445386
  Ewald energy   TEWEN  =     65780.02233180
  -Hartree energ DENC   =    -81373.69736213
  -exchange      EXHF   =         0.00000000
  -V(xc)+E(xc)   XCENC  =       533.32637977
  PAW double counting   =     15549.11567229   -16838.91363082
  entropy T*S    EENTRO =        -0.01965772
  eigenvalues    EBANDS =      -572.31349526
  atomic energy  EATOM  =     16691.49168240
  Solvation  Ediel_sol  =         0.00000000
  ---------------------------------------------------
  free energy    TOTEN  =       -40.93362582 eV

  energy without entropy =      -40.91396809  energy(sigma->0) =      -40.92707324


--------------------------------------------------------------------------------------------------------




----------------------------------------- Iteration    1(  14)  ---------------------------------------


    POTLOK:  cpu time    0.0241: real time    0.0241
    SETDIJ:  cpu time    0.0031: real time    0.0031
     EDDAV:  cpu time    3.1280: real time    3.1283
       DOS:  cpu time    0.0007: real time    0.0007
    CHARGE:  cpu time    0.0985: real time    0.0985
    MIXING:  cpu time    0.0014: real time    0.0014
    --------------------------------------------
      LOOP:  cpu time    3.2571: real time    3.2590

 eigenvalue-minimisations  :  2808
 total energy-change (2. order) :-0.1570023E-03  (-0.1397554E-03)
 number of electron     132.0000398 magnetization 
 augmentation part       84.3365447 magnetization 

 Broyden mixing:
  rms(total) = 0.43994E-02    rms(broyden)= 0.43980E-02
  rms(prec ) = 0.49112E-02
  weight for this iteration     100.00

 eigenvalues of (default mixing * dielectric matrix)
  average eigenvalue GAMMA=   1.6073
  3.8210  2.4666  2.4666  1.6106  0.3438  1.3055  0.7213  0.8651  0.8651

 Free energy of the ion-electron system (eV)
  ---------------------------------------------------
  alpha Z        PSCENC =       190.05445386
  Ewald energy   TEWEN  =     65780.02233180
  -Hartree energ DENC   =    -81378.25994648
  -exchange      EXHF   =         0.00000000
  -V(xc)+E(xc)   XCENC  =       533.39635612
  PAW double counting   =     15543.11018201   -16832.83129021
  entropy T*S    EENTRO =        -0.02022829
  eigenvalues    EBANDS =      -567.89732403
  atomic energy  EATOM  =     16691.49168240
  Solvation  Ediel_sol  =         0.00000000
  ---------------------------------------------------
  free energy    TOTEN  =       -40.93378282 eV

  energy without entropy =      -40.91355453  energy(sigma->0) =      -40.92704006


--------------------------------------------------------------------------------------------------------




----------------------------------------- Iteration    1(  15)  ---------------------------------------


    POTLOK:  cpu time    0.0246: real time    0.0246
    SETDIJ:  cpu time    0.0031: real time    0.0031
     EDDAV:  cpu time    2.5116: real time    2.5118
       DOS:  cpu time    0.0007: real time    0.0007
    CHARGE:  cpu time    0.0990: real time    0.0991
    MIXING:  cpu time    0.0016: real time    0.0016
    --------------------------------------------
      LOOP:  cpu time    2.6418: real time    2.6437

 eigenvalue-minimisations  :  2112
 total energy-change (2. order) :-0.6629678E-03  (-0.2141015E-04)
 number of electron     132.0000398 magnetization 
 augmentation part       84.3398670 magnetization 

 Broyden mixing:
  rms(total) = 0.23218E-02    rms(broyden)= 0.23217E-02
  rms(prec ) = 0.25811E-02
  weight for this iteration     100.00

 eigenvalues of (default mixing * dielectric matrix)
  average eigenvalue GAMMA=   1.7447
  5.2858  3.0309  2.5188  1.4206  1.4206  0.3438  0.7223  0.9754  0.8646  0.8646

 Free energy of the ion-electron system (eV)
  ---------------------------------------------------
  alpha Z        PSCENC =       190.05445386
  Ewald energy   TEWEN  =     65780.02233180
  -Hartree energ DENC   =    -81379.27571913
  -exchange      EXHF   =         0.00000000
  -V(xc)+E(xc)   XCENC  =       533.37546872
  PAW double counting   =     15547.20444433   -16837.18088532
  entropy T*S    EENTRO =        -0.02015373
  eigenvalues    EBANDS =      -566.60606871
  atomic energy  EATOM  =     16691.49168240
  Solvation  Ediel_sol  =         0.00000000
  ---------------------------------------------------
  free energy    TOTEN  =       -40.93444579 eV

  energy without entropy =      -40.91429206  energy(sigma->0) =      -40.92772788


--------------------------------------------------------------------------------------------------------




----------------------------------------- Iteration    1(  16)  ---------------------------------------


    POTLOK:  cpu time    0.0248: real time    0.0248
    SETDIJ:  cpu time    0.0029: real time    0.0029
     EDDAV:  cpu time    2.4897: real time    2.4901
       DOS:  cpu time    0.0007: real time    0.0007
    CHARGE:  cpu time    0.0985: real time    0.0985
    MIXING:  cpu time    0.0017: real time    0.0017
    --------------------------------------------
      LOOP:  cpu time    2.6195: real time    2.6218

 eigenvalue-minimisations  :  2040
 total energy-change (2. order) :-0.3842128E-03  (-0.1086364E-04)
 number of electron     132.0000398 magnetization 
 augmentation part       84.3481442 magnetization 

 Broyden mixing:
  rms(total) = 0.17058E-02    rms(broyden)= 0.17055E-02
  rms(prec ) = 0.18589E-02
  weight for this iteration     100.00

 eigenvalues of (default mixing * dielectric matrix)
  average eigenvalue GAMMA=   1.9264
  6.1123  2.8828  2.8828  2.7088  0.3438  1.4070  1.4070  0.7228  0.9109  0.9109
  0.9012

 Free energy of the ion-electron system (eV)
  ---------------------------------------------------
  alpha Z        PSCENC =       190.05445386
  Ewald energy   TEWEN  =     65780.02233180
  -Hartree energ DENC   =    -81379.76839219
  -exchange      EXHF   =         0.00000000
  -V(xc)+E(xc)   XCENC  =       533.36371618
  PAW double counting   =     15546.96600969   -16836.81997574
  entropy T*S    EENTRO =        -0.01997433
  eigenvalues    EBANDS =      -566.22468167
  atomic energy  EATOM  =     16691.49168240
  Solvation  Ediel_sol  =         0.00000000
  ---------------------------------------------------
  free energy    TOTEN  =       -40.93483000 eV

  energy without entropy =      -40.91485567  energy(sigma->0) =      -40.92817189


--------------------------------------------------------------------------------------------------------




----------------------------------------- Iteration    1(  17)  ---------------------------------------


    POTLOK:  cpu time    0.0248: real time    0.0248
    SETDIJ:  cpu time    0.0031: real time    0.0031
     EDDAV:  cpu time    2.3856: real time    2.3858
       DOS:  cpu time    0.0007: real time    0.0007
    CHARGE:  cpu time    0.0985: real time    0.0985
    MIXING:  cpu time    0.0016: real time    0.0016
    --------------------------------------------
      LOOP:  cpu time    2.5156: real time    2.5173

 eigenvalue-minimisations  :  1944
 total energy-change (2. order) :-0.2765671E-03  (-0.3708849E-05)
 number of electron     132.0000398 magnetization 
 augmentation part       84.3471944 magnetization 

 Broyden mixing:
  rms(total) = 0.85924E-03    rms(broyden)= 0.85921E-03
  rms(prec ) = 0.91063E-03
  weight for this iteration     100.00

 eigenvalues of (default mixing * dielectric matrix)
  average eigenvalue GAMMA=   1.9196
  6.2200  4.2867  2.4379  2.4379  0.3438  1.3679  1.3679  0.7226  0.8787  0.8787
  1.0468  1.0468

 Free energy of the ion-electron system (eV)
  ---------------------------------------------------
  alpha Z        PSCENC =       190.05445386
  Ewald energy   TEWEN  =     65780.02233180
  -Hartree energ DENC   =    -81380.54514833
  -exchange      EXHF   =         0.00000000
  -V(xc)+E(xc)   XCENC  =       533.36967815
  PAW double counting   =     15546.17310599   -16835.97511913
  entropy T*S    EENTRO =        -0.02001167
  eigenvalues    EBANDS =      -565.50607964
  atomic energy  EATOM  =     16691.49168240
  Solvation  Ediel_sol  =         0.00000000
  ---------------------------------------------------
  free energy    TOTEN  =       -40.93510657 eV

  energy without entropy =      -40.91509490  energy(sigma->0) =      -40.92843601


--------------------------------------------------------------------------------------------------------




----------------------------------------- Iteration    1(  18)  ---------------------------------------


    POTLOK:  cpu time    0.0247: real time    0.0247
    SETDIJ:  cpu time    0.0028: real time    0.0028
     EDDAV:  cpu time    2.4620: real time    2.4623
       DOS:  cpu time    0.0007: real time    0.0007
    --------------------------------------------
      LOOP:  cpu time    2.4914: real time    2.4937

 eigenvalue-minimisations  :  1968
 total energy-change (2. order) :-0.7079470E-04  (-0.1308333E-05)
 number of electron     132.0000398 magnetization 
 augmentation part       84.3471944 magnetization 

 Free energy of the ion-electron system (eV)
  ---------------------------------------------------
  alpha Z        PSCENC =       190.05445386
  Ewald energy   TEWEN  =     65780.02233180
  -Hartree energ DENC   =    -81380.54072680
  -exchange      EXHF   =         0.00000000
  -V(xc)+E(xc)   XCENC  =       533.37226624
  PAW double counting   =     15546.66320377   -16836.51245501
  entropy T*S    EENTRO =        -0.02005163
  eigenvalues    EBANDS =      -565.46588198
  atomic energy  EATOM  =     16691.49168240
  Solvation  Ediel_sol  =         0.00000000
  ---------------------------------------------------
  free energy    TOTEN  =       -40.93517736 eV

  energy without entropy =      -40.91512573  energy(sigma->0) =      -40.92849348


--------------------------------------------------------------------------------------------------------




 average (electrostatic) potential at core
  the test charge radii are     0.9430
  (the norm of the test charge is              1.0000)
       1 -72.5323       2 -72.5323       3 -72.5323       4 -72.5323       5 -72.7427
       6 -72.7427       7 -72.7427       8 -72.7427       9 -72.5327      10 -72.5327
      11 -72.5327      12 -72.5327
 
 
 
 E-fermi :  -1.5100     XC(G=0):  -4.1052     alpha+bet : -3.4335


 k-point     1 :       0.0000    0.0000    0.0000
  band No.  band energies     occupation 
      1     -10.0121      2.00000
      2      -8.0964      2.00000
      3      -6.5941      2.00000
      4      -6.1244      2.00000
      5      -6.1244      2.00000
      6      -6.1244      2.00000
      7      -5.9388      2.00000
      8      -5.9388      2.00000
      9      -5.9388      2.00000
     10      -5.5593      2.00000
     11      -5.5593      2.00000
     12      -5.5593      2.00000
     13      -5.5396      2.00000
     14      -5.5396      2.00000
     15      -5.5396      2.00000
     16      -4.8781      2.00000
     17      -4.8781      2.00000
     18      -4.8781      2.00000
     19      -4.5283      2.00000
     20      -4.5283      2.00000
     21      -4.5283      2.00000
     22      -4.4700      2.00000
     23      -4.3947      2.00000
     24      -4.3947      2.00000
     25      -4.3871      2.00000
     26      -4.2406      2.00000
     27      -4.2406      2.00000
     28      -4.2095      2.00000
     29      -4.2095      2.00000
     30      -4.2095      2.00000
     31      -4.1349      2.00000
     32      -4.1349      2.00000
     33      -4.0058      2.00000
     34      -4.0058      2.00000
     35      -4.0058      2.00000
     36      -3.6003      2.00000
     37      -3.6003      2.00000
     38      -3.5857      2.00000
     39      -3.5857      2.00000
     40      -3.5857      2.00000
     41      -3.5690      2.00000
     42      -3.5690      2.00000
     43      -3.5690      2.00000
     44      -3.3308      2.00000
     45      -3.3308      2.00000
     46      -3.1712      2.00000
     47      -3.1712      2.00000
     48      -3.1712      2.00000
     49      -3.1307      2.00000
     50      -3.1307      2.00000
     51      -3.1307      2.00000
     52      -3.1131      2.00000
     53      -3.1131      2.00000
     54      -3.0641      2.00000
     55      -3.0641      2.00000
     56      -3.0641      2.00000
     57      -3.0331      2.00000
     58      -2.9004      2.00000
     59      -2.9004      2.00000
     60      -2.9004      2.00000
     61      -2.8871      2.00000
     62      -2.8871      2.00000
     63      -2.8871      2.00000
     64      -1.5890      1.97502
     65      -1.4614      0.27508
     66      -1.4614      0.27508
     67      -1.4614      0.27477
     68      -0.3834     -0.00000
     69      -0.3834     -0.00000
     70      -0.3834     -0.00000
     71       0.0383     -0.00000
     72       0.0383     -0.00000
     73       0.0383     -0.00000
     74       2.6135      0.00000
     75       2.8632      0.00000
     76       2.8632      0.00000
     77       2.8632      0.00000
     78       2.9839      0.00000
     79       3.3455      0.00000
     80       4.0275      0.00000
     81       4.0275      0.00000
     82       4.0275      0.00000
     83       4.2749      0.00000
     84       4.7012      0.00000
     85       4.8287      0.00000
     86       4.8287      0.00000
     87       4.8287      0.00000
     88       6.4700      0.00000
     89       6.4891      0.00000
     90       7.4287      0.00000
     91       7.4287      0.00000
     92       7.4287      0.00000
     93       7.7260      0.00000
     94       7.7261      0.00000
     95       7.7261      0.00000
     96       8.9293      0.00000

 k-point     2 :       0.1111   -0.0000    0.0000
  band No.  band energies     occupation 
      1      -9.9149      2.00000
      2      -8.0044      2.00000
      3      -6.5204      2.00000
      4      -6.2105      2.00000
      5      -6.1017      2.00000
      6      -6.1017      2.00000
      7      -5.9401      2.00000
      8      -5.9059      2.00000
      9      -5.9059      2.00000
     10      -5.5767      2.00000
     11      -5.5459      2.00000
     12      -5.5459      2.00000
     13      -5.4793      2.00000
     14      -5.4793      2.00000
     15      -5.4729      2.00000
     16      -4.8739      2.00000
     17      -4.8739      2.00000
     18      -4.8695      2.00000
     19      -4.5120      2.00000
     20      -4.5099      2.00000
     21      -4.5099      2.00000
     22      -4.4801      2.00000
     23      -4.4689      2.00000
     24      -4.3877      2.00000
     25      -4.3620      2.00000
     26      -4.2588      2.00000
     27      -4.2588      2.00000
     28      -4.2249      2.00000
     29      -4.2158      2.00000
     30      -4.1992      2.00000
     31      -4.1504      2.00000
     32      -4.1015      2.00000
     33      -4.0522      2.00000
     34      -4.0240      2.00000
     35      -4.0240      2.00000
     36      -3.6549      2.00000
     37      -3.6549      2.00000
     38      -3.6266      2.00000
     39      -3.6177      2.00000
     40      -3.6114      2.00000
     41      -3.5677      2.00000
     42      -3.5640      2.00000
     43      -3.5640      2.00000
     44      -3.4789      2.00000
     45      -3.3316      2.00000
     46      -3.2311      2.00000
     47      -3.2047      2.00000
     48      -3.2047      2.00000
     49      -3.1830      2.00000
     50      -3.1734      2.00000
     51      -3.1550      2.00000
     52      -3.1549      2.00000
     53      -3.1243      2.00000
     54      -3.1243      2.00000
     55      -3.1124      2.00000
     56      -3.0919      2.00000
     57      -3.0034      2.00000
     58      -3.0034      2.00000
     59      -2.9483      2.00000
     60      -2.9483      2.00000
     61      -2.9381      2.00000
     62      -2.9263      2.00000
     63      -2.8212      2.00000
     64      -2.1388      2.00000
     65      -1.4957      0.76045
     66      -1.4957      0.76010
     67      -1.3539     -0.04976
     68      -1.0602     -0.00000
     69      -0.4677     -0.00000
     70      -0.4677     -0.00000
     71       0.4493     -0.00000
     72       0.4494     -0.00000
     73       0.7124     -0.00000
     74       2.6980      0.00000
     75       3.0305      0.00000
     76       3.0305      0.00000
     77       3.0793      0.00000
     78       3.1123      0.00000
     79       3.4343      0.00000
     80       3.8975      0.00000
     81       3.8976      0.00000
     82       3.9615      0.00000
     83       4.3692      0.00000
     84       4.7853      0.00000
     85       5.1816      0.00000
     86       5.1816      0.00000
     87       5.3032      0.00000
     88       6.5568      0.00000
     89       6.5813      0.00000
     90       6.8798      0.00000
     91       7.0428      0.00000
     92       7.0428      0.00000
     93       8.2536      0.00000
     94       8.3545      0.00000
     95       8.3545      0.00000
     96       8.9833      0.00000

 k-point     3 :       0.2222   -0.0000    0.0000
  band No.  band energies     occupation 
      1      -9.6267      2.00000
      2      -7.7351      2.00000
      3      -6.5147      2.00000
      4      -6.3099      2.00000
      5      -6.0364      2.00000
      6      -6.0364      2.00000
      7      -5.9597      2.00000
      8      -5.8136      2.00000
      9      -5.8136      2.00000
     10      -5.5486      2.00000
     11      -5.4783      2.00000
     12      -5.4783      2.00000
     13      -5.3596      2.00000
     14      -5.3369      2.00000
     15      -5.3369      2.00000
     16      -4.8687      2.00000
     17      -4.8687      2.00000
     18      -4.8443      2.00000
     19      -4.6102      2.00000
     20      -4.4940      2.00000
     21      -4.4771      2.00000
     22      -4.4634      2.00000
     23      -4.4634      2.00000
     24      -4.4512      2.00000
     25      -4.3873      2.00000
     26      -4.3873      2.00000
     27      -4.2682      2.00000
     28      -4.2299      2.00000
     29      -4.1746      2.00000
     30      -4.1699      2.00000
     31      -4.1682      2.00000
     32      -4.1495      2.00000
     33      -4.0871      2.00000
     34      -4.0871      2.00000
     35      -4.0043      2.00000
     36      -3.7859      2.00000
     37      -3.7859      2.00000
     38      -3.7520      2.00000
     39      -3.7470      2.00000
     40      -3.6342      2.00000
     41      -3.6111      2.00000
     42      -3.6111      2.00000
     43      -3.5986      2.00000
     44      -3.5701      2.00000
     45      -3.4610      2.00000
     46      -3.4610      2.00000
     47      -3.3928      2.00000
     48      -3.3365      2.00000
     49      -3.3361      2.00000
     50      -3.2764      2.00000
     51      -3.2764      2.00000
     52      -3.2457      2.00000
     53      -3.2207      2.00000
     54      -3.2206      2.00000
     55      -3.1465      2.00000
     56      -3.1145      2.00000
     57      -3.1145      2.00000
     58      -3.1103      2.00000
     59      -3.0537      2.00000
     60      -3.0160      2.00000
     61      -3.0103      2.00000
     62      -3.0103      2.00000
     63      -2.9745      2.00000
     64      -2.4642      2.00000
     65      -2.0576      2.00000
     66      -1.5378      1.45115
     67      -1.5378      1.45095
     68      -0.7909     -0.00000
     69      -0.4712     -0.00000
     70      -0.4712     -0.00000
     71       0.5781     -0.00000
     72       1.1852     -0.00000
     73       1.1852     -0.00000
     74       2.9511      0.00000
     75       3.2840      0.00000
     76       3.2840      0.00000
     77       3.3653      0.00000
     78       3.7016      0.00000
     79       3.7601      0.00000
     80       4.1657      0.00000
     81       4.1657      0.00000
     82       4.3051      0.00000
     83       4.6521      0.00000
     84       5.0393      0.00000
     85       5.6020      0.00000
     86       5.6020      0.00000
     87       5.6164      0.00000
     88       6.8182      0.00000
     89       6.8576      0.00000
     90       7.0409      0.00000
     91       7.1031      0.00000
     92       7.1031      0.00000
     93       7.6206      0.00000
     94       7.8438      0.00000
     95       8.3349      0.00000
     96       8.5029      0.00000

 k-point     4 :       0.3333   -0.0000    0.0000
  band No.  band energies     occupation 
      1      -9.1588      2.00000
      2      -7.3132      2.00000
      3      -7.0816      2.00000
      4      -6.0556      2.00000
      5      -6.0007      2.00000
      6      -5.9435      2.00000
      7      -5.9435      2.00000
      8      -5.6870      2.00000
      9      -5.6870      2.00000
     10      -5.4945      2.00000
     11      -5.3679      2.00000
     12      -5.3679      2.00000
     13      -5.2170      2.00000
     14      -5.1520      2.00000
     15      -5.1520      2.00000
     16      -4.8632      2.00000
     17      -4.8632      2.00000
     18      -4.8159      2.00000
     19      -4.7571      2.00000
     20      -4.6205      2.00000
     21      -4.5968      2.00000
     22      -4.5968      2.00000
     23      -4.4821      2.00000
     24      -4.4748      2.00000
     25      -4.3588      2.00000
     26      -4.3588      2.00000
     27      -4.2962      2.00000
     28      -4.2321      2.00000
     29      -4.1940      2.00000
     30      -4.1940      2.00000
     31      -4.1800      2.00000
     32      -4.1335      2.00000
     33      -4.1274      2.00000
     34      -4.0624      2.00000
     35      -3.9532      2.00000
     36      -3.9493      2.00000
     37      -3.9493      2.00000
     38      -3.8931      2.00000
     39      -3.8524      2.00000
     40      -3.8395      2.00000
     41      -3.8395      2.00000
     42      -3.7412      2.00000
     43      -3.7377      2.00000
     44      -3.6748      2.00000
     45      -3.6748      2.00000
     46      -3.6345      2.00000
     47      -3.6076      2.00000
     48      -3.4432      2.00000
     49      -3.4432      2.00000
     50      -3.4156      2.00000
     51      -3.3729      2.00000
     52      -3.3543      2.00000
     53      -3.3476      2.00000
     54      -3.3286      2.00000
     55      -3.3286      2.00000
     56      -3.2475      2.00000
     57      -3.2211      2.00000
     58      -3.1302      2.00000
     59      -3.1302      2.00000
     60      -3.1072      2.00000
     61      -3.0817      2.00000
     62      -3.0196      2.00000
     63      -3.0196      2.00000
     64      -2.7721      2.00000
     65      -2.0435      2.00000
     66      -1.5437      1.53523
     67      -1.5437      1.53514
     68      -0.4406     -0.00000
     69      -0.4406     -0.00000
     70      -0.2050     -0.00000
     71      -0.0452     -0.00000
     72       1.7858      0.00000
     73       1.7858      0.00000
     74       2.9210      0.00000
     75       3.3726      0.00000
     76       3.7158      0.00000
     77       3.7158      0.00000
     78       3.8411      0.00000
     79       4.1493      0.00000
     80       4.9674      0.00000
     81       4.9674      0.00000
     82       5.1230      0.00000
     83       5.4193      0.00000
     84       5.4664      0.00000
     85       5.7423      0.00000
     86       5.7423      0.00000
     87       6.0289      0.00000
     88       6.4435      0.00000
     89       6.6212      0.00000
     90       7.2562      0.00000
     91       7.3172      0.00000
     92       7.6002      0.00000
     93       7.6740      0.00000
     94       7.8352      0.00000
     95       7.8353      0.00000
     96       7.9711      0.00000

 k-point     5 :       0.4444   -0.0000    0.0000
  band No.  band energies     occupation 
      1      -8.5361      2.00000
      2      -7.8093      2.00000
      3      -6.8008      2.00000
      4      -6.3309      2.00000
      5      -5.8655      2.00000
      6      -5.8655      2.00000
      7      -5.6804      2.00000
      8      -5.5845      2.00000
      9      -5.5845      2.00000
     10      -5.4969      2.00000
     11      -5.2505      2.00000
     12      -5.2505      2.00000
     13      -5.0706      2.00000
     14      -5.0706      2.00000
     15      -5.0582      2.00000
     16      -4.9045      2.00000
     17      -4.8151      2.00000
     18      -4.7714      2.00000
     19      -4.7714      2.00000
     20      -4.7604      2.00000
     21      -4.7467      2.00000
     22      -4.7467      2.00000
     23      -4.4955      2.00000
     24      -4.4622      2.00000
     25      -4.3636      2.00000
     26      -4.3191      2.00000
     27      -4.3191      2.00000
     28      -4.2401      2.00000
     29      -4.2401      2.00000
     30      -4.2228      2.00000
     31      -4.1860      2.00000
     32      -4.1860      2.00000
     33      -4.1821      2.00000
     34      -4.1246      2.00000
     35      -4.1037      2.00000
     36      -4.0837      2.00000
     37      -4.0730      2.00000
     38      -4.0730      2.00000
     39      -4.0651      2.00000
     40      -4.0209      2.00000
     41      -3.9169      2.00000
     42      -3.7750      2.00000
     43      -3.7353      2.00000
     44      -3.6916      2.00000
     45      -3.6916      2.00000
     46      -3.6605      2.00000
     47      -3.6604      2.00000
     48      -3.5739      2.00000
     49      -3.5739      2.00000
     50      -3.5666      2.00000
     51      -3.4590      2.00000
     52      -3.4361      2.00000
     53      -3.3794      2.00000
     54      -3.3794      2.00000
     55      -3.3587      2.00000
     56      -3.3397      2.00000
     57      -3.2625      2.00000
     58      -3.1315      2.00000
     59      -3.1315      2.00000
     60      -3.1038      2.00000
     61      -3.0986      2.00000
     62      -3.0921      2.00000
     63      -3.0173      2.00000
     64      -3.0173      2.00000
     65      -1.5472      1.58374
     66      -1.5368      1.43501
     67      -1.5367      1.43498
     68      -0.9431     -0.00000
     69      -0.4218     -0.00000
     70      -0.4218     -0.00000
     71       0.8341     -0.00000
     72       1.8298      0.00000
     73       1.9980      0.00000
     74       1.9980      0.00000
     75       3.9617      0.00000
     76       4.5050      0.00000
     77       4.6930      0.00000
     78       4.6930      0.00000
     79       4.7111      0.00000
     80       4.7798      0.00000
     81       5.3297      0.00000
     82       5.3297      0.00000
     83       5.3520      0.00000
     84       5.5921      0.00000
     85       5.7801      0.00000
     86       6.0694      0.00000
     87       6.2756      0.00000
     88       6.2756      0.00000
     89       6.6121      0.00000
     90       6.6221      0.00000
     91       6.6221      0.00000
     92       6.8313      0.00000
     93       7.8158      0.00000
     94       7.8158      0.00000
     95       7.8685      0.00000
     96       7.9554      0.00000

 k-point     6 :       0.2222    0.1111    0.0000
  band No.  band energies     occupation 
      1      -9.7221      2.00000
      2      -7.8236      2.00000
      3      -6.3779      2.00000
      4      -6.2824      2.00000
      5      -6.2824      2.00000
      6      -5.9603      2.00000
      7      -5.9113      2.00000
      8      -5.9113      2.00000
      9      -5.8128      2.00000
     10      -5.5397      2.00000
     11      -5.5397      2.00000
     12      -5.4808      2.00000
     13      -5.3888      2.00000
     14      -5.3888      2.00000
     15      -5.3809      2.00000
     16      -4.8709      2.00000
     17      -4.8602      2.00000
     18      -4.8602      2.00000
     19      -4.5719      2.00000
     20      -4.4823      2.00000
     21      -4.4823      2.00000
     22      -4.4758      2.00000
     23      -4.4738      2.00000
     24      -4.4402      2.00000
     25      -4.3821      2.00000
     26      -4.2978      2.00000
     27      -4.2622      2.00000
     28      -4.2622      2.00000
     29      -4.2194      2.00000
     30      -4.1876      2.00000
     31      -4.1589      2.00000
     32      -4.0894      2.00000
     33      -4.0894      2.00000
     34      -4.0570      2.00000
     35      -4.0341      2.00000
     36      -3.7629      2.00000
     37      -3.7207      2.00000
     38      -3.7207      2.00000
     39      -3.7030      2.00000
     40      -3.6319      2.00000
     41      -3.5971      2.00000
     42      -3.5807      2.00000
     43      -3.5807      2.00000
     44      -3.5450      2.00000
     45      -3.4285      2.00000
     46      -3.3754      2.00000
     47      -3.3141      2.00000
     48      -3.3141      2.00000
     49      -3.2762      2.00000
     50      -3.2406      2.00000
     51      -3.2406      2.00000
     52      -3.2300      2.00000
     53      -3.1799      2.00000
     54      -3.1799      2.00000
     55      -3.1432      2.00000
     56      -3.1420      2.00000
     57      -3.1253      2.00000
     58      -3.0534      2.00000
     59      -3.0534      2.00000
     60      -3.0156      2.00000
     61      -3.0156      2.00000
     62      -3.0133      2.00000
     63      -2.5652      2.00000
     64      -2.3762      2.00000
     65      -2.3762      2.00000
     66      -1.3951     -0.06896
     67      -1.3951     -0.06897
     68      -0.9632     -0.00000
     69      -0.7861     -0.00000
     70       0.0618     -0.00000
     71       0.5761     -0.00000
     72       0.9316     -0.00000
     73       0.9316     -0.00000
     74       2.8668      0.00000
     75       3.0084      0.00000
     76       3.2700      0.00000
     77       3.3698      0.00000
     78       3.3698      0.00000
     79       3.6124      0.00000
     80       4.2718      0.00000
     81       4.4485      0.00000
     82       4.4485      0.00000
     83       4.5579      0.00000
     84       4.9544      0.00000
     85       5.0663      0.00000
     86       5.2233      0.00000
     87       5.2233      0.00000
     88       6.7309      0.00000
     89       6.7655      0.00000
     90       7.4764      0.00000
     91       7.4764      0.00000
     92       7.7101      0.00000
     93       7.7101      0.00000
     94       7.7148      0.00000
     95       7.9525      0.00000
     96       8.3776      0.00000

 k-point     7 :       0.3333    0.1111    0.0000
  band No.  band energies     occupation 
      1      -9.3437      2.00000
      2      -7.4765      2.00000
      3      -6.7140      2.00000
      4      -6.3184      2.00000
      5      -6.1152      2.00000
      6      -5.9551      2.00000
      7      -5.8287      2.00000
      8      -5.7957      2.00000
      9      -5.6754      2.00000
     10      -5.4895      2.00000
     11      -5.4407      2.00000
     12      -5.3896      2.00000
     13      -5.2618      2.00000
     14      -5.2359      2.00000
     15      -5.2106      2.00000
     16      -4.8660      2.00000
     17      -4.8621      2.00000
     18      -4.8375      2.00000
     19      -4.7013      2.00000
     20      -4.5566      2.00000
     21      -4.5502      2.00000
     22      -4.4952      2.00000
     23      -4.4940      2.00000
     24      -4.4752      2.00000
     25      -4.4088      2.00000
     26      -4.3558      2.00000
     27      -4.2785      2.00000
     28      -4.2618      2.00000
     29      -4.2169      2.00000
[...]
     52      -3.3458      2.00000
     53      -3.3458      2.00000
     54      -3.2169      2.00000
     55      -3.1944      2.00000
     56      -3.1886      2.00000
     57      -3.1558      2.00000
     58      -3.1558      2.00000
     59      -3.1411      2.00000
     60      -3.1011      2.00000
     61      -3.1010      2.00000
     62      -3.0837      2.00000
     63      -2.8517      2.00000
     64      -2.8516      2.00000
     65      -2.3010      2.00000
     66      -2.3010      2.00000
     67      -1.7615      2.00182
     68       0.1955     -0.00000
     69       0.1955     -0.00000
     70       0.4137     -0.00000
     71       0.5134     -0.00000
     72       1.0693     -0.00000
     73       1.8517      0.00000
     74       3.3002      0.00000
     75       3.3002      0.00000
     76       3.5439      0.00000
     77       3.6882      0.00000
     78       4.1864      0.00000
     79       4.4485      0.00000
     80       5.0592      0.00000
     81       5.4048      0.00000
     82       5.4868      0.00000
     83       5.7232      0.00000
     84       5.7233      0.00000
     85       5.7804      0.00000
     86       6.2502      0.00000
     87       6.2857      0.00000
     88       6.2857      0.00000
     89       6.7798      0.00000
     90       6.7798      0.00000
     91       6.9264      0.00000
     92       6.9264      0.00000
     93       7.6111      0.00000
     94       7.6257      0.00000
     95       7.6267      0.00000
     96       7.8714      0.00000

 k-point    11 :      -0.4444    0.2222    0.0000
  band No.  band energies     occupation 
      1      -8.3445      2.00000
      2      -7.6368      2.00000
      3      -7.0106      2.00000
      4      -6.6125      2.00000
      5      -6.1864      2.00000
      6      -5.9010      2.00000
      7      -5.5432      2.00000
      8      -5.4818      2.00000
      9      -5.4224      2.00000
     10      -5.3700      2.00000
     11      -5.2431      2.00000
     12      -5.2343      2.00000
     13      -5.1850      2.00000
     14      -5.0784      2.00000
     15      -4.9839      2.00000
     16      -4.9668      2.00000
     17      -4.9644      2.00000
     18      -4.9533      2.00000
     19      -4.8610      2.00000
     20      -4.8104      2.00000
     21      -4.6408      2.00000
     22      -4.6295      2.00000
     23      -4.5957      2.00000
     24      -4.5388      2.00000
     25      -4.5017      2.00000
     26      -4.4460      2.00000
     27      -4.4351      2.00000
     28      -4.4313      2.00000
     29      -4.3993      2.00000
     30      -4.3842      2.00000
     31      -4.2971      2.00000
     32      -4.2162      2.00000
     33      -4.1633      2.00000
     34      -4.1569      2.00000
     35      -4.1549      2.00000
     36      -4.1418      2.00000
     37      -4.0742      2.00000
     38      -4.0465      2.00000
     39      -3.9956      2.00000
     40      -3.9654      2.00000
     41      -3.8996      2.00000
     42      -3.7700      2.00000
     43      -3.6949      2.00000
     44      -3.6830      2.00000
     45      -3.6827      2.00000
     46      -3.6136      2.00000
     47      -3.6131      2.00000
     48      -3.5660      2.00000
     49      -3.5519      2.00000
     50      -3.4736      2.00000
     51      -3.4617      2.00000
     52      -3.4075      2.00000
     53      -3.3650      2.00000
     54      -3.2749      2.00000
     55      -3.2542      2.00000
     56      -3.1899      2.00000
     57      -3.1777      2.00000
     58      -3.1599      2.00000
     59      -3.1569      2.00000
     60      -3.1266      2.00000
     61      -3.1094      2.00000
     62      -3.1085      2.00000
     63      -3.0769      2.00000
     64      -2.8303      2.00000
     65      -2.8114      2.00000
     66      -2.2835      2.00000
     67      -1.2515     -0.00188
     68      -0.6047     -0.00000
     69       0.1126     -0.00000
     70       0.7523     -0.00000
     71       1.2517      0.00000
     72       2.0055      0.00000
     73       2.2230      0.00000
     74       2.5131      0.00000
     75       3.1354      0.00000
     76       3.8943      0.00000
     77       4.2815      0.00000
     78       4.3079      0.00000
     79       4.8515      0.00000
     80       5.0377      0.00000
     81       5.0845      0.00000
     82       5.1943      0.00000
     83       5.6996      0.00000
     84       5.7850      0.00000
     85       5.9033      0.00000
     86       6.1129      0.00000
     87       6.1448      0.00000
     88       6.3823      0.00000
     89       6.5334      0.00000
     90       6.7179      0.00000
     91       6.8420      0.00000
     92       6.9777      0.00000
     93       7.1410      0.00000
     94       7.4313      0.00000
     95       7.8468      0.00000
     96       8.0257      0.00000

 k-point    12 :      -0.3333    0.3333    0.0000
  band No.  band energies     occupation 
      1      -7.7022      2.00000
      2      -7.7022      2.00000
      3      -7.7021      2.00000
      4      -6.1942      2.00000
      5      -6.1942      2.00000
      6      -6.1942      2.00000
      7      -5.3748      2.00000
      8      -5.3035      2.00000
      9      -5.3033      2.00000
     10      -5.2927      2.00000
     11      -5.2927      2.00000
     12      -5.2927      2.00000
     13      -5.1080      2.00000
     14      -5.1079      2.00000
     15      -5.0595      2.00000
     16      -5.0595      2.00000
     17      -5.0595      2.00000
     18      -4.8122      2.00000
     19      -4.8122      2.00000
     20      -4.8122      2.00000
     21      -4.6646      2.00000
     22      -4.6646      2.00000
     23      -4.6646      2.00000
     24      -4.5386      2.00000
     25      -4.5291      2.00000
     26      -4.5291      2.00000
     27      -4.5291      2.00000
     28      -4.4834      2.00000
     29      -4.4834      2.00000
     30      -4.4834      2.00000
     31      -4.2668      2.00000
     32      -4.2664      2.00000
     33      -4.2273      2.00000
     34      -4.1988      2.00000
     35      -4.0696      2.00000
     36      -4.0696      2.00000
     37      -4.0696      2.00000
     38      -4.0507      2.00000
     39      -4.0507      2.00000
     40      -4.0507      2.00000
     41      -3.7920      2.00000
     42      -3.7920      2.00000
     43      -3.7920      2.00000
     44      -3.6227      2.00000
     45      -3.6225      2.00000
     46      -3.5850      2.00000
     47      -3.5850      2.00000
     48      -3.5850      2.00000
     49      -3.5149      2.00000
     50      -3.5149      2.00000
     51      -3.5149      2.00000
     52      -3.2684      2.00000
     53      -3.2684      2.00000
     54      -3.2684      2.00000
     55      -3.2147      2.00000
     56      -3.2144      2.00000
     57      -3.1703      2.00000
     58      -3.1703      2.00000
     59      -3.1703      2.00000
     60      -3.1615      2.00000
     61      -3.1367      2.00000
     62      -3.1367      2.00000
     63      -3.1367      2.00000
     64      -2.8215      2.00000
     65      -2.8215      2.00000
     66      -2.8215      2.00000
     67      -0.6569     -0.00000
     68      -0.6569     -0.00000
     69      -0.6569     -0.00000
     70       2.1258      0.00000
     71       2.1258      0.00000
     72       2.1258      0.00000
     73       2.1295      0.00000
     74       2.1296      0.00000
     75       2.5056      0.00000
     76       3.1641      0.00000
     77       4.5137      0.00000
     78       4.5139      0.00000
     79       4.9607      0.00000
     80       4.9607      0.00000
     81       4.9607      0.00000
     82       5.6080      0.00000
     83       5.6080      0.00000
     84       5.6080      0.00000
     85       5.8145      0.00000
     86       5.8145      0.00000
     87       5.8145      0.00000
     88       6.5059      0.00000
     89       6.5062      0.00000
     90       6.8927      0.00000
     91       6.8927      0.00000
     92       6.8927      0.00000
     93       7.0723      0.00000
     94       7.0723      0.00000
     95       7.0723      0.00000
     96       7.7565      0.00000


--------------------------------------------------------------------------------------------------------


 soft charge-density along one line, spin component           1
         0         1         2         3         4         5         6         7         8         9
 total charge-density along one line
 
 pseudopotential strength for first ion, spin component:           1
 -9.342   0.000   0.000  -0.005   0.000   0.144  -0.000  -0.000
  0.000  -9.300   0.000   0.000  -0.005  -0.000   0.110  -0.000
  0.000   0.000  -9.293   0.000   0.000  -0.000  -0.000   0.104
 -0.005   0.000   0.000  -9.300   0.000   0.004  -0.000  -0.000
  0.000  -0.005   0.000   0.000  -9.342  -0.000   0.004  -0.000
  0.144  -0.000  -0.000   0.004  -0.000   6.887   0.000   0.000
 -0.000   0.110  -0.000  -0.000   0.004   0.000   6.912   0.000
 -0.000  -0.000   0.104  -0.000  -0.000   0.000   0.000   6.916
  0.004  -0.000  -0.000   0.110  -0.000  -0.003  -0.000   0.000
 -0.000   0.004  -0.000  -0.000   0.144   0.000  -0.003   0.000
  0.000  -0.000  -0.008  -0.000   0.000   0.000  -0.000   0.003
  0.000  -0.000  -0.015  -0.000   0.000   0.000  -0.000   0.006
  0.000  -0.010   0.000  -0.000   0.000  -0.000   0.010   0.000
 -0.000   0.000  -0.009   0.000  -0.000  -0.000   0.000   0.009
  0.000  -0.000   0.000  -0.010   0.000  -0.000  -0.000   0.000
  0.000  -0.011  -0.000   0.000   0.000  -0.000   0.012   0.000
  0.000   0.000  -0.011   0.000   0.000  -0.000   0.000   0.011
  0.000   0.000  -0.000  -0.011   0.000  -0.000  -0.000   0.000
 total augmentation occupancy for first ion, spin component:           1
  1.908  -0.000  -0.000  -0.006   0.000  -0.016   0.000   0.000   0.005  -0.000  -0.000  -0.000   0.000  -0.000   0.008  -0.000
  0.000   1.928   0.000   0.000  -0.006   0.000  -0.031  -0.000  -0.000   0.005   0.000   0.000   0.011   0.000   0.000  -0.010
 -0.000   0.000   1.928  -0.000  -0.000   0.000  -0.000  -0.027  -0.000   0.000  -0.001   0.012  -0.000   0.052  -0.000   0.000
 -0.006   0.000   0.000   1.928   0.000   0.005  -0.000  -0.000  -0.031  -0.000   0.000  -0.000   0.000   0.000   0.011  -0.000
  0.000  -0.006  -0.000   0.000   1.908  -0.000   0.005   0.000  -0.000  -0.016  -0.000  -0.000   0.008  -0.000   0.000  -0.001
 -0.016   0.000   0.000   0.005  -0.000   0.014   0.000  -0.000   0.000  -0.000   0.000  -0.000   0.000  -0.000   0.002  -0.000
  0.000  -0.031  -0.000  -0.000   0.005   0.000   0.010  -0.000   0.000   0.000   0.000   0.000   0.017  -0.000   0.000  -0.001
  0.000  -0.000  -0.027  -0.000   0.000  -0.000  -0.000   0.013  -0.000  -0.000  -0.040   0.002  -0.000   0.023  -0.000   0.000
  0.005  -0.000  -0.000  -0.031  -0.000   0.000   0.000  -0.000   0.010   0.000   0.000   0.000   0.000  -0.000   0.017  -0.000
 -0.000   0.005   0.000  -0.000  -0.016   0.000   0.000  -0.000   0.000   0.014   0.000  -0.000   0.002  -0.000  -0.000  -0.000
 -0.000  -0.000  -0.001  -0.000  -0.000   0.000   0.000  -0.040   0.000   0.000   1.691  -0.136   0.000   0.134   0.000   0.000
 -0.000  -0.000   0.012  -0.000  -0.000  -0.000  -0.000   0.002   0.000  -0.000  -0.136   0.016   0.000  -0.023   0.000   0.000
  0.000   0.011  -0.000   0.000   0.008   0.000   0.017  -0.000   0.000   0.002   0.000   0.000   0.204   0.000   0.000  -0.013
 -0.000   0.000   0.052  -0.000  -0.000  -0.000  -0.000   0.023  -0.000  -0.000   0.134  -0.023  -0.000   0.126  -0.000  -0.000
  0.008   0.000  -0.000   0.011   0.000   0.002   0.000  -0.000   0.017  -0.000   0.000   0.000   0.000   0.000   0.204  -0.000
 -0.000  -0.010   0.000  -0.000  -0.001  -0.000  -0.001   0.000  -0.000  -0.000   0.000   0.000  -0.013  -0.000  -0.000   0.001
  0.000  -0.000  -0.015  -0.000   0.000   0.000   0.000  -0.001   0.000   0.000  -0.019   0.002  -0.000  -0.009   0.000   0.000
 -0.001  -0.000   0.000  -0.010  -0.000  -0.000  -0.000   0.000  -0.001   0.000  -0.000  -0.000  -0.000   0.000  -0.013   0.000


------------------------ aborting loop because EDIFF is reached ----------------------------------------


    CHARGE:  cpu time    0.0940: real time    0.0942
    FORLOC:  cpu time    0.0025: real time    0.0025
    FORNL :  cpu time    1.7493: real time    1.7497
    STRESS:  cpu time    2.6011: real time    2.6015
    FORCOR:  cpu time    0.0244: real time    0.0244
    FORHAR:  cpu time    0.0077: real time    0.0077
    MIXING:  cpu time    0.0014: real time    0.0014
    OFIELD:  cpu time    0.0001: real time    0.0000

  FORCE on cell =-STRESS in cart. coord.  units (eV):
  Direction    XX          YY          ZZ          XY          YZ          ZX
  --------------------------------------------------------------------------------------
  Alpha Z   190.05445   190.05445   190.05445
  Ewald   75295.23815 75295.23815-84021.89959    -0.00000    -0.00000    -0.00000
  Hartree 79382.99377 79382.99377-76600.13658     0.00000    -0.00000    -0.00000
  E(xc)    -769.93400  -769.93381  -772.02162    -0.00017     0.00000     0.00000
  Local  ************************159249.75948     0.00608    -0.00002    -0.00003
  n-local  -256.75037  -271.28213  -269.58176    -7.04034     0.30139    -0.28805
  augment  1132.35618  1132.36285  1139.65380    -0.00578     0.00008     0.00013
  Kinetic  1070.74823  1072.87436  1083.18000     1.96973    -0.59840     1.02880
  Fock        0.00000     0.00000     0.00000     0.00000     0.00000     0.00000
  -------------------------------------------------------------------------------------
  Total      -4.56646    -4.56646    -0.99181     0.00000     0.00000     0.00000
  in kB     -13.20364   -13.20364    -2.86776     0.00000     0.00000     0.00000
  external pressure =       -9.76 kB  Pullay stress =        0.00 kB


 VOLUME and BASIS-vectors are now :
 -----------------------------------------------------------------------------
  energy-cutoff  :      400.00
  volume of cell :      554.11
      direct lattice vectors                 reciprocal lattice vectors
     5.142080513  0.000000000  0.000000000     0.194473812 -0.112279508  0.000000000
     2.571040256  4.453172352  0.000000000     0.000000000  0.224559016  0.000000000
     0.000000000  0.000000000 24.198491158     0.000000000  0.000000000  0.041324891

  length of vectors
     5.142080513  5.142080513 24.198491158     0.224559016  0.224559016  0.041324891


 FORCES acting on ions
    electron-ion (+dipol)            ewald-force                    non-local-force                 convergence-correction
 -----------------------------------------------------------------------------------------------
   0.263E-05 0.152E-05 0.283E+04   0.329E-11 0.188E-11 -.283E+04   -.173E-17 -.304E-17 -.215E+01   -.214E-07 -.123E-07 0.136E+00
   0.263E-05 0.152E-05 0.283E+04   0.331E-11 0.188E-11 -.283E+04   -.217E-17 -.139E-16 -.215E+01   -.214E-07 -.123E-07 0.136E+00
   0.263E-05 0.152E-05 0.283E+04   0.327E-11 0.187E-11 -.283E+04   0.477E-17 -.104E-16 -.215E+01   -.214E-07 -.123E-07 0.136E+00
   0.263E-05 0.152E-05 0.283E+04   0.329E-11 0.188E-11 -.283E+04   -.347E-17 0.390E-17 -.215E+01   -.214E-07 -.123E-07 0.136E+00
   -.812E-05 -.469E-05 -.163E-02   -.500E-11 -.289E-11 -.341E-12   0.296E-20 0.424E-21 -.220E-19   0.158E-09 0.915E-10 0.742E-04
   -.812E-05 -.469E-05 -.163E-02   -.499E-11 -.289E-11 -.341E-12   -.328E-20 -.424E-21 0.847E-20   0.158E-09 0.911E-10 0.742E-04
   -.812E-05 -.469E-05 -.163E-02   -.501E-11 -.292E-11 -.512E-12   -.244E-20 -.127E-20 -.593E-19   0.158E-09 0.913E-10 0.742E-04
   -.812E-05 -.469E-05 -.163E-02   -.499E-11 -.290E-11 -.512E-12   0.212E-20 0.212E-20 0.457E-19   0.158E-09 0.910E-10 0.742E-04
   0.358E-05 0.207E-05 -.283E+04   0.175E-11 0.102E-11 0.283E+04   -.867E-18 0.434E-17 0.215E+01   0.220E-07 0.127E-07 -.135E+00
   0.358E-05 0.207E-05 -.283E+04   0.176E-11 0.102E-11 0.283E+04   0.434E-18 -.911E-17 0.215E+01   0.220E-07 0.127E-07 -.135E+00
   0.358E-05 0.207E-05 -.283E+04   0.173E-11 0.101E-11 0.283E+04   0.564E-17 0.434E-18 0.215E+01   0.220E-07 0.127E-07 -.135E+00
   0.358E-05 0.207E-05 -.283E+04   0.175E-11 0.101E-11 0.283E+04   0.737E-17 0.781E-17 0.215E+01   0.220E-07 0.127E-07 -.135E+00
 -----------------------------------------------------------------------------------------------
   -.761E-05 -.439E-05 -.113E-01   0.158E-12 -.304E-13 0.182E-11   0.997E-17 -.199E-16 -.400E-14   0.333E-08 0.192E-08 0.814E-03
 
 
 POSITION                                       TOTAL-FORCE (eV/Angst)
 -----------------------------------------------------------------------------------
      1.28552      0.74220     10.03493         0.000000     -0.000000      0.004316
      3.85656      0.74220     10.03493        -0.000000     -0.000000      0.004316
      2.57104      2.96878     10.03493        -0.000000     -0.000000      0.004316
      5.14208      2.96878     10.03493        -0.000000     -0.000000      0.004316
      5.14208      1.48439     12.09925        -0.000000      0.000000     -0.000000
      2.57104      1.48439     12.09925         0.000000     -0.000000     -0.000000
      6.42760      3.71098     12.09925        -0.000000     -0.000000     -0.000000
      3.85656      3.71098     12.09925         0.000000      0.000000     -0.000000
     -0.00000     -0.00000     14.16356         0.000000     -0.000000     -0.004316
      2.57104     -0.00000     14.16356         0.000000      0.000000     -0.004316
      1.28552      2.22659     14.16356        -0.000000      0.000000     -0.004316
      3.85656      2.22659     14.16356         0.000000      0.000000     -0.004316
 -----------------------------------------------------------------------------------
    total drift:                               -0.000008     -0.000004     -0.010478


--------------------------------------------------------------------------------------------------------



  FREE ENERGIE OF THE ION-ELECTRON SYSTEM (eV)
  ---------------------------------------------------
  free  energy   TOTEN  =       -40.95036609 eV

  energy  without entropy=      -40.93268486  energy(sigma->0) =      -40.94447234
 
 d Force = 0.4266703E-02[-0.630E-03, 0.916E-02]  d Energy = 0.4587917E-02-0.321E-03
 d Force = 0.4134664E+03[ 0.413E+03, 0.414E+03]  d Ewald  = 0.4134669E+03-0.526E-03


--------------------------------------------------------------------------------------------------------


    POTLOK:  cpu time    0.0284: real time    0.0284


--------------------------------------------------------------------------------------------------------




--------------------------------------------------------------------------------------------------------


  
 reached required accuracy - stopping structural energy minimisation
     LOOP+:  cpu time   30.6911: real time   30.8019
    4ORBIT:  cpu time    0.0000: real time    0.0000

 total amount of memory used by VASP on root node    65043. kBytes
========================================================================

   base      :      30000. kBytes
   nonl-proj :      19491. kBytes
   fftplans  :       1683. kBytes
   grid      :       5721. kBytes
   one-center:        186. kBytes
   wavefun   :       7962. kBytes
 
  
  
 General timing and accounting informations for this job:
 ========================================================
  
                  Total CPU time used (sec):      171.345
                            User time (sec):      168.605
                          System time (sec):        2.740
                         Elapsed time (sec):      172.006
  
                   Maximum memory used (kb):       86872.
                   Average memory used (kb):           0.
  
                          Minor page faults:       170184
                          Major page faults:            9
                 Voluntary context switches:         2385
