<?xml version="1.0" encoding="ISO-8859-1"?>
<modeling>
 <generator>
  <i name="program" type="string">vasp </i>
  <i name="version" type="string">5.4.1  </i>
  <i name="subversion" type="string">05Feb16 (build Feb 08 2018 09:21:51) complex                          parallel </i>
  <i name="platform" type="string">LinuxIFC </i>
  <i name="date" type="string">2019 11 21 </i>
  <i name="time" type="string">23:19:09 </i>
 </generator>
 <incar>
  <i type="string" name="PREC">normal</i>
  <i type="int" name="IBRION">     2</i>
  <i type="int" name="NSW">    20</i>
  <i name="ENCUT">    400.00000000</i>
  <i type="int" name="ISMEAR">     1</i>
  <i name="SIGMA">      0.10000000</i>
  <i type="logical" name="LWAVE"> F  </i>
  <i type="logical" name="LCHARG"> F  </i>
  <v type="int" name="KPOINT_BSE">    -1     0     0     0</v>
 </incar>
 <kpoints>
  <generation param="Monkhorst-Pack">
   <v type="int" name="divisions">       9        9        1 </v>
   <v name="usershift">      0.00000000       0.00000000       0.00000000 </v>
   <v name="genvec1">      0.11111111       0.00000000       0.00000000 </v>
   <v name="genvec2">      0.00000000       0.11111111       0.00000000 </v>
   <v name="genvec3">      0.00000000       0.00000000       1.00000000 </v>
   <v name="shift">      0.00000000       0.00000000       0.00000000 </v>
  </generation>
  <varray name="kpointlist" >
   <v>       0.00000000       0.00000000       0.00000000 </v>
   <v>       0.11111111      -0.00000000       0.00000000 </v>
   <v>       0.22222222      -0.00000000       0.00000000 </v>
   <v>       0.33333333      -0.00000000       0.00000000 </v>
   <v>       0.44444444      -0.00000000       0.00000000 </v>
   <v>       0.22222222       0.11111111       0.00000000 </v>
   <v>       0.33333333       0.11111111       0.00000000 </v>
   <v>       0.44444444       0.11111111       0.00000000 </v>
   <v>      -0.44444444       0.11111111       0.00000000 </v>
   <v>       0.44444444       0.22222222       0.00000000 </v>
   <v>      -0.44444444       0.22222222       0.00000000 </v>
   <v>      -0.33333333       0.33333333       0.00000000 </v>
  </varray>
  <varray name="weights" >
   <v>       0.01234568 </v>
   <v>       0.07407407 </v>
   <v>       0.07407407 </v>
   <v>       0.07407407 </v>
   <v>       0.07407407 </v>
   <v>       0.07407407 </v>
   <v>       0.14814815 </v>
   <v>       0.14814815 </v>
   <v>       0.07407407 </v>
   <v>       0.07407407 </v>
   <v>       0.14814815 </v>
   <v>       0.02469136 </v>
  </varray>
 </kpoints>
 <parameters>
  <separator name="general" >
   <i type="string" name="SYSTEM">unknown system</i>
   <i type="logical" name="LCOMPAT"> F  </i>
  </separator>
  <separator name="electronic" >
   <i type="string" name="PREC">normal</i>
   <i name="ENMAX">    400.00000000</i>
   <i name="ENAUG">    586.98000000</i>
   <i name="EDIFF">      0.00010000</i>
   <i type="int" name="IALGO">    38</i>
   <i type="int" name="IWAVPR">    11</i>
   <i type="int" name="NBANDS">    96</i>
   <i name="NELECT">    132.00000000</i>
   <i type="int" name="TURBO">     0</i>
   <i type="int" name="IRESTART">     0</i>
   <i type="int" name="NREBOOT">     0</i>
   <i type="int" name="NMIN">     0</i>
   <i name="EREF">      0.00000000</i>
   <separator name="electronic smearing" >
    <i type="int" name="ISMEAR">     1</i>
    <i name="SIGMA">      0.10000000</i>
    <i name="KSPACING">      0.50000000</i>
    <i type="logical" name="KGAMMA"> T  </i>
   </separator>
   <separator name="electronic projectors" >
    <i type="logical" name="LREAL"> F  </i>
    <v name="ROPT">      0.00000000</v>
    <i type="int" name="LMAXPAW">  -100</i>
    <i type="int" name="LMAXMIX">     2</i>
    <i type="logical" name="NLSPLINE"> F  </i>
   </separator>
   <separator name="electronic startup" >
    <i type="int" name="ISTART">     0</i>
    <i type="int" name="ICHARG">     2</i>
    <i type="int" name="INIWAV">     1</i>
   </separator>
   <separator name="electronic spin" >
    <i type="int" name="ISPIN">     1</i>
    <i type="logical" name="LNONCOLLINEAR"> F  </i>
    <v name="MAGMOM">      1.00000000      1.00000000      1.00000000      1.00000000      1.00000000      1.00000000      1.00000000      1.00000000      1.00000000      1.00000000      1.00000000      1.00000000</v>
    <i name="NUPDOWN">     -1.00000000</i>
    <i type="logical" name="LSORBIT"> F  </i>
    <v name="SAXIS">      0.00000000      0.00000000      1.00000000</v>
    <i type="logical" name="LSPIRAL"> F  </i>
    <v name="QSPIRAL">      0.00000000      0.00000000      0.00000000</v>
    <i type="logical" name="LZEROZ"> F  </i>
   </separator>
   <separator name="electronic exchange-correlation" >
    <i type="logical" name="LASPH"> F  </i>
    <i type="logical" name="LMETAGGA"> F  </i>
   </separator>
   <separator name="electronic convergence" >
    <i type="int" name="NELM">    60</i>
    <i type="int" name="NELMDL">    -5</i>
    <i type="int" name="NELMIN">     2</i>
    <i name="ENINI">    400.00000000</i>
    <separator name="electronic convergence detail" >
     <i type="logical" name="LDIAG"> T  </i>
     <i type="logical" name="LSUBROT"> F  </i>
     <i name="WEIMIN">      0.00100000</i>
     <i name="EBREAK">      0.00000026</i>
     <i name="DEPER">      0.30000000</i>
     <i type="int" name="NRMM">     4</i>
     <i name="TIME">      0.40000000</i>
    </separator>
   </separator>
   <separator name="electronic mixer" >
    <i name="AMIX">      0.40000000</i>
    <i name="BMIX">      1.00000000</i>
    <i name="AMIN">      0.10000000</i>
    <i name="AMIX_MAG">      1.60000000</i>
    <i name="BMIX_MAG">      1.00000000</i>
    <separator name="electronic mixer details" >
     <i type="int" name="IMIX">     4</i>
     <i type="logical" name="MIXFIRST"> F  </i>
     <i type="int" name="MAXMIX">   -45</i>
     <i name="WC">    100.00000000</i>
     <i type="int" name="INIMIX">     1</i>
     <i type="int" name="MIXPRE">     1</i>
     <i type="int" name="MREMOVE">     5</i>
    </separator>
   </separator>
   <separator name="electronic dipolcorrection" >
    <i type="logical" name="LDIPOL"> F  </i>
    <i type="logical" name="LMONO"> F  </i>
    <i type="int" name="IDIPOL">     0</i>
    <i name="EPSILON">      1.00000000</i>
    <v name="DIPOL">   -100.00000000   -100.00000000   -100.00000000</v>
    <i name="EFIELD">      0.00000000</i>
   </separator>
  </separator>
  <separator name="grids" >
   <i type="int" name="NGX">    28</i>
   <i type="int" name="NGY">    28</i>
   <i type="int" name="NGZ">   120</i>
   <i type="int" name="NGXF">    56</i>
   <i type="int" name="NGYF">    56</i>
   <i type="int" name="NGZF">   240</i>
   <i type="logical" name="ADDGRID"> F  </i>
  </separator>
  <separator name="ionic" >
   <i type="int" name="NSW">    20</i>
   <i type="int" name="IBRION">     2</i>
   <i type="int" name="ISIF">     2</i>
   <i name="PSTRESS">      0.00000000</i>
   <i name="EDIFFG">      0.00100000</i>
   <i type="int" name="NFREE">     1</i>
   <i name="POTIM">      0.50000000</i>
   <i name="SMASS">     -3.00000000</i>
   <i name="SCALEE">      1.00000000</i>
  </separator>
  <separator name="ionic md" >
   <i name="TEBEG">      0.00010000</i>
   <i name="TEEND">      0.00010000</i>
   <i type="int" name="NBLOCK">     1</i>
   <i type="int" name="KBLOCK">    20</i>
   <i type="int" name="NPACO">   256</i>
   <i name="APACO">     16.00000000</i>
  </separator>
  <separator name="symmetry" >
   <i type="int" name="ISYM">     2</i>
   <i name="SYMPREC">      0.00001000</i>
  </separator>
  <separator name="dos" >
   <i type="logical" name="LORBIT"> F  </i>
   <v name="RWIGS">     -1.00000000</v>
   <i type="int" name="NEDOS">   301</i>
   <i name="EMIN">     10.00000000</i>
   <i name="EMAX">    -10.00000000</i>
   <i name="EFERMI">      0.00000000</i>
  </separator>
  <separator name="writing" >
   <i type="int" name="NWRITE">     2</i>
   <i type="logical" name="LWAVE"> F  </i>
   <i type="logical" name="LCHARG"> F  </i>
   <i type="logical" name="LPARD"> F  </i>
   <i type="logical" name="LVTOT"> F  </i>
   <i type="logical" name="LVHAR"> F  </i>
   <i type="logical" name="LELF"> F  </i>
   <i type="logical" name="LOPTICS"> F  </i>
   <v name="STM">      0.00000000      0.00000000      0.00000000      0.00000000      0.00000000      0.00000000      0.00000000</v>
  </separator>
  <separator name="performance" >
   <i type="int" name="NPAR">    24</i>
   <i type="int" name="NSIM">     4</i>
   <i type="int" name="NBLK">    -1</i>
   <i type="logical" name="LPLANE"> T  </i>
   <i type="logical" name="LSCALAPACK"> F  </i>
   <i type="logical" name="LSCAAWARE"> F  </i>
   <i type="logical" name="LSCALU"> F  </i>
   <i type="logical" name="LASYNC"> F  </i>
   <i type="logical" name="LORBITALREAL"> F  </i>
  </separator>
  <separator name="miscellaneous" >
   <i type="int" name="IDIOT">     3</i>
   <i type="logical" name="LMUSIC"> F  </i>
   <v name="POMASS">     63.54600000</v>
   <v name="DARWINR">      0.00000000</v>
   <v name="DARWINV">      1.00000000</v>
   <i type="logical" name="LCORR"> T  </i>
  </separator>
  <i type="logical" name="GGA_COMPAT"> T  </i>
  <i type="logical" name="LBERRY"> F  </i>
  <i type="int" name="ICORELEVEL">     0</i>
  <i type="logical" name="LDAU"> F  </i>
  <i type="int" name="I_CONSTRAINED_M">     0</i>
  <separator name="electronic exchange-correlation" >
   <i type="string" name="GGA">--</i>
   <i type="int" name="VOSKOWN">     0</i>
   <i type="logical" name="LHFCALC"> F  </i>
   <i type="string" name="PRECFOCK"></i>
   <i type="logical" name="LSYMGRAD"> F  </i>
   <i type="logical" name="LHFONE"> F  </i>
   <i type="logical" name="LRHFCALC"> F  </i>
   <i type="logical" name="LTHOMAS"> F  </i>
   <i type="logical" name="LMODELHF"> F  </i>
   <i name="ENCUT4O">     -1.00000000</i>
   <i type="int" name="EXXOEP">     0</i>
   <i type="int" name="FOURORBIT">     0</i>
   <i name="AEXX">      0.00000000</i>
   <i name="HFALPHA">      0.00000000</i>
   <i name="MCALPHA">      0.00000000</i>
   <i name="ALDAX">      1.00000000</i>
   <i name="AGGAX">      1.00000000</i>
   <i name="ALDAC">      1.00000000</i>
   <i name="AGGAC">      1.00000000</i>
   <i type="int" name="NKREDX">     1</i>
   <i type="int" name="NKREDY">     1</i>
   <i type="int" name="NKREDZ">     1</i>
   <i type="logical" name="SHIFTRED"> F  </i>
   <i type="logical" name="ODDONLY"> F  </i>
   <i type="logical" name="EVENONLY"> F  </i>
   <i type="int" name="LMAXFOCK">     0</i>
   <i type="int" name="NMAXFOCKAE">     0</i>
   <i type="logical" name="LFOCKAEDFT"> F  </i>
   <i name="HFSCREEN">      0.00000000</i>
   <i name="HFSCREENC">      0.00000000</i>
   <i type="int" name="NBANDSGWLOW">     0</i>
  </separator>
  <separator name="vdW DFT" >
   <i type="logical" name="LUSE_VDW"> F  </i>
   <i name="Zab_VDW">     -0.84910000</i>
   <i name="PARAM1">      0.12340000</i>
   <i name="PARAM2">      1.00000000</i>
   <i name="PARAM3">      0.00000000</i>
  </separator>
  <separator name="model GW" >
   <i type="int" name="MODEL_GW">     0</i>
   <i name="MODEL_EPS0">     27.70554312</i>
   <i name="MODEL_ALPHA">      1.00000000</i>
  </separator>
  <separator name="linear response parameters" >
   <i type="logical" name="LEPSILON"> F  </i>
   <i type="logical" name="LRPA"> F  </i>
   <i type="logical" name="LNABLA"> F  </i>
   <i type="logical" name="LVEL"> F  </i>
   <i type="int" name="KINTER">     0</i>
   <i name="CSHIFT">      0.10000000</i>
   <i name="OMEGAMAX">     -1.00000000</i>
   <i name="DEG_THRESHOLD">      0.00200000</i>
  </separator>
  <separator name="orbital magnetization" >
   <i type="logical" name="NUCIND"> F  </i>
   <v name="MAGPOS">      0.00000000      0.00000000      0.00000000</v>
   <i type="logical" name="LNICSALL"> T  </i>
   <i type="logical" name="ORBITALMAG"> F  </i>
   <i type="logical" name="LMAGBLOCH"> F  </i>
   <i type="logical" name="LCHIMAG"> F  </i>
   <i type="logical" name="LGAUGE"> T  </i>
   <i type="int" name="MAGATOM">     0</i>
   <v name="MAGDIPOL">      0.00000000      0.00000000      0.00000000</v>
   <v name="AVECCONST">      0.00000000      0.00000000      0.00000000</v>
  </separator>
  <separator name="response functions" >
   <i type="logical" name="LADDER"> F  </i>
   <i type="logical" name="LFXC"> F  </i>
   <i type="logical" name="LHARTREE"> T  </i>
   <i type="int" name="IBSE">     0</i>
   <v type="int" name="KPOINT">    -1     0     0     0</v>
   <i type="logical" name="LTCTE"> F  </i>
   <i type="logical" name="LTETE"> F  </i>
   <i type="logical" name="LTRIPLET"> F  </i>
   <i type="logical" name="LFXCEPS"> F  </i>
   <i type="logical" name="LFXHEG"> F  </i>
   <i type="int" name="NATURALO">     0</i>
   <i type="logical" name="L2ORDER"> F  </i>
   <i type="logical" name="LUSEW"> F  </i>
   <i name="ENCUTGW">     -2.00000000</i>
   <i name="ENCUTGWSOFT">     -2.00000000</i>
   <i name="ENCUTLF">     -1.00000000</i>
   <i type="int" name="LMAXMP2">    -1</i>
   <i name="SCISSOR">      0.00000000</i>
   <i type="int" name="NOMEGA">     0</i>
   <i type="int" name="NOMEGAR">     0</i>
   <i type="int" name="NBANDSGW">    -1</i>
   <i type="int" name="NBANDSO">    -1</i>
   <i type="int" name="NBANDSV">    -1</i>
   <i type="int" name="NELM">     1</i>
   <i type="int" name="NELMHF">     1</i>
   <i type="int" name="DIM">     3</i>
   <i type="int" name="ANTIRES">     0</i>
   <i name="OMEGAMAX">    -30.00000000</i>
   <i name="OMEGAMIN">    -30.00000000</i>
   <i name="OMEGATL">   -200.00000000</i>
   <i type="int" name="OMEGAGRID">     0</i>
   <i name="CSHIFT">     -0.10000000</i>
   <i type="logical" name="SELFENERGY"> F  </i>
   <i type="logical" name="LSPECTRAL"> F  </i>
   <i type="logical" name="LSPECTRALGW"> F  </i>
   <i type="logical" name="LSINGLES"> F  </i>
   <i type="logical" name="LFERMIGW"> F  </i>
   <i type="logical" name="ODDONLYGW"> F  </i>
   <i type="logical" name="EVENONLYGW"> F  </i>
   <i type="int" name="NKREDLFX">     1</i>
   <i type="int" name="NKREDLFY">     1</i>
   <i type="int" name="NKREDLFZ">     1</i>
   <i type="int" name="MAXMEM">  1800</i>
   <i type="int" name="TELESCOPE">     0</i>
   <i type="int" name="TAUPAR">     1</i>
   <i type="int" name="OMEGAPAR">    -1</i>
   <i name="LAMBDA">      1.00000000</i>
  </separator>
  <separator name="External order field" >
   <i name="OFIELD_KAPPA">      0.00000000</i>
   <v name="OFIELD_K">      0.00000000      0.00000000      0.00000000</v>
   <i name="OFIELD_Q6_NEAR">      0.00000000</i>
   <i name="OFIELD_Q6_FAR">      0.00000000</i>
   <i name="OFIELD_A">      0.00000000</i>
  </separator>
 </parameters>
 <atominfo>
  <atoms>      12 </atoms>
  <types>       1 </types>
  <array name="atoms" >
   <dimension dim="1">ion</dimension>
   <field type="string">element</field>
   <field type="int">atomtype</field>
   <set>
    <rc><c>Cu</c><c>   1</c></rc>
    <rc><c>Cu</c><c>   1</c></rc>
    <rc><c>Cu</c><c>   1</c></rc>
    <rc><c>Cu</c><c>   1</c></rc>
    <rc><c>Cu</c><c>   1</c></rc>
    <rc><c>Cu</c><c>   1</c></rc>
    <rc><c>Cu</c><c>   1</c></rc>
    <rc><c>Cu</c><c>   1</c></rc>
    <rc><c>Cu</c><c>   1</c></rc>
    <rc><c>Cu</c><c>   1</c></rc>
    <rc><c>Cu</c><c>   1</c></rc>
    <rc><c>Cu</c><c>   1</c></rc>
   </set>
  </array>
  <array name="atomtypes" >
   <dimension dim="1">type</dimension>
   <field type="int">atomspertype</field>
   <field type="string">element</field>
   <field>mass</field>
   <field>valence</field>
   <field type="string">pseudopotential</field>
   <set>
    <rc><c>  12</c><c>Cu</c><c>     63.54600000</c><c>     11.00000000</c><c>  PAW_PBE Cu 22Jun2005                  </c></rc>
   </set>
  </array>
 </atominfo>
 <structure name="initialpos" >
  <crystal>
   <varray name="basis" >
    <v>       5.14208051       0.00000000       0.00000000 </v>
    <v>       2.57104026       4.45317235       0.00000000 </v>
    <v>       0.00000000       0.00000000      24.19849116 </v>
   </varray>
   <i name="volume">    554.11086238 </i>
   <varray name="rec_basis" >
    <v>       0.19447381      -0.11227951       0.00000000 </v>
    <v>       0.00000000       0.22455902       0.00000000 </v>
    <v>       0.00000000       0.00000000       0.04132489 </v>
   </varray>
  </crystal>
  <varray name="positions" >
   <v>       0.16666667       0.16666667       0.41324891 </v>
   <v>       0.66666667       0.16666667       0.41324891 </v>
   <v>       0.16666667       0.66666667       0.41324891 </v>
   <v>       0.66666667       0.66666667       0.41324891 </v>
   <v>       0.83333333       0.33333333       0.50000000 </v>
   <v>       0.33333333       0.33333333       0.50000000 </v>
   <v>       0.83333333       0.83333333       0.50000000 </v>
   <v>       0.33333333       0.83333333       0.50000000 </v>
   <v>       0.00000000       0.00000000       0.58675109 </v>
   <v>       0.50000000       0.00000000       0.58675109 </v>
   <v>       0.00000000       0.50000000       0.58675109 </v>
   <v>       0.50000000       0.50000000       0.58675109 </v>
  </varray>
 </structure>
 <calculation>
  <scstep>
   <time name="dav">    2.90    2.91</time>
   <time name="total">    2.94    2.95</time>
   <energy>
    <i name="alphaZ">    190.05445386 </i>
    <i name="ewald">  65780.02233180 </i>
    <i name="hartreedc"> -81541.30646892 </i>
    <i name="XCdc">    545.02175052 </i>
    <i name="pawpsdc">  14738.47991854 </i>
    <i name="pawaedc"> -16008.58160551 </i>
    <i name="eentropy">     -0.00025447 </i>
    <i name="bandstr">    592.81200498 </i>
    <i name="atom">  16691.49168240 </i>
    <i name="e_fr_energy">    987.99381319 </i>
    <i name="e_wo_entrp">    987.99406766 </i>
    <i name="e_0_energy">    987.99389802 </i>
   </energy>
  </scstep>
  <scstep>
   <time name="dav">    2.98    2.98</time>
   <time name="total">    2.98    2.98</time>
   <energy>
    <i name="e_fr_energy">      9.28455226 </i>
    <i name="e_wo_entrp">      9.29116883 </i>
    <i name="e_0_energy">      9.28675778 </i>
   </energy>
  </scstep>
  <scstep>
   <time name="dav">    3.62    3.68</time>
   <time name="total">    3.62    3.68</time>
   <energy>
    <i name="e_fr_energy">    -48.84354289 </i>
    <i name="e_wo_entrp">    -48.84561098 </i>
    <i name="e_0_energy">    -48.84423225 </i>
   </energy>
  </scstep>
  <scstep>
   <time name="dav">    3.41    3.41</time>
   <time name="total">    3.41    3.41</time>
   <energy>
    <i name="e_fr_energy">    -50.30195880 </i>
    <i name="e_wo_entrp">    -50.30392548 </i>
    <i name="e_0_energy">    -50.30261436 </i>
   </energy>
  </scstep>
  <scstep>
   <time name="dav">    3.61    3.61</time>
   <time name="total">    3.73    3.75</time>
   <energy>
    <i name="e_fr_energy">    -50.33908544 </i>
    <i name="e_wo_entrp">    -50.34105456 </i>
    <i name="e_0_energy">    -50.33974181 </i>
   </energy>
  </scstep>
  <scstep>
   <time name="dav">    3.45    3.45</time>
   <time name="total">    3.58    3.59</time>
   <energy>
    <i name="e_fr_energy">    -46.55455084 </i>
    <i name="e_wo_entrp">    -46.54986735 </i>
    <i name="e_0_energy">    -46.55298968 </i>
   </energy>
  </scstep>
  <scstep>
   <time name="dav">    3.45    3.46</time>
   <time name="total">    3.59    3.59</time>
   <energy>
    <i name="e_fr_energy">    -41.03421976 </i>
    <i name="e_wo_entrp">    -41.02430786 </i>
    <i name="e_0_energy">    -41.03091579 </i>
   </energy>
  </scstep>
  <scstep>
   <time name="dav">    3.79    3.80</time>
   <time name="total">    3.93    3.94</time>
   <energy>
    <i name="e_fr_energy">    -41.04229530 </i>
    <i name="e_wo_entrp">    -41.01586668 </i>
    <i name="e_0_energy">    -41.03348576 </i>
   </energy>
  </scstep>
  <scstep>
   <time name="dav">    3.35    3.35</time>
   <time name="total">    3.48    3.48</time>
   <energy>
    <i name="e_fr_energy">    -40.98268096 </i>
    <i name="e_wo_entrp">    -40.95920178 </i>
    <i name="e_0_energy">    -40.97485456 </i>
   </energy>
  </scstep>
  <scstep>
   <time name="dav">    6.91    6.91</time>
   <time name="total">    7.04    7.04</time>
   <energy>
    <i name="e_fr_energy">    -40.93859364 </i>
    <i name="e_wo_entrp">    -40.91954512 </i>
    <i name="e_0_energy">    -40.93224413 </i>
   </energy>
  </scstep>
  <scstep>
   <time name="dav">    3.65    3.65</time>
   <time name="total">    3.79    3.79</time>
   <energy>
    <i name="e_fr_energy">    -40.93511390 </i>
    <i name="e_wo_entrp">    -40.91423137 </i>
    <i name="e_0_energy">    -40.92815305 </i>
   </energy>
  </scstep>
  <scstep>
   <time name="dav">    3.60    3.60</time>
   <time name="total">    3.73    3.73</time>
   <energy>
    <i name="e_fr_energy">    -40.93362935 </i>
    <i name="e_wo_entrp">    -40.91326406 </i>
    <i name="e_0_energy">    -40.92684092 </i>
   </energy>
  </scstep>
  <scstep>
   <time name="dav">    4.07    4.07</time>
   <time name="total">    4.20    4.20</time>
   <energy>
    <i name="e_fr_energy">    -40.93362582 </i>
    <i name="e_wo_entrp">    -40.91396809 </i>
    <i name="e_0_energy">    -40.92707324 </i>
   </energy>
  </scstep>
  <scstep>
   <time name="dav">    3.13    3.13</time>
   <time name="total">    3.26    3.26</time>
   <energy>
    <i name="e_fr_energy">    -40.93378282 </i>
    <i name="e_wo_entrp">    -40.91355453 </i>
    <i name="e_0_energy">    -40.92704006 </i>
   </energy>
  </scstep>
  <scstep>
   <time name="dav">    2.51    2.51</time>
   <time name="total">    2.64    2.64</time>
   <energy>
    <i name="e_fr_energy">    -40.93444579 </i>
    <i name="e_wo_entrp">    -40.91429206 </i>
    <i name="e_0_energy">    -40.92772788 </i>
   </energy>
  </scstep>
  <scstep>
   <time name="dav">    2.49    2.49</time>
   <time name="total">    2.62    2.62</time>
   <energy>
    <i name="e_fr_energy">    -40.93483000 </i>
    <i name="e_wo_entrp">    -40.91485567 </i>
    <i name="e_0_energy">    -40.92817189 </i>
   </energy>
  </scstep>
  <scstep>
   <time name="dav">    2.39    2.39</time>
   <time name="total">    2.52    2.52</time>
   <energy>
    <i name="e_fr_energy">    -40.93510657 </i>
    <i name="e_wo_entrp">    -40.91509490 </i>
    <i name="e_0_energy">    -40.92843601 </i>
   </energy>
  </scstep>
  <scstep>
   <time name="dav">    2.46    2.46</time>
   <time name="total">    2.49    2.49</time>
   <energy>
    <i name="alphaZ">    190.05445386 </i>
    <i name="ewald">  65780.02233180 </i>
    <i name="hartreedc"> -81380.54072680 </i>
    <i name="XCdc">    533.37226624 </i>
    <i name="pawpsdc">  15546.66320377 </i>
    <i name="pawaedc"> -16836.51245501 </i>
    <i name="eentropy">     -0.02005163 </i>
    <i name="bandstr">   -565.46588198 </i>
    <i name="atom">  16691.49168240 </i>
    <i name="e_fr_energy">    -40.93517736 </i>
    <i name="e_wo_entrp">    -40.91512573 </i>
    <i name="e_0_energy">    -40.92849348 </i>
   </energy>
  </scstep>
  <structure>
   <crystal>
    <varray name="basis" >
     <v>       5.14208051       0.00000000       0.00000000 </v>
     <v>       2.57104026       4.45317235       0.00000000 </v>
     <v>       0.00000000       0.00000000      24.19849116 </v>
    </varray>
    <i name="volume">    554.11086238 </i>
    <varray name="rec_basis" >
     <v>       0.19447381      -0.11227951       0.00000000 </v>
     <v>       0.00000000       0.22455902       0.00000000 </v>
     <v>       0.00000000       0.00000000       0.04132489 </v>
    </varray>
   </crystal>
   <varray name="positions" >
    <v>       0.16666667       0.16666667       0.41324891 </v>
    <v>       0.66666667       0.16666667       0.41324891 </v>
    <v>       0.16666667       0.66666667       0.41324891 </v>
    <v>       0.66666667       0.66666667       0.41324891 </v>
    <v>       0.83333333       0.33333333       0.50000000 </v>
    <v>       0.33333333       0.33333333       0.50000000 </v>
    <v>       0.83333333       0.83333333       0.50000000 </v>
    <v>       0.33333333       0.83333333       0.50000000 </v>
    <v>       0.00000000       0.00000000       0.58675109 </v>
    <v>       0.50000000       0.00000000       0.58675109 </v>
    <v>       0.00000000       0.50000000       0.58675109 </v>
    <v>       0.50000000       0.50000000       0.58675109 </v>
   </varray>
  </structure>
  <varray name="forces" >
   <v>       0.00000000       0.00000000       0.11021997 </v>
   <v>       0.00000000      -0.00000000       0.11021997 </v>
   <v>       0.00000000       0.00000000       0.11021997 </v>
   <v>       0.00000000       0.00000000       0.11021997 </v>
   <v>      -0.00000000       0.00000000       0.00000000 </v>
   <v>       0.00000000       0.00000000       0.00000000 </v>
   <v>      -0.00000000       0.00000000       0.00000000 </v>
   <v>      -0.00000000       0.00000000       0.00000000 </v>
   <v>      -0.00000000      -0.00000000      -0.11021997 </v>
   <v>      -0.00000000      -0.00000000      -0.11021997 </v>
   <v>      -0.00000000      -0.00000000      -0.11021997 </v>
   <v>      -0.00000000       0.00000000      -0.11021997 </v>
  </varray>
  <varray name="stress" >
   <v>     -15.60731654       0.00000000       0.00000000 </v>
   <v>       0.00000000     -15.60731654      -0.00000000 </v>
   <v>       0.00000000       0.00000000      -8.18568849 </v>
  </varray>
  <energy>
   <i name="e_fr_energy">    -40.93517736 </i>
   <i name="e_wo_entrp">    -40.92849348 </i>
   <i name="e_0_energy">     -0.02005163 </i>
  </energy>
  <time name="totalsc">   68.27   68.55</time>
 </calculation>
 <calculation>
  <scstep>
   <time name="dav">    2.83    2.83</time>
   <time name="total">    2.96    2.96</time>
   <energy>
    <i name="alphaZ">    190.05445386 </i>
    <i name="ewald">  65899.78783884 </i>
    <i name="hartreedc"> -81499.90412080 </i>
    <i name="XCdc">    533.43086514 </i>
    <i name="pawpsdc">  15546.46824949 </i>
    <i name="pawaedc"> -16836.31831596 </i>
    <i name="eentropy">     -0.01984298 </i>
    <i name="bandstr">   -565.92851994 </i>
    <i name="atom">  16691.49168240 </i>
    <i name="e_fr_energy">    -40.93770996 </i>
    <i name="e_wo_entrp">    -40.91786698 </i>
    <i name="e_0_energy">    -40.93109563 </i>
   </energy>
  </scstep>
  <scstep>
   <time name="dav">    3.70    3.71</time>
   <time name="total">    3.83    3.84</time>
   <energy>
    <i name="e_fr_energy">    -40.93962511 </i>
    <i name="e_wo_entrp">    -40.91929588 </i>
    <i name="e_0_energy">    -40.93284870 </i>
   </energy>
  </scstep>
  <scstep>
   <time name="dav">    3.21    3.21</time>
   <time name="total">    3.34    3.34</time>
   <energy>
    <i name="e_fr_energy">    -40.93954718 </i>
    <i name="e_wo_entrp">    -40.91948975 </i>
    <i name="e_0_energy">    -40.93286137 </i>
   </energy>
  </scstep>
  <scstep>
   <time name="dav">    2.25    2.25</time>
   <time name="total">    2.28    2.28</time>
   <energy>
    <i name="alphaZ">    190.05445386 </i>
    <i name="ewald">  65899.78783884 </i>
    <i name="hartreedc"> -81500.04486323 </i>
    <i name="XCdc">    533.41547084 </i>
    <i name="pawpsdc">  15550.29312308 </i>
    <i name="pawaedc"> -16840.15958680 </i>
    <i name="eentropy">     -0.02019411 </i>
    <i name="bandstr">   -565.75745940 </i>
    <i name="atom">  16691.49168240 </i>
    <i name="e_fr_energy">    -40.93953453 </i>
    <i name="e_wo_entrp">    -40.91934041 </i>
    <i name="e_0_energy">    -40.93280315 </i>
   </energy>
  </scstep>
  <structure>
   <crystal>
    <varray name="basis" >
     <v>       5.14208051       0.00000000       0.00000000 </v>
     <v>       2.57104026       4.45317235       0.00000000 </v>
     <v>       0.00000000       0.00000000      24.19849116 </v>
    </varray>
    <i name="volume">    554.11086238 </i>
    <varray name="rec_basis" >
     <v>       0.19447381      -0.11227951       0.00000000 </v>
     <v>       0.00000000       0.22455902       0.00000000 </v>
     <v>       0.00000000       0.00000000       0.04132489 </v>
    </varray>
   </crystal>
   <varray name="positions" >
    <v>       0.16666667       0.16666667       0.41346864 </v>
    <v>       0.66666667       0.16666667       0.41346864 </v>
    <v>       0.16666667       0.66666667       0.41346864 </v>
    <v>       0.66666667       0.66666667       0.41346864 </v>
    <v>       0.83333333       0.33333333       0.50000000 </v>
    <v>       0.33333333       0.33333333       0.50000000 </v>
    <v>       0.83333333       0.83333333       0.50000000 </v>
    <v>       0.33333333       0.83333333       0.50000000 </v>
    <v>      -0.00000000      -0.00000000       0.58653136 </v>
    <v>       0.50000000      -0.00000000       0.58653136 </v>
    <v>      -0.00000000       0.50000000       0.58653136 </v>
    <v>       0.50000000       0.50000000       0.58653136 </v>
   </varray>
  </structure>
  <varray name="forces" >
   <v>       0.00000000       0.00000000       0.08821983 </v>
   <v>       0.00000000       0.00000000       0.08821983 </v>
   <v>       0.00000000       0.00000000       0.08821983 </v>
   <v>       0.00000000       0.00000000       0.08821983 </v>
   <v>       0.00000000      -0.00000000       0.00000000 </v>
   <v>      -0.00000000       0.00000000       0.00000000 </v>
   <v>      -0.00000000      -0.00000000       0.00000000 </v>
   <v>       0.00000000      -0.00000000       0.00000000 </v>
   <v>      -0.00000000      -0.00000000      -0.08821983 </v>
   <v>      -0.00000000      -0.00000000      -0.08821983 </v>
   <v>      -0.00000000      -0.00000000      -0.08821983 </v>
   <v>      -0.00000000      -0.00000000      -0.08821983 </v>
  </varray>
  <varray name="stress" >
   <v>     -13.59054610       0.00000000       0.00000000 </v>
   <v>       0.00000000     -13.59054610       0.00000000 </v>
   <v>       0.00000000      -0.00000000      -5.63740062 </v>
  </varray>
  <energy>
   <i name="e_fr_energy">    -40.93953453 </i>
   <i name="e_wo_entrp">    -40.93280315 </i>
   <i name="e_0_energy">     -0.02019411 </i>
  </energy>
  <time name="totalsc">   17.28   17.31</time>
 </calculation>
 <calculation>
  <scstep>
   <time name="dav">    2.95    2.95</time>
   <time name="total">    3.16    3.16</time>
   <energy>
    <i name="alphaZ">    190.05445386 </i>
    <i name="ewald">  66259.66975178 </i>
    <i name="hartreedc"> -81858.42553600 </i>
    <i name="XCdc">    533.59319105 </i>
    <i name="pawpsdc">  15552.76353783 </i>
    <i name="pawaedc"> -16842.72175880 </i>
    <i name="eentropy">     -0.01821336 </i>
    <i name="bandstr">   -567.33728588 </i>
    <i name="atom">  16691.49168240 </i>
    <i name="e_fr_energy">    -40.93017712 </i>
    <i name="e_wo_entrp">    -40.91196376 </i>
    <i name="e_0_energy">    -40.92410600 </i>
   </energy>
  </scstep>
  <scstep>
   <time name="dav">    3.83    3.83</time>
   <time name="total">    3.96    3.96</time>
   <energy>
    <i name="e_fr_energy">    -40.94990972 </i>
    <i name="e_wo_entrp">    -40.92937154 </i>
    <i name="e_0_energy">    -40.94306366 </i>
   </energy>
  </scstep>
  <scstep>
   <time name="dav">    3.23    3.23</time>
   <time name="total">    3.36    3.36</time>
   <energy>
    <i name="e_fr_energy">    -40.94841638 </i>
    <i name="e_wo_entrp">    -40.92921467 </i>
    <i name="e_0_energy">    -40.94201581 </i>
   </energy>
  </scstep>
  <scstep>
   <time name="dav">    2.98    2.98</time>
   <time name="total">    3.11    3.11</time>
   <energy>
    <i name="e_fr_energy">    -40.94825564 </i>
    <i name="e_wo_entrp">    -40.92856989 </i>
    <i name="e_0_energy">    -40.94169373 </i>
   </energy>
  </scstep>
  <scstep>
   <time name="dav">    3.79    3.79</time>
   <time name="total">    3.92    3.92</time>
   <energy>
    <i name="e_fr_energy">    -40.94794028 </i>
    <i name="e_wo_entrp">    -40.92852098 </i>
    <i name="e_0_energy">    -40.94146718 </i>
   </energy>
  </scstep>
  <scstep>
   <time name="dav">    2.38    2.38</time>
   <time name="total">    2.41    2.42</time>
   <energy>
    <i name="alphaZ">    190.05445386 </i>
    <i name="ewald">  66259.66975178 </i>
    <i name="hartreedc"> -81858.79662708 </i>
    <i name="XCdc">    533.54244929 </i>
    <i name="pawpsdc">  15573.39623770 </i>
    <i name="pawaedc"> -16863.75749504 </i>
    <i name="eentropy">     -0.01952959 </i>
    <i name="bandstr">   -566.52891910 </i>
    <i name="atom">  16691.49168240 </i>
    <i name="e_fr_energy">    -40.94799578 </i>
    <i name="e_wo_entrp">    -40.92846619 </i>
    <i name="e_0_energy">    -40.94148591 </i>
   </energy>
  </scstep>
  <structure>
   <crystal>
    <varray name="basis" >
     <v>       5.14208051       0.00000000       0.00000000 </v>
     <v>       2.57104026       4.45317235       0.00000000 </v>
     <v>       0.00000000       0.00000000      24.19849116 </v>
    </varray>
    <i name="volume">    554.11086238 </i>
    <varray name="rec_basis" >
     <v>       0.19447381      -0.11227951       0.00000000 </v>
     <v>       0.00000000       0.22455902       0.00000000 </v>
     <v>       0.00000000       0.00000000       0.04132489 </v>
    </varray>
   </crystal>
   <varray name="positions" >
    <v>       0.16666667       0.16666667       0.41412785 </v>
    <v>       0.66666667       0.16666667       0.41412785 </v>
    <v>       0.16666667       0.66666667       0.41412785 </v>
    <v>       0.66666667       0.66666667       0.41412785 </v>
    <v>       0.83333333       0.33333333       0.50000000 </v>
    <v>       0.33333333       0.33333333       0.50000000 </v>
    <v>       0.83333333       0.83333333       0.50000000 </v>
    <v>       0.33333333       0.83333333       0.50000000 </v>
    <v>      -0.00000000      -0.00000000       0.58587215 </v>
    <v>       0.50000000      -0.00000000       0.58587215 </v>
    <v>      -0.00000000       0.50000000       0.58587215 </v>
    <v>       0.50000000       0.50000000       0.58587215 </v>
   </varray>
  </structure>
  <varray name="forces" >
   <v>       0.00000000      -0.00000000       0.04702672 </v>
   <v>       0.00000000      -0.00000000       0.04702672 </v>
   <v>       0.00000000      -0.00000000       0.04702672 </v>
   <v>      -0.00000000      -0.00000000       0.04702672 </v>
   <v>       0.00000000       0.00000000       0.00000000 </v>
   <v>       0.00000000      -0.00000000       0.00000000 </v>
   <v>      -0.00000000      -0.00000000       0.00000000 </v>
   <v>       0.00000000       0.00000000       0.00000000 </v>
   <v>      -0.00000000       0.00000000      -0.04702672 </v>
   <v>      -0.00000000       0.00000000      -0.04702672 </v>
   <v>      -0.00000000       0.00000000      -0.04702672 </v>
   <v>      -0.00000000       0.00000000      -0.04702672 </v>
  </varray>
  <varray name="stress" >
   <v>     -15.64982497       0.00000000       0.00000000 </v>
   <v>       0.00000000     -15.64982497      -0.00000000 </v>
   <v>       0.00000000       0.00000000      -6.50072455 </v>
  </varray>
  <energy>
   <i name="e_fr_energy">    -40.94799578 </i>
   <i name="e_wo_entrp">    -40.94148591 </i>
   <i name="e_0_energy">     -0.01952959 </i>
  </energy>
  <time name="totalsc">   24.50   24.53</time>
 </calculation>
 <calculation>
  <scstep>
   <time name="dav">    2.96    2.96</time>
   <time name="total">    3.09    3.09</time>
   <energy>
    <i name="alphaZ">    190.05445386 </i>
    <i name="ewald">  66982.05443326 </i>
    <i name="hartreedc"> -82578.51311880 </i>
    <i name="XCdc">    533.92032831 </i>
    <i name="pawpsdc">  15573.17541443 </i>
    <i name="pawaedc"> -16863.48626684 </i>
    <i name="eentropy">     -0.01016166 </i>
    <i name="bandstr">   -569.55482583 </i>
    <i name="atom">  16691.49168240 </i>
    <i name="e_fr_energy">    -40.86806088 </i>
    <i name="e_wo_entrp">    -40.85789921 </i>
    <i name="e_0_energy">    -40.86467366 </i>
   </energy>
  </scstep>
  <scstep>
   <time name="dav">    3.94    3.94</time>
   <time name="total">    4.06    4.08</time>
   <energy>
    <i name="e_fr_energy">    -40.95747362 </i>
    <i name="e_wo_entrp">    -40.94035163 </i>
    <i name="e_0_energy">    -40.95176629 </i>
   </energy>
  </scstep>
  <scstep>
   <time name="dav">    3.39    3.39</time>
   <time name="total">    3.52    3.52</time>
   <energy>
    <i name="e_fr_energy">    -40.94845189 </i>
    <i name="e_wo_entrp">    -40.93530625 </i>
    <i name="e_0_energy">    -40.94407001 </i>
   </energy>
  </scstep>
  <scstep>
   <time name="dav">    3.13    3.14</time>
   <time name="total">    3.26    3.27</time>
   <energy>
    <i name="e_fr_energy">    -40.94764262 </i>
    <i name="e_wo_entrp">    -40.93354538 </i>
    <i name="e_0_energy">    -40.94294354 </i>
   </energy>
  </scstep>
  <scstep>
   <time name="dav">    3.89    3.89</time>
   <time name="total">    4.02    4.04</time>
   <energy>
    <i name="e_fr_energy">    -40.94574389 </i>
    <i name="e_wo_entrp">    -40.93250197 </i>
    <i name="e_0_energy">    -40.94132992 </i>
   </energy>
  </scstep>
  <scstep>
   <time name="dav">    3.77    3.77</time>
   <time name="total">    3.90    3.91</time>
   <energy>
    <i name="e_fr_energy">    -40.94582475 </i>
    <i name="e_wo_entrp">    -40.93238564 </i>
    <i name="e_0_energy">    -40.94134505 </i>
   </energy>
  </scstep>
  <scstep>
   <time name="dav">    2.22    2.22</time>
   <time name="total">    2.25    2.26</time>
   <energy>
    <i name="alphaZ">    190.05445386 </i>
    <i name="ewald">  66982.05443326 </i>
    <i name="hartreedc"> -82579.05015046 </i>
    <i name="XCdc">    533.80691574 </i>
    <i name="pawpsdc">  15616.29949312 </i>
    <i name="pawaedc"> -16907.36722777 </i>
    <i name="eentropy">     -0.01337371 </i>
    <i name="bandstr">   -568.22200460 </i>
    <i name="atom">  16691.49168240 </i>
    <i name="e_fr_energy">    -40.94577817 </i>
    <i name="e_wo_entrp">    -40.93240446 </i>
    <i name="e_0_energy">    -40.94132027 </i>
   </energy>
  </scstep>
  <structure>
   <crystal>
    <varray name="basis" >
     <v>       5.14208051       0.00000000       0.00000000 </v>
     <v>       2.57104026       4.45317235       0.00000000 </v>
     <v>       0.00000000       0.00000000      24.19849116 </v>
    </varray>
    <i name="volume">    554.11086238 </i>
    <varray name="rec_basis" >
     <v>       0.19447381      -0.11227951       0.00000000 </v>
     <v>       0.00000000       0.22455902       0.00000000 </v>
     <v>       0.00000000       0.00000000       0.04132489 </v>
    </varray>
   </crystal>
   <varray name="positions" >
    <v>       0.16666667       0.16666667       0.41544628 </v>
    <v>       0.66666667       0.16666667       0.41544628 </v>
    <v>       0.16666667       0.66666667       0.41544628 </v>
    <v>       0.66666667       0.66666667       0.41544628 </v>
    <v>       0.83333333       0.33333333       0.50000000 </v>
    <v>       0.33333333       0.33333333       0.50000000 </v>
    <v>       0.83333333       0.83333333       0.50000000 </v>
    <v>       0.33333333       0.83333333       0.50000000 </v>
    <v>      -0.00000000      -0.00000000       0.58455372 </v>
    <v>       0.50000000      -0.00000000       0.58455372 </v>
    <v>      -0.00000000       0.50000000       0.58455372 </v>
    <v>       0.50000000       0.50000000       0.58455372 </v>
   </varray>
  </structure>
  <varray name="forces" >
   <v>       0.00000000       0.00000000      -0.06279065 </v>
   <v>       0.00000000       0.00000000      -0.06279065 </v>
   <v>       0.00000000       0.00000000      -0.06279065 </v>
   <v>       0.00000000       0.00000000      -0.06279065 </v>
   <v>       0.00000000       0.00000000       0.00000000 </v>
   <v>       0.00000000      -0.00000000       0.00000000 </v>
   <v>       0.00000000       0.00000000       0.00000000 </v>
   <v>       0.00000000      -0.00000000       0.00000000 </v>
   <v>      -0.00000000      -0.00000000       0.06279065 </v>
   <v>      -0.00000000      -0.00000000       0.06279065 </v>
   <v>      -0.00000000      -0.00000000       0.06279065 </v>
   <v>      -0.00000000      -0.00000000       0.06279065 </v>
  </varray>
  <varray name="stress" >
   <v>     -10.86482008       0.00000000       0.00000000 </v>
   <v>       0.00000000     -10.86482008      -0.00000000 </v>
   <v>       0.00000000       0.00000000       1.35195237 </v>
  </varray>
  <energy>
   <i name="e_fr_energy">    -40.94577817 </i>
   <i name="e_wo_entrp">    -40.94132027 </i>
   <i name="e_0_energy">     -0.01337371 </i>
  </energy>
  <time name="totalsc">   28.91   29.00</time>
 </calculation>
 <calculation>
  <scstep>
   <time name="dav">    3.12    3.12</time>
   <time name="total">    3.29    3.32</time>
   <energy>
    <i name="alphaZ">    190.05445386 </i>
    <i name="ewald">  66568.58751052 </i>
    <i name="hartreedc"> -82167.49553002 </i>
    <i name="XCdc">    533.59977512 </i>
    <i name="pawpsdc">  15616.46500848 </i>
    <i name="pawaedc"> -16907.52719731 </i>
    <i name="eentropy">     -0.01920770 </i>
    <i name="bandstr">   -566.08220583 </i>
    <i name="atom">  16691.49168240 </i>
    <i name="e_fr_energy">    -40.92571048 </i>
    <i name="e_wo_entrp">    -40.90650277 </i>
    <i name="e_0_energy">    -40.91930791 </i>
   </energy>
  </scstep>
  <scstep>
   <time name="dav">    3.84    3.84</time>
   <time name="total">    3.97    3.97</time>
   <energy>
    <i name="e_fr_energy">    -40.95215273 </i>
    <i name="e_wo_entrp">    -40.93596339 </i>
    <i name="e_0_energy">    -40.94675628 </i>
   </energy>
  </scstep>
  <scstep>
   <time name="dav">    3.52    3.53</time>
   <time name="total">    3.65    3.67</time>
   <energy>
    <i name="e_fr_energy">    -40.95123797 </i>
    <i name="e_wo_entrp">    -40.93397607 </i>
    <i name="e_0_energy">    -40.94548400 </i>
   </energy>
  </scstep>
  <scstep>
   <time name="dav">    3.30    3.31</time>
   <time name="total">    3.44    3.44</time>
   <energy>
    <i name="e_fr_energy">    -40.95083921 </i>
    <i name="e_wo_entrp">    -40.93386606 </i>
    <i name="e_0_energy">    -40.94518149 </i>
   </energy>
  </scstep>
  <scstep>
   <time name="dav">    4.44    4.45</time>
   <time name="total">    4.58    4.59</time>
   <energy>
    <i name="e_fr_energy">    -40.95043804 </i>
    <i name="e_wo_entrp">    -40.93244476 </i>
    <i name="e_0_energy">    -40.94444028 </i>
   </energy>
  </scstep>
  <scstep>
   <time name="dav">    4.78    4.79</time>
   <time name="total">    4.91    4.93</time>
   <energy>
    <i name="e_fr_energy">    -40.95039318 </i>
    <i name="e_wo_entrp">    -40.93273079 </i>
    <i name="e_0_energy">    -40.94450572 </i>
   </energy>
  </scstep>
  <scstep>
   <time name="dav">    2.30    2.30</time>
   <time name="total">    2.33    2.33</time>
   <energy>
    <i name="alphaZ">    190.05445386 </i>
    <i name="ewald">  66568.58751052 </i>
    <i name="hartreedc"> -82167.12504343 </i>
    <i name="XCdc">    533.65388023 </i>
    <i name="pawpsdc">  15591.46422006 </i>
    <i name="pawaedc"> -16882.10450164 </i>
    <i name="eentropy">     -0.01768123 </i>
    <i name="bandstr">   -566.95488685 </i>
    <i name="atom">  16691.49168240 </i>
    <i name="e_fr_energy">    -40.95036609 </i>
    <i name="e_wo_entrp">    -40.93268486 </i>
    <i name="e_0_energy">    -40.94447234 </i>
   </energy>
  </scstep>
  <structure>
   <crystal>
    <varray name="basis" >
     <v>       5.14208051       0.00000000       0.00000000 </v>
     <v>       2.57104026       4.45317235       0.00000000 </v>
     <v>       0.00000000       0.00000000      24.19849116 </v>
    </varray>
    <i name="volume">    554.11086238 </i>
    <varray name="rec_basis" >
     <v>       0.19447381      -0.11227951       0.00000000 </v>
     <v>       0.00000000       0.22455902       0.00000000 </v>
     <v>       0.00000000       0.00000000       0.04132489 </v>
    </varray>
   </crystal>
   <varray name="positions" >
    <v>       0.16666667       0.16666667       0.41469244 </v>
    <v>       0.66666667       0.16666667       0.41469244 </v>
    <v>       0.16666667       0.66666667       0.41469244 </v>
    <v>       0.66666667       0.66666667       0.41469244 </v>
    <v>       0.83333333       0.33333333       0.50000000 </v>
    <v>       0.33333333       0.33333333       0.50000000 </v>
    <v>       0.83333333       0.83333333       0.50000000 </v>
    <v>       0.33333333       0.83333333       0.50000000 </v>
    <v>      -0.00000000      -0.00000000       0.58530756 </v>
    <v>       0.50000000      -0.00000000       0.58530756 </v>
    <v>      -0.00000000       0.50000000       0.58530756 </v>
    <v>       0.50000000       0.50000000       0.58530756 </v>
   </varray>
  </structure>
  <varray name="forces" >
   <v>       0.00000000      -0.00000000       0.00431625 </v>
   <v>      -0.00000000      -0.00000000       0.00431625 </v>
   <v>      -0.00000000      -0.00000000       0.00431625 </v>
   <v>      -0.00000000      -0.00000000       0.00431625 </v>
   <v>      -0.00000000       0.00000000      -0.00000000 </v>
   <v>       0.00000000      -0.00000000      -0.00000000 </v>
   <v>      -0.00000000      -0.00000000      -0.00000000 </v>
   <v>       0.00000000       0.00000000      -0.00000000 </v>
   <v>       0.00000000      -0.00000000      -0.00431625 </v>
   <v>       0.00000000       0.00000000      -0.00431625 </v>
   <v>      -0.00000000       0.00000000      -0.00431625 </v>
   <v>       0.00000000       0.00000000      -0.00431625 </v>
  </varray>
  <varray name="stress" >
   <v>     -13.20363818       0.00000000       0.00000000 </v>
   <v>       0.00000000     -13.20363818       0.00000000 </v>
   <v>       0.00000000       0.00000000      -2.86776367 </v>
  </varray>
  <energy>
   <i name="e_fr_energy">    -40.95036609 </i>
   <i name="e_wo_entrp">    -40.94447234 </i>
   <i name="e_0_energy">     -0.01768123 </i>
  </energy>
  <time name="totalsc">   30.69   30.80</time>
  <eigenvalues>
   <array>
    <dimension dim="1">band</dimension>
    <dimension dim="2">kpoint</dimension>
    <dimension dim="3">spin</dimension>
    <field>eigene</field>
    <field>occ</field>
    <set>
     <set comment="spin 1">
      <set comment="kpoint 1">
       <r>  -10.0786    1.0000 </r>
       <r>   -8.1075    1.0000 </r>
       <r>   -6.5987    1.0000 </r>
       <r>   -6.1762    1.0000 </r>
       <r>   -6.1762    1.0000 </r>
       <r>   -6.1762    1.0000 </r>
       <r>   -5.9888    1.0000 </r>
       <r>   -5.9888    1.0000 </r>
       <r>   -5.9888    1.0000 </r>
       <r>   -5.6025    1.0000 </r>
       <r>   -5.6025    1.0000 </r>
       <r>   -5.6025    1.0000 </r>
       <r>   -5.5566    1.0000 </r>
       <r>   -5.5566    1.0000 </r>
       <r>   -5.5566    1.0000 </r>
       <r>   -4.9048    1.0000 </r>
       <r>   -4.9048    1.0000 </r>
       <r>   -4.9048    1.0000 </r>
       <r>   -4.5051    1.0000 </r>
       <r>   -4.5051    1.0000 </r>
       <r>   -4.5051    1.0000 </r>
       <r>   -4.4370    1.0000 </r>
       <r>   -4.4123    1.0000 </r>
       <r>   -4.4123    1.0000 </r>
       <r>   -4.3745    1.0000 </r>
       <r>   -4.2693    1.0000 </r>
       <r>   -4.2693    1.0000 </r>
       <r>   -4.2621    1.0000 </r>
       <r>   -4.2621    1.0000 </r>
       <r>   -4.2621    1.0000 </r>
       <r>   -4.1395    1.0000 </r>
       <r>   -4.1394    1.0000 </r>
       <r>   -4.0304    1.0000 </r>
       <r>   -4.0304    1.0000 </r>
       <r>   -4.0304    1.0000 </r>
       <r>   -3.6043    1.0000 </r>
       <r>   -3.6043    1.0000 </r>
       <r>   -3.5814    1.0000 </r>
       <r>   -3.5814    1.0000 </r>
       <r>   -3.5814    1.0000 </r>
       <r>   -3.5802    1.0000 </r>
       <r>   -3.5802    1.0000 </r>
       <r>   -3.5802    1.0000 </r>
       <r>   -3.3404    1.0000 </r>
       <r>   -3.3404    1.0000 </r>
       <r>   -3.1547    1.0000 </r>
       <r>   -3.1547    1.0000 </r>
       <r>   -3.1547    1.0000 </r>
       <r>   -3.1165    1.0000 </r>
       <r>   -3.1165    1.0000 </r>
       <r>   -3.1165    1.0000 </r>
       <r>   -3.0943    1.0000 </r>
       <r>   -3.0943    1.0000 </r>
       <r>   -3.0598    1.0000 </r>
       <r>   -3.0598    1.0000 </r>
       <r>   -3.0598    1.0000 </r>
       <r>   -3.0127    1.0000 </r>
       <r>   -2.9028    1.0000 </r>
       <r>   -2.9028    1.0000 </r>
       <r>   -2.9028    1.0000 </r>
       <r>   -2.8849    1.0000 </r>
       <r>   -2.8849    1.0000 </r>
       <r>   -2.8849    1.0000 </r>
       <r>   -1.5324    0.7143 </r>
       <r>   -1.4794    0.2824 </r>
       <r>   -1.4794    0.2824 </r>
       <r>   -1.4794    0.2821 </r>
       <r>   -0.3833   -0.0000 </r>
       <r>   -0.3833   -0.0000 </r>
       <r>   -0.3833   -0.0000 </r>
       <r>    0.0516   -0.0000 </r>
       <r>    0.0516   -0.0000 </r>
       <r>    0.0516   -0.0000 </r>
       <r>    2.6707    0.0000 </r>
       <r>    2.9067    0.0000 </r>
       <r>    2.9067    0.0000 </r>
       <r>    2.9067    0.0000 </r>
       <r>    3.0403    0.0000 </r>
       <r>    3.3669    0.0000 </r>
       <r>    4.0612    0.0000 </r>
       <r>    4.0612    0.0000 </r>
       <r>    4.0612    0.0000 </r>
       <r>    4.3546    0.0000 </r>
       <r>    4.7643    0.0000 </r>
       <r>    4.9012    0.0000 </r>
       <r>    4.9012    0.0000 </r>
       <r>    4.9012    0.0000 </r>
       <r>    6.5030    0.0000 </r>
       <r>    6.5902    0.0000 </r>
       <r>    7.5406    0.0000 </r>
       <r>    7.5406    0.0000 </r>
       <r>    7.5406    0.0000 </r>
       <r>    7.8323    0.0000 </r>
       <r>    7.8323    0.0000 </r>
       <r>    7.8323    0.0000 </r>
       <r>    9.0096    0.0000 </r>
      </set>
      <set comment="kpoint 2">
       <r>   -9.9815    1.0000 </r>
       <r>   -8.0159    1.0000 </r>
       <r>   -6.5263    1.0000 </r>
       <r>   -6.2660    1.0000 </r>
       <r>   -6.1548    1.0000 </r>
       <r>   -6.1548    1.0000 </r>
       <r>   -5.9891    1.0000 </r>
       <r>   -5.9561    1.0000 </r>
       <r>   -5.9561    1.0000 </r>
       <r>   -5.6105    1.0000 </r>
       <r>   -5.5854    1.0000 </r>
       <r>   -5.5854    1.0000 </r>
       <r>   -5.5001    1.0000 </r>
       <r>   -5.5001    1.0000 </r>
       <r>   -5.4981    1.0000 </r>
       <r>   -4.9016    1.0000 </r>
       <r>   -4.9016    1.0000 </r>
       <r>   -4.8960    1.0000 </r>
       <r>   -4.4915    1.0000 </r>
       <r>   -4.4907    1.0000 </r>
       <r>   -4.4880    1.0000 </r>
       <r>   -4.4880    1.0000 </r>
       <r>   -4.4402    1.0000 </r>
       <r>   -4.3965    1.0000 </r>
       <r>   -4.3797    1.0000 </r>
       <r>   -4.3096    1.0000 </r>
       <r>   -4.3096    1.0000 </r>
       <r>   -4.2517    1.0000 </r>
       <r>   -4.2459    1.0000 </r>
       <r>   -4.2376    1.0000 </r>
       <r>   -4.1526    1.0000 </r>
       <r>   -4.1060    1.0000 </r>
       <r>   -4.0759    1.0000 </r>
       <r>   -4.0492    1.0000 </r>
       <r>   -4.0492    1.0000 </r>
       <r>   -3.6578    1.0000 </r>
       <r>   -3.6578    1.0000 </r>
       <r>   -3.6239    1.0000 </r>
       <r>   -3.6227    1.0000 </r>
       <r>   -3.6155    1.0000 </r>
       <r>   -3.5808    1.0000 </r>
       <r>   -3.5702    1.0000 </r>
       <r>   -3.5702    1.0000 </r>
       <r>   -3.4840    1.0000 </r>
       <r>   -3.3399    1.0000 </r>
       <r>   -3.2121    1.0000 </r>
       <r>   -3.1931    1.0000 </r>
       <r>   -3.1930    1.0000 </r>
       <r>   -3.1718    1.0000 </r>
       <r>   -3.1609    1.0000 </r>
       <r>   -3.1461    1.0000 </r>
       <r>   -3.1461    1.0000 </r>
       <r>   -3.1125    1.0000 </r>
       <r>   -3.1124    1.0000 </r>
       <r>   -3.0932    1.0000 </r>
       <r>   -3.0837    1.0000 </r>
       <r>   -2.9983    1.0000 </r>
       <r>   -2.9983    1.0000 </r>
       <r>   -2.9454    1.0000 </r>
       <r>   -2.9454    1.0000 </r>
       <r>   -2.9396    1.0000 </r>
       <r>   -2.9230    1.0000 </r>
       <r>   -2.8001    1.0000 </r>
       <r>   -2.1449    1.0000 </r>
       <r>   -1.5088    0.5222 </r>
       <r>   -1.5087    0.5221 </r>
       <r>   -1.2970   -0.0059 </r>
       <r>   -1.0530   -0.0000 </r>
       <r>   -0.4662   -0.0000 </r>
       <r>   -0.4662   -0.0000 </r>
       <r>    0.4623   -0.0000 </r>
       <r>    0.4623   -0.0000 </r>
       <r>    0.7419   -0.0000 </r>
       <r>    2.7557    0.0000 </r>
       <r>    3.0768    0.0000 </r>
       <r>    3.0768    0.0000 </r>
       <r>    3.1360    0.0000 </r>
       <r>    3.1564    0.0000 </r>
       <r>    3.4565    0.0000 </r>
       <r>    3.9304    0.0000 </r>
       <r>    3.9304    0.0000 </r>
       <r>    3.9778    0.0000 </r>
       <r>    4.4491    0.0000 </r>
       <r>    4.8479    0.0000 </r>
       <r>    5.2417    0.0000 </r>
       <r>    5.2417    0.0000 </r>
       <r>    5.3570    0.0000 </r>
       <r>    6.5956    0.0000 </r>
       <r>    6.6756    0.0000 </r>
       <r>    6.9919    0.0000 </r>
       <r>    7.1545    0.0000 </r>
       <r>    7.1545    0.0000 </r>
       <r>    8.3416    0.0000 </r>
       <r>    8.4764    0.0000 </r>
       <r>    8.4764    0.0000 </r>
       <r>    9.0612    0.0000 </r>
      </set>
      <set comment="kpoint 3">
       <r>   -9.6936    1.0000 </r>
       <r>   -7.7479    1.0000 </r>
       <r>   -6.5784    1.0000 </r>
       <r>   -6.3198    1.0000 </r>
       <r>   -6.0934    1.0000 </r>
       <r>   -6.0934    1.0000 </r>
       <r>   -6.0051    1.0000 </r>
       <r>   -5.8642    1.0000 </r>
       <r>   -5.8642    1.0000 </r>
       <r>   -5.5794    1.0000 </r>
       <r>   -5.5183    1.0000 </r>
       <r>   -5.5183    1.0000 </r>
       <r>   -5.3851    1.0000 </r>
       <r>   -5.3586    1.0000 </r>
       <r>   -5.3586    1.0000 </r>
       <r>   -4.8984    1.0000 </r>
       <r>   -4.8984    1.0000 </r>
       <r>   -4.8721    1.0000 </r>
       <r>   -4.6290    1.0000 </r>
       <r>   -4.4985    1.0000 </r>
       <r>   -4.4681    1.0000 </r>
       <r>   -4.4681    1.0000 </r>
       <r>   -4.4630    1.0000 </r>
       <r>   -4.4455    1.0000 </r>
       <r>   -4.4127    1.0000 </r>
       <r>   -4.4127    1.0000 </r>
       <r>   -4.2873    1.0000 </r>
       <r>   -4.2298    1.0000 </r>
       <r>   -4.2221    1.0000 </r>
       <r>   -4.1846    1.0000 </r>
       <r>   -4.1835    1.0000 </r>
       <r>   -4.1695    1.0000 </r>
       <r>   -4.1102    1.0000 </r>
       <r>   -4.1102    1.0000 </r>
       <r>   -4.0088    1.0000 </r>
       <r>   -3.7912    1.0000 </r>
       <r>   -3.7912    1.0000 </r>
       <r>   -3.7565    1.0000 </r>
       <r>   -3.7525    1.0000 </r>
       <r>   -3.6370    1.0000 </r>
       <r>   -3.6179    1.0000 </r>
       <r>   -3.6179    1.0000 </r>
       <r>   -3.5969    1.0000 </r>
       <r>   -3.5856    1.0000 </r>
       <r>   -3.4651    1.0000 </r>
       <r>   -3.4651    1.0000 </r>
       <r>   -3.3767    1.0000 </r>
       <r>   -3.3420    1.0000 </r>
       <r>   -3.3324    1.0000 </r>
       <r>   -3.2640    1.0000 </r>
       <r>   -3.2640    1.0000 </r>
       <r>   -3.2449    1.0000 </r>
       <r>   -3.2013    1.0000 </r>
       <r>   -3.2013    1.0000 </r>
       <r>   -3.1359    1.0000 </r>
       <r>   -3.1008    1.0000 </r>
       <r>   -3.1008    1.0000 </r>
       <r>   -3.0902    1.0000 </r>
       <r>   -3.0537    1.0000 </r>
       <r>   -3.0042    1.0000 </r>
       <r>   -2.9989    1.0000 </r>
       <r>   -2.9989    1.0000 </r>
       <r>   -2.9647    1.0000 </r>
       <r>   -2.4331    1.0000 </r>
       <r>   -2.0393    1.0000 </r>
       <r>   -1.5466    0.8131 </r>
       <r>   -1.5466    0.8130 </r>
       <r>   -0.7320   -0.0000 </r>
       <r>   -0.4654   -0.0000 </r>
       <r>   -0.4654   -0.0000 </r>
       <r>    0.6541   -0.0000 </r>
       <r>    1.2080   -0.0000 </r>
       <r>    1.2081   -0.0000 </r>
       <r>    3.0101    0.0000 </r>
       <r>    3.3294    0.0000 </r>
       <r>    3.3295    0.0000 </r>
       <r>    3.4231    0.0000 </r>
       <r>    3.7259    0.0000 </r>
       <r>    3.7846    0.0000 </r>
       <r>    4.1831    0.0000 </r>
       <r>    4.1831    0.0000 </r>
       <r>    4.3256    0.0000 </r>
       <r>    4.7324    0.0000 </r>
       <r>    5.0998    0.0000 </r>
       <r>    5.6514    0.0000 </r>
       <r>    5.6553    0.0000 </r>
       <r>    5.6553    0.0000 </r>
       <r>    6.8729    0.0000 </r>
       <r>    6.9330    0.0000 </r>
       <r>    7.1053    0.0000 </r>
       <r>    7.2123    0.0000 </r>
       <r>    7.2123    0.0000 </r>
       <r>    7.6832    0.0000 </r>
       <r>    7.8808    0.0000 </r>
       <r>    8.4329    0.0000 </r>
       <r>    8.5867    0.0000 </r>
      </set>
      <set comment="kpoint 4">
       <r>   -9.2265    1.0000 </r>
       <r>   -7.3288    1.0000 </r>
       <r>   -7.1508    1.0000 </r>
       <r>   -6.0944    1.0000 </r>
       <r>   -6.0171    1.0000 </r>
       <r>   -6.0066    1.0000 </r>
       <r>   -6.0066    1.0000 </r>
       <r>   -5.7381    1.0000 </r>
       <r>   -5.7381    1.0000 </r>
       <r>   -5.5231    1.0000 </r>
       <r>   -5.4085    1.0000 </r>
       <r>   -5.4085    1.0000 </r>
       <r>   -5.2416    1.0000 </r>
       <r>   -5.1803    1.0000 </r>
       <r>   -5.1803    1.0000 </r>
       <r>   -4.8903    1.0000 </r>
       <r>   -4.8903    1.0000 </r>
       <r>   -4.8512    1.0000 </r>
       <r>   -4.7812    1.0000 </r>
       <r>   -4.6422    1.0000 </r>
       <r>   -4.6422    1.0000 </r>
       <r>   -4.6415    1.0000 </r>
       <r>   -4.4783    1.0000 </r>
       <r>   -4.4701    1.0000 </r>
       <r>   -4.3485    1.0000 </r>
       <r>   -4.3485    1.0000 </r>
       <r>   -4.2917    1.0000 </r>
       <r>   -4.2306    1.0000 </r>
       <r>   -4.2090    1.0000 </r>
       <r>   -4.2090    1.0000 </r>
       <r>   -4.1794    1.0000 </r>
       <r>   -4.1720    1.0000 </r>
       <r>   -4.1638    1.0000 </r>
       <r>   -4.0935    1.0000 </r>
       <r>   -3.9587    1.0000 </r>
       <r>   -3.9553    1.0000 </r>
       <r>   -3.9553    1.0000 </r>
       <r>   -3.8981    1.0000 </r>
       <r>   -3.8567    1.0000 </r>
       <r>   -3.8466    1.0000 </r>
       <r>   -3.8466    1.0000 </r>
       <r>   -3.7434    1.0000 </r>
       <r>   -3.7314    1.0000 </r>
       <r>   -3.6760    1.0000 </r>
       <r>   -3.6760    1.0000 </r>
       <r>   -3.6342    1.0000 </r>
       <r>   -3.6268    1.0000 </r>
       <r>   -3.4278    1.0000 </r>
       <r>   -3.4278    1.0000 </r>
       <r>   -3.3956    1.0000 </r>
       <r>   -3.3592    1.0000 </r>
       <r>   -3.3564    1.0000 </r>
       <r>   -3.3495    1.0000 </r>
       <r>   -3.3081    1.0000 </r>
       <r>   -3.3081    1.0000 </r>
       <r>   -3.2491    1.0000 </r>
       <r>   -3.2160    1.0000 </r>
       <r>   -3.1136    1.0000 </r>
       <r>   -3.1136    1.0000 </r>
       <r>   -3.0854    1.0000 </r>
       <r>   -3.0568    1.0000 </r>
       <r>   -3.0059    1.0000 </r>
       <r>   -3.0059    1.0000 </r>
       <r>   -2.7446    1.0000 </r>
       <r>   -1.9983    1.0000 </r>
       <r>   -1.5510    0.8408 </r>
       <r>   -1.5510    0.8408 </r>
       <r>   -0.4297   -0.0000 </r>
       <r>   -0.4297   -0.0000 </r>
       <r>   -0.1221   -0.0000 </r>
       <r>    0.0165   -0.0000 </r>
       <r>    1.8384    0.0000 </r>
       <r>    1.8384    0.0000 </r>
       <r>    2.9846    0.0000 </r>
       <r>    3.4335    0.0000 </r>
       <r>    3.7283    0.0000 </r>
       <r>    3.7283    0.0000 </r>
       <r>    3.9004    0.0000 </r>
       <r>    4.1768    0.0000 </r>
       <r>    4.9837    0.0000 </r>
       <r>    4.9838    0.0000 </r>
       <r>    5.2040    0.0000 </r>
       <r>    5.4516    0.0000 </r>
       <r>    5.5234    0.0000 </r>
       <r>    5.8009    0.0000 </r>
       <r>    5.8009    0.0000 </r>
       <r>    6.0514    0.0000 </r>
       <r>    6.5042    0.0000 </r>
       <r>    6.6547    0.0000 </r>
       <r>    7.3342    0.0000 </r>
       <r>    7.3650    0.0000 </r>
       <r>    7.6088    0.0000 </r>
       <r>    7.7556    0.0000 </r>
       <r>    7.8283    0.0000 </r>
       <r>    7.8283    0.0000 </r>
       <r>    8.0467    0.0000 </r>
      </set>
      <set comment="kpoint 5">
       <r>   -8.6048    1.0000 </r>
       <r>   -7.8791    1.0000 </r>
       <r>   -6.8215    1.0000 </r>
       <r>   -6.3602    1.0000 </r>
       <r>   -5.9349    1.0000 </r>
       <r>   -5.9349    1.0000 </r>
       <r>   -5.7038    1.0000 </r>
       <r>   -5.6357    1.0000 </r>
       <r>   -5.6357    1.0000 </r>
       <r>   -5.5237    1.0000 </r>
       <r>   -5.2901    1.0000 </r>
       <r>   -5.2901    1.0000 </r>
       <r>   -5.1143    1.0000 </r>
       <r>   -5.1143    1.0000 </r>
       <r>   -5.0822    1.0000 </r>
       <r>   -4.9302    1.0000 </r>
       <r>   -4.8576    1.0000 </r>
       <r>   -4.8047    1.0000 </r>
       <r>   -4.8047    1.0000 </r>
       <r>   -4.7924    1.0000 </r>
       <r>   -4.7747    1.0000 </r>
       <r>   -4.7747    1.0000 </r>
       <r>   -4.4845    1.0000 </r>
       <r>   -4.4509    1.0000 </r>
       <r>   -4.3696    1.0000 </r>
       <r>   -4.3279    1.0000 </r>
       <r>   -4.3279    1.0000 </r>
       <r>   -4.2391    1.0000 </r>
       <r>   -4.2391    1.0000 </r>
       <r>   -4.2278    1.0000 </r>
       <r>   -4.1878    1.0000 </r>
       <r>   -4.1878    1.0000 </r>
       <r>   -4.1807    1.0000 </r>
       <r>   -4.1355    1.0000 </r>
       <r>   -4.1296    1.0000 </r>
       <r>   -4.1150    1.0000 </r>
       <r>   -4.1008    1.0000 </r>
       <r>   -4.0766    1.0000 </r>
       <r>   -4.0766    1.0000 </r>
       <r>   -4.0185    1.0000 </r>
       <r>   -3.9348    1.0000 </r>
       <r>   -3.7577    1.0000 </r>
       <r>   -3.7538    1.0000 </r>
       <r>   -3.6829    1.0000 </r>
       <r>   -3.6829    1.0000 </r>
       <r>   -3.6646    1.0000 </r>
       <r>   -3.6386    1.0000 </r>
       <r>   -3.5667    1.0000 </r>
       <r>   -3.5626    1.0000 </r>
       <r>   -3.5626    1.0000 </r>
       <r>   -3.4654    1.0000 </r>
       <r>   -3.4392    1.0000 </r>
       <r>   -3.3590    1.0000 </r>
       <r>   -3.3590    1.0000 </r>
       <r>   -3.3559    1.0000 </r>
       <r>   -3.3305    1.0000 </r>
       <r>   -3.2441    1.0000 </r>
       <r>   -3.1146    1.0000 </r>
       <r>   -3.1146    1.0000 </r>
       <r>   -3.0800    1.0000 </r>
       <r>   -3.0729    1.0000 </r>
       <r>   -3.0676    1.0000 </r>
       <r>   -3.0030    1.0000 </r>
       <r>   -3.0030    1.0000 </r>
       <r>   -1.5436    0.7938 </r>
       <r>   -1.5436    0.7938 </r>
       <r>   -1.4863    0.3357 </r>
       <r>   -0.8680   -0.0000 </r>
       <r>   -0.4082   -0.0000 </r>
       <r>   -0.4082   -0.0000 </r>
       <r>    0.8980   -0.0000 </r>
       <r>    1.8947    0.0000 </r>
       <r>    2.0703    0.0000 </r>
       <r>    2.0703    0.0000 </r>
       <r>    4.0248    0.0000 </r>
       <r>    4.5661    0.0000 </r>
       <r>    4.6901    0.0000 </r>
       <r>    4.6901    0.0000 </r>
       <r>    4.7756    0.0000 </r>
       <r>    4.8108    0.0000 </r>
       <r>    5.3645    0.0000 </r>
       <r>    5.3645    0.0000 </r>
       <r>    5.4145    0.0000 </r>
       <r>    5.6268    0.0000 </r>
       <r>    5.8622    0.0000 </r>
       <r>    6.1208    0.0000 </r>
       <r>    6.2541    0.0000 </r>
       <r>    6.2542    0.0000 </r>
       <r>    6.6499    0.0000 </r>
       <r>    6.6499    0.0000 </r>
       <r>    6.6947    0.0000 </r>
       <r>    6.8717    0.0000 </r>
       <r>    7.8592    0.0000 </r>
       <r>    7.8592    0.0000 </r>
       <r>    7.9686    0.0000 </r>
       <r>    7.9750    0.0000 </r>
      </set>
      <set comment="kpoint 6">
       <r>   -9.7890    1.0000 </r>
       <r>   -7.8359    1.0000 </r>
       <r>   -6.3865    1.0000 </r>
       <r>   -6.3422    1.0000 </r>
       <r>   -6.3422    1.0000 </r>
       <r>   -6.0135    1.0000 </r>
       <r>   -5.9593    1.0000 </r>
       <r>   -5.9593    1.0000 </r>
       <r>   -5.8642    1.0000 </r>
       <r>   -5.5737    1.0000 </r>
       <r>   -5.5737    1.0000 </r>
       <r>   -5.5243    1.0000 </r>
       <r>   -5.4129    1.0000 </r>
       <r>   -5.4129    1.0000 </r>
       <r>   -5.4002    1.0000 </r>
       <r>   -4.9016    1.0000 </r>
       <r>   -4.8878    1.0000 </r>
       <r>   -4.8878    1.0000 </r>
       <r>   -4.5893    1.0000 </r>
       <r>   -4.4669    1.0000 </r>
       <r>   -4.4669    1.0000 </r>
       <r>   -4.4552    1.0000 </r>
       <r>   -4.4543    1.0000 </r>
       <r>   -4.4538    1.0000 </r>
       <r>   -4.4315    1.0000 </r>
       <r>   -4.3163    1.0000 </r>
       <r>   -4.3061    1.0000 </r>
       <r>   -4.3061    1.0000 </r>
       <r>   -4.2215    1.0000 </r>
       <r>   -4.2096    1.0000 </r>
       <r>   -4.1668    1.0000 </r>
       <r>   -4.1159    1.0000 </r>
       <r>   -4.1159    1.0000 </r>
       <r>   -4.0801    1.0000 </r>
       <r>   -4.0385    1.0000 </r>
       <r>   -3.7680    1.0000 </r>
       <r>   -3.7220    1.0000 </r>
       <r>   -3.7220    1.0000 </r>
       <r>   -3.7101    1.0000 </r>
       <r>   -3.6382    1.0000 </r>
       <r>   -3.6027    1.0000 </r>
       <r>   -3.5924    1.0000 </r>
       <r>   -3.5924    1.0000 </r>
       <r>   -3.5449    1.0000 </r>
       <r>   -3.4236    1.0000 </r>
       <r>   -3.3772    1.0000 </r>
       <r>   -3.3144    1.0000 </r>
       <r>   -3.3144    1.0000 </r>
       <r>   -3.2695    1.0000 </r>
       <r>   -3.2332    1.0000 </r>
       <r>   -3.2332    1.0000 </r>
       <r>   -3.2165    1.0000 </r>
       <r>   -3.1630    1.0000 </r>
       <r>   -3.1630    1.0000 </r>
       <r>   -3.1281    1.0000 </r>
       <r>   -3.1274    1.0000 </r>
       <r>   -3.1060    1.0000 </r>
       <r>   -3.0474    1.0000 </r>
       <r>   -3.0474    1.0000 </r>
       <r>   -3.0057    1.0000 </r>
       <r>   -3.0056    1.0000 </r>
       <r>   -3.0018    1.0000 </r>
       <r>   -2.5372    1.0000 </r>
       <r>   -2.3778    1.0000 </r>
       <r>   -2.3778    1.0000 </r>
       <r>   -1.3838   -0.0355 </r>
       <r>   -1.3837   -0.0355 </r>
       <r>   -0.9050   -0.0000 </r>
       <r>   -0.8033   -0.0000 </r>
       <r>    0.0550   -0.0000 </r>
       <r>    0.5874   -0.0000 </r>
       <r>    0.9882   -0.0000 </r>
       <r>    0.9883   -0.0000 </r>
       <r>    2.9254    0.0000 </r>
       <r>    3.0508    0.0000 </r>
       <r>    3.3274    0.0000 </r>
       <r>    3.3875    0.0000 </r>
       <r>    3.3876    0.0000 </r>
       <r>    3.6360    0.0000 </r>
       <r>    4.3089    0.0000 </r>
       <r>    4.4650    0.0000 </r>
       <r>    4.4650    0.0000 </r>
       <r>    4.6380    0.0000 </r>
       <r>    5.0157    0.0000 </r>
       <r>    5.1404    0.0000 </r>
       <r>    5.2816    0.0000 </r>
       <r>    5.2816    0.0000 </r>
       <r>    6.7805    0.0000 </r>
       <r>    6.8470    0.0000 </r>
       <r>    7.5651    0.0000 </r>
       <r>    7.5651    0.0000 </r>
       <r>    7.7876    0.0000 </r>
       <r>    7.7876    0.0000 </r>
       <r>    7.8205    0.0000 </r>
       <r>    8.0561    0.0000 </r>
       <r>    8.4522    0.0000 </r>
      </set>
      <set comment="kpoint 7">
       <r>   -9.4111    1.0000 </r>
       <r>   -7.4909    1.0000 </r>
       <r>   -6.7815    1.0000 </r>
       <r>   -6.3836    1.0000 </r>
       <r>   -6.1290    1.0000 </r>
       <r>   -5.9983    1.0000 </r>
       <r>   -5.8762    1.0000 </r>
       <r>   -5.8520    1.0000 </r>
       <r>   -5.7277    1.0000 </r>
       <r>   -5.5208    1.0000 </r>
       <r>   -5.4770    1.0000 </r>
       <r>   -5.4333    1.0000 </r>
       <r>   -5.2858    1.0000 </r>
       <r>   -5.2587    1.0000 </r>
       <r>   -5.2370    1.0000 </r>
       <r>   -4.8971    1.0000 </r>
       <r>   -4.8920    1.0000 </r>
       <r>   -4.8688    1.0000 </r>
       <r>   -4.7245    1.0000 </r>
       <r>   -4.5975    1.0000 </r>
       <r>   -4.5732    1.0000 </r>
       <r>   -4.5240    1.0000 </r>
       <r>   -4.4887    1.0000 </r>
       <r>   -4.4770    1.0000 </r>
       <r>   -4.3947    1.0000 </r>
       <r>   -4.3548    1.0000 </r>
       <r>   -4.2932    1.0000 </r>
       <r>   -4.2585    1.0000 </r>
       <r>   -4.2248    1.0000 </r>
       <r>   -4.1856    1.0000 </r>
       <r>   -4.1808    1.0000 </r>
       <r>   -4.1746    1.0000 </r>
       <r>   -4.1531    1.0000 </r>
       <r>   -4.1183    1.0000 </r>
       <r>   -3.9110    1.0000 </r>
       <r>   -3.9075    1.0000 </r>
       <r>   -3.8797    1.0000 </r>
       <r>   -3.8775    1.0000 </r>
       <r>   -3.8277    1.0000 </r>
       <r>   -3.7257    1.0000 </r>
       <r>   -3.7160    1.0000 </r>
       <r>   -3.6855    1.0000 </r>
       <r>   -3.6707    1.0000 </r>
       <r>   -3.6569    1.0000 </r>
       <r>   -3.6291    1.0000 </r>
       <r>   -3.6028    1.0000 </r>
       <r>   -3.5869    1.0000 </r>
       <r>   -3.4765    1.0000 </r>
       <r>   -3.4097    1.0000 </r>
       <r>   -3.3787    1.0000 </r>
       <r>   -3.3346    1.0000 </r>
       <r>   -3.2778    1.0000 </r>
       <r>   -3.2749    1.0000 </r>
       <r>   -3.2674    1.0000 </r>
       <r>   -3.2206    1.0000 </r>
       <r>   -3.1472    1.0000 </r>
       <r>   -3.1385    1.0000 </r>
       <r>   -3.1099    1.0000 </r>
       <r>   -3.1025    1.0000 </r>
       <r>   -3.0812    1.0000 </r>
       <r>   -3.0353    1.0000 </r>
       <r>   -3.0344    1.0000 </r>
       <r>   -2.9247    1.0000 </r>
       <r>   -2.3577    1.0000 </r>
       <r>   -2.2846    1.0000 </r>
       <r>   -2.1575    1.0000 </r>
       <r>   -1.4703    0.2170 </r>
       <r>   -0.5277   -0.0000 </r>
       <r>   -0.2647   -0.0000 </r>
       <r>    0.3734   -0.0000 </r>
       <r>    0.5143   -0.0000 </r>
       <r>    1.0561   -0.0000 </r>
       <r>    1.2978    0.0000 </r>
       <r>    3.2644    0.0000 </r>
       <r>    3.4374    0.0000 </r>
       <r>    3.6079    0.0000 </r>
       <r>    3.7097    0.0000 </r>
       <r>    3.9962    0.0000 </r>
       <r>    4.0223    0.0000 </r>
       <r>    4.3543    0.0000 </r>
       <r>    4.5904    0.0000 </r>
       <r>    4.8970    0.0000 </r>
       <r>    5.0155    0.0000 </r>
       <r>    5.3537    0.0000 </r>
       <r>    5.7573    0.0000 </r>
       <r>    5.8969    0.0000 </r>
       <r>    6.1815    0.0000 </r>
       <r>    6.9489    0.0000 </r>
       <r>    7.1425    0.0000 </r>
       <r>    7.1500    0.0000 </r>
       <r>    7.1921    0.0000 </r>
       <r>    7.3492    0.0000 </r>
       <r>    7.3952    0.0000 </r>
       <r>    7.6145    0.0000 </r>
       <r>    7.7257    0.0000 </r>
       <r>    7.9643    0.0000 </r>
      </set>
      <set comment="kpoint 8">
       <r>   -8.8649    1.0000 </r>
       <r>   -7.4468    1.0000 </r>
       <r>   -7.0214    1.0000 </r>
       <r>   -6.3986    1.0000 </r>
       <r>   -6.1565    1.0000 </r>
       <r>   -5.8096    1.0000 </r>
       <r>   -5.7749    1.0000 </r>
       <r>   -5.6950    1.0000 </r>
       <r>   -5.5856    1.0000 </r>
       <r>   -5.4704    1.0000 </r>
       <r>   -5.3395    1.0000 </r>
       <r>   -5.3264    1.0000 </r>
       <r>   -5.1350    1.0000 </r>
       <r>   -5.1349    1.0000 </r>
       <r>   -5.1000    1.0000 </r>
       <r>   -4.8848    1.0000 </r>
       <r>   -4.8782    1.0000 </r>
       <r>   -4.8646    1.0000 </r>
       <r>   -4.8472    1.0000 </r>
       <r>   -4.7574    1.0000 </r>
       <r>   -4.7307    1.0000 </r>
       <r>   -4.6744    1.0000 </r>
       <r>   -4.5118    1.0000 </r>
       <r>   -4.5071    1.0000 </r>
       <r>   -4.3506    1.0000 </r>
       <r>   -4.3485    1.0000 </r>
       <r>   -4.3209    1.0000 </r>
       <r>   -4.2528    1.0000 </r>
       <r>   -4.2494    1.0000 </r>
       <r>   -4.2452    1.0000 </r>
       <r>   -4.2239    1.0000 </r>
       <r>   -4.2111    1.0000 </r>
       <r>   -4.1578    1.0000 </r>
       <r>   -4.0926    1.0000 </r>
       <r>   -4.0615    1.0000 </r>
       <r>   -4.0605    1.0000 </r>
       <r>   -4.0177    1.0000 </r>
       <r>   -4.0100    1.0000 </r>
       <r>   -3.9978    1.0000 </r>
       <r>   -3.9976    1.0000 </r>
       <r>   -3.9131    1.0000 </r>
       <r>   -3.7816    1.0000 </r>
       <r>   -3.7222    1.0000 </r>
       <r>   -3.7047    1.0000 </r>
       <r>   -3.6860    1.0000 </r>
       <r>   -3.6605    1.0000 </r>
       <r>   -3.5785    1.0000 </r>
       <r>   -3.5686    1.0000 </r>
       <r>   -3.5674    1.0000 </r>
       <r>   -3.4794    1.0000 </r>
       <r>   -3.4158    1.0000 </r>
       <r>   -3.4033    1.0000 </r>
       <r>   -3.3538    1.0000 </r>
       <r>   -3.2955    1.0000 </r>
       <r>   -3.2838    1.0000 </r>
       <r>   -3.2391    1.0000 </r>
       <r>   -3.2110    1.0000 </r>
       <r>   -3.1486    1.0000 </r>
       <r>   -3.1117    1.0000 </r>
       <r>   -3.1008    1.0000 </r>
       <r>   -3.0879    1.0000 </r>
       <r>   -3.0384    1.0000 </r>
       <r>   -3.0345    1.0000 </r>
       <r>   -2.8401    1.0000 </r>
       <r>   -2.3132    1.0000 </r>
       <r>   -1.6936    1.0117 </r>
       <r>   -1.4691    0.2094 </r>
       <r>   -0.5111   -0.0000 </r>
       <r>   -0.4365   -0.0000 </r>
       <r>    0.5375   -0.0000 </r>
       <r>    0.7792   -0.0000 </r>
       <r>    1.0402   -0.0000 </r>
       <r>    2.3610    0.0000 </r>
       <r>    2.5124    0.0000 </r>
       <r>    3.7722    0.0000 </r>
       <r>    3.8929    0.0000 </r>
       <r>    4.2145    0.0000 </r>
       <r>    4.2814    0.0000 </r>
       <r>    4.5389    0.0000 </r>
       <r>    4.7807    0.0000 </r>
       <r>    5.2566    0.0000 </r>
       <r>    5.3465    0.0000 </r>
       <r>    5.5807    0.0000 </r>
       <r>    5.8532    0.0000 </r>
       <r>    5.8653    0.0000 </r>
       <r>    5.9660    0.0000 </r>
       <r>    6.1636    0.0000 </r>
       <r>    6.6108    0.0000 </r>
       <r>    6.7036    0.0000 </r>
       <r>    6.9438    0.0000 </r>
       <r>    7.3096    0.0000 </r>
       <r>    7.4249    0.0000 </r>
       <r>    7.5426    0.0000 </r>
       <r>    7.5861    0.0000 </r>
       <r>    7.6902    0.0000 </r>
       <r>    7.7022    0.0000 </r>
      </set>
      <set comment="kpoint 9">
       <r>   -8.1860    1.0000 </r>
       <r>   -8.1860    1.0000 </r>
       <r>   -6.5227    1.0000 </r>
       <r>   -6.5227    1.0000 </r>
       <r>   -6.4012    1.0000 </r>
       <r>   -5.7253    1.0000 </r>
       <r>   -5.6145    1.0000 </r>
       <r>   -5.5449    1.0000 </r>
       <r>   -5.5449    1.0000 </r>
       <r>   -5.5234    1.0000 </r>
       <r>   -5.2589    1.0000 </r>
       <r>   -5.2255    1.0000 </r>
       <r>   -5.1365    1.0000 </r>
       <r>   -5.1258    1.0000 </r>
       <r>   -4.9892    1.0000 </r>
       <r>   -4.9892    1.0000 </r>
       <r>   -4.9122    1.0000 </r>
       <r>   -4.8684    1.0000 </r>
       <r>   -4.8684    1.0000 </r>
       <r>   -4.7631    1.0000 </r>
       <r>   -4.7299    1.0000 </r>
       <r>   -4.6883    1.0000 </r>
       <r>   -4.4740    1.0000 </r>
       <r>   -4.4740    1.0000 </r>
       <r>   -4.4533    1.0000 </r>
       <r>   -4.3867    1.0000 </r>
       <r>   -4.3845    1.0000 </r>
       <r>   -4.3845    1.0000 </r>
       <r>   -4.2860    1.0000 </r>
       <r>   -4.2778    1.0000 </r>
       <r>   -4.2778    1.0000 </r>
       <r>   -4.2327    1.0000 </r>
       <r>   -4.1738    1.0000 </r>
       <r>   -4.1509    1.0000 </r>
       <r>   -4.1366    1.0000 </r>
       <r>   -4.1251    1.0000 </r>
       <r>   -4.1065    1.0000 </r>
       <r>   -4.1065    1.0000 </r>
       <r>   -4.0153    1.0000 </r>
       <r>   -4.0153    1.0000 </r>
       <r>   -3.8380    1.0000 </r>
       <r>   -3.8380    1.0000 </r>
       <r>   -3.7054    1.0000 </r>
       <r>   -3.7054    1.0000 </r>
       <r>   -3.6802    1.0000 </r>
       <r>   -3.6468    1.0000 </r>
       <r>   -3.6306    1.0000 </r>
       <r>   -3.5739    1.0000 </r>
       <r>   -3.5219    1.0000 </r>
       <r>   -3.5219    1.0000 </r>
       <r>   -3.4741    1.0000 </r>
       <r>   -3.4741    1.0000 </r>
       <r>   -3.3897    1.0000 </r>
       <r>   -3.3450    1.0000 </r>
       <r>   -3.3450    1.0000 </r>
       <r>   -3.3203    1.0000 </r>
       <r>   -3.1480    1.0000 </r>
       <r>   -3.1480    1.0000 </r>
       <r>   -3.1468    1.0000 </r>
       <r>   -3.1133    1.0000 </r>
       <r>   -3.0671    1.0000 </r>
       <r>   -3.0671    1.0000 </r>
       <r>   -3.0379    1.0000 </r>
       <r>   -3.0323    1.0000 </r>
       <r>   -2.2955    1.0000 </r>
       <r>   -1.4624    0.1659 </r>
       <r>   -1.1297   -0.0000 </r>
       <r>   -1.1297   -0.0000 </r>
       <r>   -0.5149   -0.0000 </r>
       <r>    0.8361   -0.0000 </r>
       <r>    1.0274   -0.0000 </r>
       <r>    1.4691    0.0000 </r>
       <r>    1.4691    0.0000 </r>
       <r>    3.1064    0.0000 </r>
       <r>    4.1738    0.0000 </r>
       <r>    4.1822    0.0000 </r>
       <r>    4.4467    0.0000 </r>
       <r>    4.4467    0.0000 </r>
       <r>    4.6667    0.0000 </r>
       <r>    5.0396    0.0000 </r>
       <r>    5.0396    0.0000 </r>
       <r>    5.2653    0.0000 </r>
       <r>    5.2653    0.0000 </r>
       <r>    5.8095    0.0000 </r>
       <r>    6.3301    0.0000 </r>
       <r>    6.3301    0.0000 </r>
       <r>    6.3888    0.0000 </r>
       <r>    6.4317    0.0000 </r>
       <r>    6.5484    0.0000 </r>
       <r>    6.5484    0.0000 </r>
       <r>    6.7217    0.0000 </r>
       <r>    6.8420    0.0000 </r>
       <r>    7.0958    0.0000 </r>
       <r>    7.6311    0.0000 </r>
       <r>    7.7520    0.0000 </r>
       <r>    8.3762    0.0000 </r>
      </set>
      <set comment="kpoint 10">
       <r>   -8.9530    1.0000 </r>
       <r>   -7.0912    1.0000 </r>
       <r>   -6.9311    1.0000 </r>
       <r>   -6.9311    1.0000 </r>
       <r>   -5.9507    1.0000 </r>
       <r>   -5.9507    1.0000 </r>
       <r>   -5.8464    1.0000 </r>
       <r>   -5.6426    1.0000 </r>
       <r>   -5.5573    1.0000 </r>
       <r>   -5.4024    1.0000 </r>
       <r>   -5.4024    1.0000 </r>
       <r>   -5.3325    1.0000 </r>
       <r>   -5.1540    1.0000 </r>
       <r>   -5.1247    1.0000 </r>
       <r>   -5.1247    1.0000 </r>
       <r>   -4.9111    1.0000 </r>
       <r>   -4.9111    1.0000 </r>
       <r>   -4.8620    1.0000 </r>
       <r>   -4.8423    1.0000 </r>
       <r>   -4.7347    1.0000 </r>
       <r>   -4.6745    1.0000 </r>
       <r>   -4.5724    1.0000 </r>
       <r>   -4.5724    1.0000 </r>
       <r>   -4.5724    1.0000 </r>
       <r>   -4.3490    1.0000 </r>
       <r>   -4.3248    1.0000 </r>
       <r>   -4.3248    1.0000 </r>
       <r>   -4.3210    1.0000 </r>
       <r>   -4.3068    1.0000 </r>
       <r>   -4.2397    1.0000 </r>
       <r>   -4.2397    1.0000 </r>
       <r>   -4.1962    1.0000 </r>
       <r>   -4.0926    1.0000 </r>
       <r>   -4.0926    1.0000 </r>
       <r>   -4.0895    1.0000 </r>
       <r>   -4.0456    1.0000 </r>
       <r>   -4.0418    1.0000 </r>
       <r>   -3.9641    1.0000 </r>
       <r>   -3.9641    1.0000 </r>
       <r>   -3.9348    1.0000 </r>
       <r>   -3.8524    1.0000 </r>
       <r>   -3.7938    1.0000 </r>
       <r>   -3.7321    1.0000 </r>
       <r>   -3.7088    1.0000 </r>
       <r>   -3.6526    1.0000 </r>
       <r>   -3.6526    1.0000 </r>
       <r>   -3.5722    1.0000 </r>
       <r>   -3.5722    1.0000 </r>
       <r>   -3.5471    1.0000 </r>
       <r>   -3.4896    1.0000 </r>
       <r>   -3.4395    1.0000 </r>
       <r>   -3.3458    1.0000 </r>
       <r>   -3.3458    1.0000 </r>
       <r>   -3.2169    1.0000 </r>
       <r>   -3.1944    1.0000 </r>
       <r>   -3.1886    1.0000 </r>
       <r>   -3.1558    1.0000 </r>
       <r>   -3.1558    1.0000 </r>
       <r>   -3.1411    1.0000 </r>
       <r>   -3.1011    1.0000 </r>
       <r>   -3.1010    1.0000 </r>
[...]
       <r>   -6.1942    1.0000 </r>
       <r>   -5.3748    1.0000 </r>
       <r>   -5.3035    1.0000 </r>
       <r>   -5.3033    1.0000 </r>
       <r>   -5.2927    1.0000 </r>
       <r>   -5.2927    1.0000 </r>
       <r>   -5.2927    1.0000 </r>
       <r>   -5.1080    1.0000 </r>
       <r>   -5.1079    1.0000 </r>
       <r>   -5.0595    1.0000 </r>
       <r>   -5.0595    1.0000 </r>
       <r>   -5.0595    1.0000 </r>
       <r>   -4.8122    1.0000 </r>
       <r>   -4.8122    1.0000 </r>
       <r>   -4.8122    1.0000 </r>
       <r>   -4.6646    1.0000 </r>
       <r>   -4.6646    1.0000 </r>
       <r>   -4.6646    1.0000 </r>
       <r>   -4.5386    1.0000 </r>
       <r>   -4.5291    1.0000 </r>
       <r>   -4.5291    1.0000 </r>
       <r>   -4.5291    1.0000 </r>
       <r>   -4.4834    1.0000 </r>
       <r>   -4.4834    1.0000 </r>
       <r>   -4.4834    1.0000 </r>
       <r>   -4.2668    1.0000 </r>
       <r>   -4.2664    1.0000 </r>
       <r>   -4.2273    1.0000 </r>
       <r>   -4.1988    1.0000 </r>
       <r>   -4.0696    1.0000 </r>
       <r>   -4.0696    1.0000 </r>
       <r>   -4.0696    1.0000 </r>
       <r>   -4.0507    1.0000 </r>
       <r>   -4.0507    1.0000 </r>
       <r>   -4.0507    1.0000 </r>
       <r>   -3.7920    1.0000 </r>
       <r>   -3.7920    1.0000 </r>
       <r>   -3.7920    1.0000 </r>
       <r>   -3.6227    1.0000 </r>
       <r>   -3.6225    1.0000 </r>
       <r>   -3.5850    1.0000 </r>
       <r>   -3.5850    1.0000 </r>
       <r>   -3.5850    1.0000 </r>
       <r>   -3.5149    1.0000 </r>
       <r>   -3.5149    1.0000 </r>
       <r>   -3.5149    1.0000 </r>
       <r>   -3.2684    1.0000 </r>
       <r>   -3.2684    1.0000 </r>
       <r>   -3.2684    1.0000 </r>
       <r>   -3.2147    1.0000 </r>
       <r>   -3.2144    1.0000 </r>
       <r>   -3.1703    1.0000 </r>
       <r>   -3.1703    1.0000 </r>
       <r>   -3.1703    1.0000 </r>
       <r>   -3.1615    1.0000 </r>
       <r>   -3.1367    1.0000 </r>
       <r>   -3.1367    1.0000 </r>
       <r>   -3.1367    1.0000 </r>
       <r>   -2.8215    1.0000 </r>
       <r>   -2.8215    1.0000 </r>
       <r>   -2.8215    1.0000 </r>
       <r>   -0.6569   -0.0000 </r>
       <r>   -0.6569   -0.0000 </r>
       <r>   -0.6569   -0.0000 </r>
       <r>    2.1258    0.0000 </r>
       <r>    2.1258    0.0000 </r>
       <r>    2.1258    0.0000 </r>
       <r>    2.1295    0.0000 </r>
       <r>    2.1296    0.0000 </r>
       <r>    2.5056    0.0000 </r>
       <r>    3.1641    0.0000 </r>
       <r>    4.5137    0.0000 </r>
       <r>    4.5139    0.0000 </r>
       <r>    4.9607    0.0000 </r>
       <r>    4.9607    0.0000 </r>
       <r>    4.9607    0.0000 </r>
       <r>    5.6080    0.0000 </r>
       <r>    5.6080    0.0000 </r>
       <r>    5.6080    0.0000 </r>
       <r>    5.8145    0.0000 </r>
       <r>    5.8145    0.0000 </r>
       <r>    5.8145    0.0000 </r>
       <r>    6.5059    0.0000 </r>
       <r>    6.5062    0.0000 </r>
       <r>    6.8927    0.0000 </r>
       <r>    6.8927    0.0000 </r>
       <r>    6.8927    0.0000 </r>
       <r>    7.0723    0.0000 </r>
       <r>    7.0723    0.0000 </r>
       <r>    7.0723    0.0000 </r>
       <r>    7.7565    0.0000 </r>
      </set>
     </set>
    </set>
   </array>
  </eigenvalues>
  <separator name="orbital magnetization" >
   <v name="MAGDIPOLOUT">      0.00000000      0.00000000      0.00000000</v>
  </separator>
  <dos>
   <i name="efermi">     -1.50614118 </i>
   <total>
    <array>
     <dimension dim="1">gridpoints</dimension>
     <dimension dim="2">spin</dimension>
     <field>energy</field>
     <field>total</field>
     <field>integrated</field>
     <set>
      <set comment="spin 1">
       <r>   -11.0786     0.0000     0.0000 </r>
       <r>   -11.0082     0.0000     0.0000 </r>
       <r>   -10.9377    -0.0000    -0.0000 </r>
       <r>   -10.8672    -0.0000    -0.0000 </r>
       <r>   -10.7968    -0.0000    -0.0000 </r>
       <r>   -10.7263    -0.0000    -0.0000 </r>
       <r>   -10.6558    -0.0000    -0.0000 </r>
       <r>   -10.5854    -0.0000    -0.0000 </r>
       <r>   -10.5149    -0.0000    -0.0000 </r>
       <r>   -10.4444    -0.0000    -0.0000 </r>
       <r>   -10.3740    -0.0000    -0.0000 </r>
       <r>   -10.3035    -0.0012    -0.0001 </r>
       <r>   -10.2330    -0.0101    -0.0008 </r>
       <r>   -10.1626    -0.0181    -0.0021 </r>
       <r>   -10.0921     0.0956     0.0047 </r>
       <r>   -10.0216     0.6433     0.0500 </r>
       <r>    -9.9512     1.1697     0.1324 </r>
       <r>    -9.8807     0.5762     0.1730 </r>
       <r>    -9.8102     0.6445     0.2184 </r>
       <r>    -9.7398     1.4958     0.3238 </r>
       <r>    -9.6693     1.5007     0.4296 </r>
       <r>    -9.5988     0.5747     0.4701 </r>
       <r>    -9.5284    -0.1161     0.4619 </r>
       <r>    -9.4579     0.7226     0.5128 </r>
       <r>    -9.3875     2.2497     0.6714 </r>
       <r>    -9.3170     1.3843     0.7689 </r>
       <r>    -9.2465     0.7415     0.8212 </r>
       <r>    -9.1761     1.0453     0.8948 </r>
       <r>    -9.1056     0.2781     0.9144 </r>
       <r>    -9.0351    -0.0575     0.9104 </r>
       <r>    -8.9647     0.7881     0.9659 </r>
       <r>    -8.8942     2.2894     1.1272 </r>
       <r>    -8.8237     2.5751     1.3087 </r>
       <r>    -8.7533     0.7981     1.3649 </r>
       <r>    -8.6828    -0.0077     1.3644 </r>
       <r>    -8.6123     0.8294     1.4228 </r>
       <r>    -8.5419     1.0048     1.4936 </r>
       <r>    -8.4714     0.1005     1.5007 </r>
       <r>    -8.4009     0.4794     1.5345 </r>
       <r>    -8.3305     2.0692     1.6803 </r>
       <r>    -8.2600     1.8383     1.8098 </r>
       <r>    -8.1895     1.9461     1.9470 </r>
       <r>    -8.1191     2.0304     2.0901 </r>
       <r>    -8.0486     1.0340     2.1629 </r>
       <r>    -7.9781     1.0289     2.2354 </r>
       <r>    -7.9077     1.1566     2.3169 </r>
       <r>    -7.8372     2.0212     2.4593 </r>
       <r>    -7.7667     2.2258     2.6162 </r>
       <r>    -7.6963     2.7269     2.8083 </r>
       <r>    -7.6258     3.1277     3.0287 </r>
       <r>    -7.5553     2.0426     3.1727 </r>
       <r>    -7.4849     3.0649     3.3886 </r>
       <r>    -7.4144     4.0838     3.6764 </r>
       <r>    -7.3439     2.0895     3.8236 </r>
       <r>    -7.2735     0.8665     3.8847 </r>
       <r>    -7.2030     0.3912     3.9123 </r>
       <r>    -7.1325     1.2926     4.0034 </r>
       <r>    -7.0621     3.3630     4.2403 </r>
       <r>    -6.9916     5.6372     4.6376 </r>
       <r>    -6.9211     4.6294     4.9638 </r>
       <r>    -6.8507     2.6076     5.1475 </r>
       <r>    -6.7802     3.0255     5.3607 </r>
       <r>    -6.7097     2.1024     5.5089 </r>
       <r>    -6.6393     1.6456     5.6248 </r>
       <r>    -6.5688     4.4515     5.9385 </r>
       <r>    -6.4983     4.8999     6.2838 </r>
       <r>    -6.4279     5.2534     6.6540 </r>
       <r>    -6.3574     9.7595     7.3417 </r>
       <r>    -6.2869     7.7195     7.8856 </r>
       <r>    -6.2165     5.1032     8.2452 </r>
       <r>    -6.1460    10.1760     8.9623 </r>
       <r>    -6.0755    11.1085     9.7451 </r>
       <r>    -6.0051    12.9418    10.6570 </r>
       <r>    -5.9346    18.6867    11.9738 </r>
       <r>    -5.8642    17.5259    13.2088 </r>
       <r>    -5.7937    13.3111    14.1468 </r>
       <r>    -5.7232    11.2199    14.9374 </r>
       <r>    -5.6528    11.5433    15.7508 </r>
       <r>    -5.5823    18.6174    17.0627 </r>
       <r>    -5.5118    28.9154    19.1003 </r>
       <r>    -5.4414    27.9074    21.0668 </r>
       <r>    -5.3709    23.6402    22.7326 </r>
       <r>    -5.3004    22.0221    24.2844 </r>
       <r>    -5.2300    21.8922    25.8271 </r>
       <r>    -5.1595    21.5474    27.3454 </r>
       <r>    -5.0890    20.6438    28.8001 </r>
       <r>    -5.0186    13.0888    29.7224 </r>
       <r>    -4.9481    19.5837    31.1024 </r>
       <r>    -4.8776    42.6762    34.1096 </r>
       <r>    -4.8072    41.7954    37.0548 </r>
       <r>    -4.7367    23.7518    38.7285 </r>
       <r>    -4.6662    18.6132    40.0401 </r>
       <r>    -4.5958    21.7866    41.5753 </r>
       <r>    -4.5253    32.1533    43.8410 </r>
       <r>    -4.4548    50.2294    47.3805 </r>
       <r>    -4.3844    50.5899    50.9453 </r>
       <r>    -4.3139    46.7136    54.2371 </r>
       <r>    -4.2434    58.0763    58.3295 </r>
       <r>    -4.1730    71.4719    63.3658 </r>
       <r>    -4.1025    68.6103    68.2005 </r>
       <r>    -4.0320    54.3971    72.0337 </r>
       <r>    -3.9616    38.6279    74.7556 </r>
       <r>    -3.8911    28.2093    76.7434 </r>
       <r>    -3.8206    23.9262    78.4294 </r>
       <r>    -3.7502    31.6308    80.6583 </r>
       <r>    -3.6797    56.0617    84.6087 </r>
       <r>    -3.6092    71.4528    89.6437 </r>
       <r>    -3.5388    59.1447    93.8114 </r>
       <r>    -3.4683    37.5940    96.4605 </r>
       <r>    -3.3978    37.8961    99.1309 </r>
       <r>    -3.3274    47.1313   102.4521 </r>
       <r>    -3.2569    49.3796   105.9316 </r>
       <r>    -3.1864    58.3101   110.0405 </r>
       <r>    -3.1160    81.4139   115.7774 </r>
       <r>    -3.0455    79.2830   121.3642 </r>
       <r>    -2.9750    44.5495   124.5034 </r>
       <r>    -2.9046    17.6397   125.7464 </r>
       <r>    -2.8341    12.0315   126.5942 </r>
       <r>    -2.7636    10.0767   127.3043 </r>
       <r>    -2.6932     2.8922   127.5081 </r>
       <r>    -2.6227    -0.1854   127.4950 </r>
       <r>    -2.5522     0.4227   127.5248 </r>
       <r>    -2.4818     1.0553   127.5992 </r>
       <r>    -2.4113     2.7726   127.7946 </r>
       <r>    -2.3409     8.8438   128.4177 </r>
       <r>    -2.2704    12.5828   129.3044 </r>
       <r>    -2.1999     7.0174   129.7989 </r>
       <r>    -2.1295     3.3369   130.0340 </r>
       <r>    -2.0590     2.6384   130.2199 </r>
       <r>    -1.9885     2.1693   130.3728 </r>
       <r>    -1.9181     1.0196   130.4447 </r>
       <r>    -1.8476    -0.0418   130.4417 </r>
       <r>    -1.7771     0.7930   130.4976 </r>
       <r>    -1.7067     2.4041   130.6670 </r>
       <r>    -1.6362     2.2667   130.8267 </r>
       <r>    -1.5657     5.6126   131.2222 </r>
       <r>    -1.4953    13.3200   132.1608 </r>
       <r>    -1.4248    11.8288   132.9944 </r>
       <r>    -1.3543     4.8266   133.3345 </r>
       <r>    -1.2839     2.8066   133.5322 </r>
       <r>    -1.2134     3.0288   133.7457 </r>
       <r>    -1.1429     2.6087   133.9295 </r>
       <r>    -1.0725     2.7364   134.1223 </r>
       <r>    -1.0020     1.5242   134.2297 </r>
       <r>    -0.9315     0.9957   134.2999 </r>
       <r>    -0.8611     2.2998   134.4620 </r>
       <r>    -0.7906     2.5210   134.6396 </r>
       <r>    -0.7201     1.9787   134.7790 </r>
       <r>    -0.6497     2.2502   134.9376 </r>
       <r>    -0.5792     3.9361   135.2150 </r>
       <r>    -0.5087     8.7204   135.8294 </r>
       <r>    -0.4383    13.7856   136.8009 </r>
       <r>    -0.3678     9.7630   137.4888 </r>
       <r>    -0.2973     2.8931   137.6927 </r>
       <r>    -0.2269     1.8417   137.8225 </r>
       <r>    -0.1564     1.3340   137.9165 </r>
       <r>    -0.0859     0.9521   137.9836 </r>
       <r>    -0.0155     1.1310   138.0633 </r>
       <r>     0.0550     3.0255   138.2764 </r>
       <r>     0.1255     4.3607   138.5837 </r>
       <r>     0.1959     3.6881   138.8436 </r>
       <r>     0.2664     1.7772   138.9689 </r>
       <r>     0.3369     1.0647   139.0439 </r>
       <r>     0.4073     3.4648   139.2880 </r>
       <r>     0.4778     6.2758   139.7303 </r>
       <r>     0.5483     7.7662   140.2775 </r>
       <r>     0.6187     4.7193   140.6101 </r>
       <r>     0.6892     2.4244   140.7809 </r>
       <r>     0.7597     5.0101   141.1339 </r>
       <r>     0.8301     5.6322   141.5308 </r>
       <r>     0.9006     2.6596   141.7182 </r>
       <r>     0.9711     3.0886   141.9359 </r>
       <r>     1.0415     7.4228   142.4589 </r>
       <r>     1.1120     6.4685   142.9147 </r>
       <r>     1.1824     2.7359   143.1075 </r>
       <r>     1.2529     4.7258   143.4405 </r>
       <r>     1.3234     4.8454   143.7820 </r>
       <r>     1.3938     1.7076   143.9023 </r>
       <r>     1.4643     1.6770   144.0205 </r>
       <r>     1.5348     1.9356   144.1569 </r>
       <r>     1.6052     0.3529   144.1817 </r>
       <r>     1.6757    -0.2333   144.1653 </r>
       <r>     1.7462    -0.0808   144.1596 </r>
       <r>     1.8166     1.9828   144.2993 </r>
       <r>     1.8871     4.1785   144.5938 </r>
       <r>     1.9576     2.8916   144.7975 </r>
       <r>     2.0280     3.1907   145.0224 </r>
       <r>     2.0985     4.4947   145.3391 </r>
       <r>     2.1690     3.7478   145.6032 </r>
       <r>     2.2394     2.7562   145.7974 </r>
       <r>     2.3099     2.0049   145.9387 </r>
       <r>     2.3804     2.0391   146.0824 </r>
       <r>     2.4508     2.3670   146.2491 </r>
       <r>     2.5213     4.6024   146.5735 </r>
       <r>     2.5918     3.6437   146.8302 </r>
       <r>     2.6622     0.4957   146.8651 </r>
       <r>     2.7327     0.6098   146.9081 </r>
       <r>     2.8032     1.0378   146.9812 </r>
       <r>     2.8736     0.8006   147.0377 </r>
       <r>     2.9441     2.0427   147.1816 </r>
       <r>     3.0146     3.9994   147.4634 </r>
       <r>     3.0850     6.8067   147.9431 </r>
       <r>     3.1555     7.8944   148.4993 </r>
       <r>     3.2260     4.9187   148.8459 </r>
       <r>     3.2964     5.7870   149.2537 </r>
       <r>     3.3669     8.7677   149.8716 </r>
       <r>     3.4374     8.8491   150.4951 </r>
       <r>     3.5078     5.5851   150.8887 </r>
       <r>     3.5783     2.8517   151.0896 </r>
       <r>     3.6488     4.6619   151.4181 </r>
       <r>     3.7192     8.2032   151.9962 </r>
       <r>     3.7897     8.3400   152.5839 </r>
       <r>     3.8602     5.8080   152.9931 </r>
       <r>     3.9306     8.4117   153.5859 </r>
       <r>     4.0011     9.5687   154.2601 </r>
       <r>     4.0716     6.2054   154.6974 </r>
       <r>     4.1420     4.2647   154.9979 </r>
       <r>     4.2125     9.0536   155.6359 </r>
       <r>     4.2830    11.7678   156.4651 </r>
       <r>     4.3534    10.5695   157.2099 </r>
       <r>     4.4239     7.5864   157.7445 </r>
       <r>     4.4944     8.1705   158.3202 </r>
       <r>     4.5648     7.7441   158.8659 </r>
       <r>     4.6353     6.4343   159.3194 </r>
       <r>     4.7057     5.9701   159.7400 </r>
       <r>     4.7762     6.8206   160.2207 </r>
       <r>     4.8467     7.9101   160.7781 </r>
       <r>     4.9171     7.0788   161.2769 </r>
       <r>     4.9876     8.5214   161.8773 </r>
       <r>     5.0581    12.7879   162.7784 </r>
       <r>     5.1285     9.6610   163.4592 </r>
       <r>     5.1990     6.9911   163.9519 </r>
       <r>     5.2695    11.0626   164.7314 </r>
       <r>     5.3399    12.8378   165.6360 </r>
       <r>     5.4104    10.6891   166.3892 </r>
       <r>     5.4809     5.8015   166.7980 </r>
       <r>     5.5513     3.9441   167.0760 </r>
       <r>     5.6218     6.4033   167.5272 </r>
       <r>     5.6923     9.0901   168.1677 </r>
       <r>     5.7627    11.6333   168.9875 </r>
       <r>     5.8332    14.7360   170.0259 </r>
       <r>     5.9037    13.6551   170.9881 </r>
       <r>     5.9741     7.3596   171.5067 </r>
       <r>     6.0446     2.8238   171.7057 </r>
       <r>     6.1151     5.7808   172.1130 </r>
       <r>     6.1855     9.9470   172.8139 </r>
       <r>     6.2560     8.7990   173.4340 </r>
       <r>     6.3265     7.6601   173.9737 </r>
       <r>     6.3969     6.4852   174.4307 </r>
       <r>     6.4674     4.8768   174.7744 </r>
       <r>     6.5379     6.5589   175.2366 </r>
       <r>     6.6083     9.2194   175.8862 </r>
       <r>     6.6788    11.2607   176.6797 </r>
       <r>     6.7493    11.3214   177.4775 </r>
       <r>     6.8197     9.3055   178.1332 </r>
       <r>     6.8902    11.3654   178.9341 </r>
       <r>     6.9607    13.3803   179.8769 </r>
       <r>     7.0311     8.5130   180.4768 </r>
       <r>     7.1016     7.2715   180.9892 </r>
       <r>     7.1721    13.3802   181.9321 </r>
       <r>     7.2425    10.1162   182.6449 </r>
       <r>     7.3130     5.7549   183.0504 </r>
       <r>     7.3835     9.0897   183.6909 </r>
       <r>     7.4539     8.6491   184.3004 </r>
       <r>     7.5244     6.0213   184.7247 </r>
       <r>     7.5949    11.3890   185.5272 </r>
       <r>     7.6653    14.7857   186.5691 </r>
       <r>     7.7358    12.7934   187.4706 </r>
       <r>     7.8063    12.4600   188.3486 </r>
       <r>     7.8767    12.3989   189.2223 </r>
       <r>     7.9472     8.5437   189.8244 </r>
       <r>     8.0177     7.3729   190.3439 </r>
       <r>     8.0881     5.4879   190.7306 </r>
       <r>     8.1586     1.1698   190.8131 </r>
       <r>     8.2291    -0.3840   190.7860 </r>
       <r>     8.2995     0.2835   190.8060 </r>
       <r>     8.3700     2.2641   190.9655 </r>
       <r>     8.4404     4.5145   191.2836 </r>
       <r>     8.5109     4.6031   191.6080 </r>
       <r>     8.5814     2.2400   191.7658 </r>
       <r>     8.6518     0.8428   191.8252 </r>
       <r>     8.7223     0.1044   191.8326 </r>
       <r>     8.7928    -0.0656   191.8280 </r>
       <r>     8.8632    -0.0388   191.8252 </r>
       <r>     8.9337    -0.0389   191.8225 </r>
       <r>     9.0042     0.4229   191.8523 </r>
       <r>     9.0746     1.2618   191.9412 </r>
       <r>     9.1451     0.8450   192.0007 </r>
       <r>     9.2156     0.0457   192.0040 </r>
       <r>     9.2860    -0.0492   192.0005 </r>
       <r>     9.3565    -0.0068   192.0000 </r>
       <r>     9.4270    -0.0003   192.0000 </r>
       <r>     9.4974    -0.0000   192.0000 </r>
       <r>     9.5679    -0.0000   192.0000 </r>
       <r>     9.6384    -0.0000   192.0000 </r>
       <r>     9.7088    -0.0000   192.0000 </r>
       <r>     9.7793     0.0000   192.0000 </r>
       <r>     9.8498     0.0000   192.0000 </r>
       <r>     9.9202     0.0000   192.0000 </r>
       <r>     9.9907     0.0000   192.0000 </r>
       <r>    10.0612     0.0000   192.0000 </r>
      </set>
     </set>
    </array>
   </total>
  </dos>
 </calculation>
 <structure name="finalpos" >
  <crystal>
   <varray name="basis" >
    <v>       5.14208051       0.00000000       0.00000000 </v>
    <v>       2.57104026       4.45317235       0.00000000 </v>
    <v>       0.00000000       0.00000000      24.19849116 </v>
   </varray>
   <i name="volume">    554.11086238 </i>
   <varray name="rec_basis" >
    <v>       0.19447381      -0.11227951       0.00000000 </v>
    <v>       0.00000000       0.22455902       0.00000000 </v>
    <v>       0.00000000       0.00000000       0.04132489 </v>
   </varray>
  </crystal>
  <varray name="positions" >
   <v>       0.16666667       0.16666667       0.41469244 </v>
   <v>       0.66666667       0.16666667       0.41469244 </v>
   <v>       0.16666667       0.66666667       0.41469244 </v>
   <v>       0.66666667       0.66666667       0.41469244 </v>
   <v>       0.83333333       0.33333333       0.50000000 </v>
   <v>       0.33333333       0.33333333       0.50000000 </v>
   <v>       0.83333333       0.83333333       0.50000000 </v>
   <v>       0.33333333       0.83333333       0.50000000 </v>
   <v>      -0.00000000      -0.00000000       0.58530756 </v>
   <v>       0.50000000      -0.00000000       0.58530756 </v>
   <v>      -0.00000000       0.50000000       0.58530756 </v>
   <v>       0.50000000       0.50000000       0.58530756 </v>
  </varray>
 </structure>
</modeling>
