   4   4   0   0
  0.1329288E+02  0.3760333E-09  0.3760333E-09  0.3760333E-09  0.5000000E-15
  1.000000000000000E-004
  CAR 
 unknown system                          
     20.91223127      2.82796692  301     11.66358434      1.00000000
      2.828  0.0000E+00  0.0000E+00
      2.888  0.0000E+00  0.0000E+00
      2.949  0.0000E+00  0.0000E+00
      3.009 -0.8639E-29 -0.5208E-30
      3.069 -0.1083E-24 -0.6526E-26
      3.129 -0.6518E-21 -0.3930E-22
      3.190 -0.1883E-17 -0.1135E-18
      3.250 -0.2519E-14 -0.1520E-15
      3.310 -0.1661E-11 -0.1003E-12
      3.370 -0.5180E-09 -0.3132E-10
      3.431 -0.7622E-07 -0.4626E-08
      3.491 -0.5227E-05 -0.3197E-06
      3.551 -0.1631E-03 -0.1015E-04
      3.612 -0.2191E-02 -0.1422E-03
      3.672 -0.1054E-01 -0.7777E-03
      3.732  0.2437E-02 -0.6308E-03
      3.792  0.1242E+00  0.6859E-02
      3.853  0.2505E+00  0.2196E-01
      3.913  0.1550E+00  0.3131E-01
      3.973  0.1306E-01  0.3209E-01
      4.034 -0.2505E-01  0.3058E-01
      4.094 -0.4071E-01  0.2813E-01
      4.154  0.9113E-01  0.3362E-01
      4.214  0.5528E+00  0.6694E-01
      4.275  0.7259E+00  0.1107E+00
      4.335  0.2836E+00  0.1278E+00
      4.395 -0.2717E-01  0.1262E+00
      4.456 -0.6339E-01  0.1223E+00
      4.516  0.5790E-01  0.1258E+00
      4.576  0.5034E+00  0.1562E+00
      4.636  0.7431E+00  0.2010E+00
      4.697  0.3293E+00  0.2208E+00
      4.757 -0.2796E-01  0.2191E+00
      4.817 -0.4473E-01  0.2164E+00
      4.878  0.2336E+00  0.2305E+00
      4.938  0.7629E+00  0.2765E+00
      4.998  0.8472E+00  0.3276E+00
      5.058  0.2988E+00  0.3456E+00
      5.119 -0.9091E-01  0.3401E+00
      5.179  0.7353E-01  0.3445E+00
      5.239  0.9296E+00  0.4006E+00
      5.299  0.1449E+01  0.4879E+00
      5.360  0.1171E+01  0.5585E+00
      5.420  0.1340E+01  0.6393E+00
      5.480  0.1068E+01  0.7037E+00
      5.541  0.6029E+00  0.7401E+00
      5.601  0.1772E+01  0.8469E+00
      5.661  0.3759E+01  0.1073E+01
      5.721  0.4570E+01  0.1349E+01
      5.782  0.4632E+01  0.1628E+01
      5.842  0.5065E+01  0.1933E+01
      5.902  0.5460E+01  0.2263E+01
      5.963  0.6462E+01  0.2652E+01
      6.023  0.6979E+01  0.3073E+01
      6.083  0.5749E+01  0.3419E+01
      6.143  0.7416E+01  0.3866E+01
      6.204  0.9839E+01  0.4459E+01
      6.264  0.9258E+01  0.5018E+01
      6.324  0.9333E+01  0.5580E+01
      6.385  0.9138E+01  0.6131E+01
      6.445  0.6739E+01  0.6537E+01
      6.505  0.6128E+01  0.6907E+01
      6.565  0.7517E+01  0.7360E+01
      6.626  0.7401E+01  0.7806E+01
      6.686  0.6619E+01  0.8205E+01
      6.746  0.6664E+01  0.8607E+01
      6.807  0.6658E+01  0.9008E+01
      6.867  0.5640E+01  0.9348E+01
      6.927  0.5547E+01  0.9682E+01
      6.987  0.5300E+01  0.1000E+02
      7.048  0.2759E+01  0.1017E+02
      7.108  0.2018E+01  0.1029E+02
      7.168  0.4041E+01  0.1053E+02
      7.228  0.6822E+01  0.1094E+02
      7.289  0.9098E+01  0.1149E+02
      7.349  0.8532E+01  0.1201E+02
      7.409  0.6362E+01  0.1239E+02
      7.470  0.4560E+01  0.1267E+02
      7.530  0.2994E+01  0.1285E+02
      7.590  0.2804E+01  0.1302E+02
      7.650  0.5956E+01  0.1337E+02
      7.711  0.8287E+01  0.1387E+02
      7.771  0.5199E+01  0.1419E+02
      7.831  0.3336E+01  0.1439E+02
      7.892  0.5418E+01  0.1471E+02
      7.952  0.7060E+01  0.1514E+02
      8.012  0.6955E+01  0.1556E+02
      8.072  0.5417E+01  0.1589E+02
      8.133  0.5012E+01  0.1619E+02
      8.193  0.6520E+01  0.1658E+02
      8.253  0.6560E+01  0.1698E+02
      8.314  0.8416E+01  0.1748E+02
      8.374  0.1040E+02  0.1811E+02
      8.434  0.7276E+01  0.1855E+02
      8.494  0.5397E+01  0.1888E+02
      8.555  0.8394E+01  0.1938E+02
      8.615  0.9856E+01  0.1998E+02
      8.675  0.1005E+02  0.2058E+02
      8.735  0.1109E+02  0.2125E+02
      8.796  0.9807E+01  0.2184E+02
      8.856  0.8623E+01  0.2236E+02
      8.916  0.8777E+01  0.2289E+02
      8.977  0.6967E+01  0.2331E+02
      9.037  0.5990E+01  0.2367E+02
      9.097  0.5888E+01  0.2403E+02
      9.157  0.5056E+01  0.2433E+02
      9.218  0.4420E+01  0.2460E+02
      9.278  0.5808E+01  0.2495E+02
      9.338  0.8006E+01  0.2543E+02
      9.399  0.8022E+01  0.2591E+02
      9.459  0.6456E+01  0.2630E+02
      9.519  0.3965E+01  0.2654E+02
      9.579  0.2814E+01  0.2671E+02
      9.640  0.3821E+01  0.2694E+02
      9.700  0.3761E+01  0.2717E+02
      9.760  0.4337E+01  0.2743E+02
      9.821  0.6258E+01  0.2781E+02
      9.881  0.8278E+01  0.2831E+02
      9.941  0.1000E+02  0.2891E+02
     10.001  0.8448E+01  0.2942E+02
     10.062  0.7506E+01  0.2987E+02
     10.122  0.8314E+01  0.3037E+02
     10.182  0.7113E+01  0.3080E+02
     10.243  0.4428E+01  0.3107E+02
     10.303  0.3649E+01  0.3129E+02
     10.363  0.3984E+01  0.3153E+02
     10.423  0.4306E+01  0.3179E+02
     10.484  0.5485E+01  0.3212E+02
     10.544  0.7465E+01  0.3257E+02
     10.604  0.8896E+01  0.3310E+02
     10.664  0.7771E+01  0.3357E+02
     10.725  0.5279E+01  0.3389E+02
     10.785  0.4862E+01  0.3418E+02
     10.845  0.3723E+01  0.3441E+02
     10.906  0.1342E+01  0.3449E+02
     10.966  0.2600E+01  0.3465E+02
     11.026  0.6784E+01  0.3505E+02
     11.086  0.8777E+01  0.3558E+02
     11.147  0.8245E+01  0.3608E+02
     11.207  0.6463E+01  0.3647E+02
     11.267  0.4906E+01  0.3677E+02
     11.328  0.4690E+01  0.3705E+02
     11.388  0.5253E+01  0.3737E+02
     11.448  0.5658E+01  0.3771E+02
     11.508  0.8025E+01  0.3819E+02
     11.569  0.1204E+02  0.3892E+02
     11.629  0.1230E+02  0.3966E+02
     11.689  0.9314E+01  0.4022E+02
     11.750  0.6937E+01  0.4064E+02
     11.810  0.3973E+01  0.4088E+02
     11.870  0.3134E+01  0.4107E+02
     11.930  0.6544E+01  0.4146E+02
     11.991  0.7136E+01  0.4189E+02
     12.051  0.3551E+01  0.4210E+02
     12.111  0.1212E+01  0.4218E+02
     12.172  0.2558E+00  0.4219E+02
     12.232 -0.3908E-01  0.4219E+02
     12.292  0.3802E+00  0.4221E+02
     12.352  0.7455E+00  0.4226E+02
     12.413  0.4051E+00  0.4228E+02
     12.473  0.1855E-01  0.4228E+02
     12.533 -0.3494E-01  0.4228E+02
     12.593 -0.2233E-01  0.4228E+02
     12.654 -0.3787E-01  0.4228E+02
     12.714  0.1130E+00  0.4228E+02
     12.774  0.5650E+00  0.4232E+02
     12.835  0.6088E+00  0.4236E+02
     12.895  0.2282E+00  0.4237E+02
     12.955  0.9947E+00  0.4243E+02
     13.015  0.2732E+01  0.4259E+02
     13.076  0.3243E+01  0.4279E+02
     13.136  0.1957E+01  0.4291E+02
     13.196  0.8472E+00  0.4296E+02
     13.257  0.1577E+01  0.4305E+02
     13.317  0.2018E+01  0.4318E+02
     13.377  0.8339E+00  0.4323E+02
     13.437 -0.2089E-01  0.4322E+02
     13.498 -0.8055E-01  0.4322E+02
     13.558 -0.5404E-01  0.4322E+02
     13.618 -0.1064E+00  0.4321E+02
     13.679  0.2319E+00  0.4322E+02
     13.739  0.1558E+01  0.4332E+02
     13.799  0.2611E+01  0.4348E+02
     13.859  0.1768E+01  0.4358E+02
     13.920  0.3269E+00  0.4360E+02
     13.980 -0.1767E+00  0.4359E+02
     14.040  0.1626E+00  0.4360E+02
     14.100  0.1105E+01  0.4367E+02
     14.161  0.1373E+01  0.4375E+02
     14.221  0.9754E+00  0.4381E+02
     14.281  0.1348E+01  0.4389E+02
     14.342  0.1158E+01  0.4396E+02
     14.402  0.2115E+00  0.4397E+02
     14.462 -0.1507E+00  0.4396E+02
     14.522  0.3248E+00  0.4398E+02
     14.583  0.1444E+01  0.4407E+02
     14.643  0.1796E+01  0.4418E+02
     14.703  0.1115E+01  0.4425E+02
     14.764  0.1120E+01  0.4431E+02
     14.824  0.1417E+01  0.4440E+02
     14.884  0.6230E+00  0.4444E+02
     14.944  0.1256E+00  0.4444E+02
     15.005  0.9188E+00  0.4450E+02
     15.065  0.1442E+01  0.4459E+02
     15.125  0.9093E+00  0.4464E+02
     15.186  0.8219E+00  0.4469E+02
     15.246  0.1046E+01  0.4475E+02
     15.306  0.8037E+00  0.4480E+02
     15.366  0.5778E+00  0.4484E+02
     15.427  0.7926E+00  0.4488E+02
     15.487  0.1297E+01  0.4496E+02
     15.547  0.1734E+01  0.4507E+02
     15.608  0.1370E+01  0.4515E+02
     15.668  0.5405E+00  0.4518E+02
     15.728 -0.4289E-01  0.4518E+02
     15.788  0.5402E+00  0.4521E+02
     15.849  0.2567E+01  0.4537E+02
     15.909  0.3410E+01  0.4557E+02
     15.969  0.1544E+01  0.4567E+02
     16.029  0.1152E-01  0.4567E+02
     16.090 -0.1353E+00  0.4566E+02
     16.150 -0.2822E-01  0.4566E+02
     16.210 -0.4396E-02  0.4566E+02
     16.271 -0.2369E-01  0.4565E+02
     16.331 -0.8102E-01  0.4565E+02
     16.391  0.9848E-01  0.4566E+02
     16.451  0.9851E+00  0.4572E+02
     16.512  0.1919E+01  0.4583E+02
     16.572  0.2015E+01  0.4595E+02
     16.632  0.1208E+01  0.4603E+02
     16.693  0.1843E+00  0.4604E+02
     16.753 -0.1868E+00  0.4602E+02
     16.813  0.1411E+00  0.4603E+02
     16.873  0.1431E+01  0.4612E+02
     16.934  0.2582E+01  0.4628E+02
     16.994  0.1858E+01  0.4639E+02
     17.054  0.3646E+00  0.4641E+02
     17.115  0.1179E+00  0.4642E+02
     17.175  0.1085E+01  0.4648E+02
     17.235  0.1385E+01  0.4657E+02
     17.295  0.5802E+00  0.4660E+02
     17.356  0.4457E+00  0.4663E+02
     17.416  0.6623E+00  0.4667E+02
     17.476  0.3549E+00  0.4669E+02
     17.537  0.4075E+00  0.4671E+02
     17.597  0.7227E+00  0.4676E+02
     17.657  0.4006E+00  0.4678E+02
     17.717 -0.5569E-01  0.4678E+02
     17.778  0.2985E-01  0.4678E+02
     17.838  0.9540E+00  0.4684E+02
     17.898  0.2064E+01  0.4696E+02
     17.958  0.2135E+01  0.4709E+02
     18.019  0.1084E+01  0.4716E+02
     18.079  0.5787E-01  0.4716E+02
     18.139 -0.7895E-01  0.4715E+02
     18.200  0.6966E+00  0.4720E+02
     18.260  0.1497E+01  0.4729E+02
     18.320  0.9524E+00  0.4734E+02
     18.380  0.9410E-01  0.4735E+02
     18.441 -0.9278E-01  0.4734E+02
     18.501 -0.5111E-01  0.4734E+02
     18.561  0.1917E+00  0.4735E+02
     18.622  0.6690E+00  0.4739E+02
     18.682  0.6404E+00  0.4743E+02
     18.742  0.1593E+00  0.4744E+02
     18.802 -0.6161E-01  0.4744E+02
     18.863 -0.9552E-01  0.4743E+02
     18.923  0.1678E+00  0.4744E+02
     18.983  0.1047E+01  0.4750E+02
     19.044  0.1586E+01  0.4760E+02
     19.104  0.1591E+01  0.4770E+02
     19.164  0.1442E+01  0.4778E+02
     19.224  0.5861E+00  0.4782E+02
     19.285 -0.2488E-01  0.4782E+02
     19.345 -0.5766E-01  0.4781E+02
     19.405 -0.1046E-01  0.4781E+02
     19.465 -0.7083E-03  0.4781E+02
     19.526 -0.2188E-04  0.4781E+02
     19.586 -0.6163E-04  0.4781E+02
     19.646 -0.1657E-02  0.4781E+02
     19.707 -0.1893E-01  0.4781E+02
     19.767 -0.7164E-01  0.4781E+02
     19.827  0.8646E-01  0.4781E+02
     19.887  0.9306E+00  0.4787E+02
     19.948  0.1503E+01  0.4796E+02
     20.008  0.7455E+00  0.4800E+02
     20.068  0.1462E-01  0.4800E+02
     20.129 -0.6325E-01  0.4800E+02
     20.189 -0.1315E-01  0.4800E+02
     20.249 -0.9786E-03  0.4800E+02
     20.309 -0.3136E-04  0.4800E+02
     20.370 -0.4573E-06  0.4800E+02
     20.430 -0.3108E-08  0.4800E+02
     20.490 -0.9963E-11  0.4800E+02
     20.551 -0.1519E-13  0.4800E+02
     20.611  0.0000E+00  0.4800E+02
     20.671  0.0000E+00  0.4800E+02
     20.731  0.0000E+00  0.4800E+02
     20.792  0.0000E+00  0.4800E+02
     20.852  0.0000E+00  0.4800E+02
     20.912  0.0000E+00  0.4800E+02
