    4    4    1    1
  0.1329288E+02  0.3760333E-09  0.3760333E-09  0.3760333E-09  0.5000000E-15
  1.000000000000000E-004
  CAR 
 unknown system                          
     40     20     24
 
  0.6250000E-01  0.6250000E-01  0.6250000E-01  0.1562500E-01
    1        3.827967   1.000000
    2        5.401814   1.000000
    3        5.401814   1.000000
    4        5.401814   1.000000
    5        5.733236   1.000000
    6        5.733236   1.000000
    7        5.733236   1.000000
    8        8.248210   1.000000
    9        8.367095   1.000000
   10        8.367095   1.000000
   11       10.190247   1.000000
   12       10.190247   1.000000
   13       11.496433   1.019805
   14       11.496433   1.019805
   15       11.496433   1.019805
   16       11.582287   0.993294
   17       11.582287   0.993294
   18       11.582287   0.993294
   19       11.960100  -0.000113
   20       11.960100  -0.000113
   21       11.960100  -0.000113
   22       15.255791   0.000000
   23       15.255791   0.000000
   24       15.255791   0.000000
 
  0.1875000E+00  0.6250000E-01  0.6250000E-01  0.4687500E-01
    1        4.228680   1.000000
    2        5.609531   1.000000
    3        5.655156   1.000000
    4        5.655156   1.000000
    5        5.896296   1.000000
    6        6.001485   1.000000
    7        6.001485   1.000000
    8        8.033943   1.000000
    9        8.543586   1.000000
   10        8.550683   1.000000
   11        9.953542   1.000000
   12       10.300702   1.000000
   13       10.505579   1.000000
   14       10.505579   1.000000
   15       11.113911   1.000000
   16       11.186658   1.000000
   17       11.186658   1.000000
   18       11.228819   1.000000
   19       11.730460   0.051511
   20       11.933703  -0.000450
   21       11.933703  -0.000450
   22       13.802709  -0.000000
   23       16.565912   0.000000
   24       16.565912   0.000000
 
  0.3125000E+00  0.6250000E-01  0.6250000E-01  0.4687500E-01
    1        4.956550   1.000000
    2        5.940170   1.000000
    3        6.096149   1.000000
    4        6.096149   1.000000
    5        6.208995   1.000000
    6        6.510940   1.000000
    7        6.510940   1.000000
    8        7.627454   1.000000
    9        8.873605   1.000000
   10        8.909377   1.000000
   11        9.269349   1.000000
   12        9.269349   1.000000
   13        9.641547   1.000000
   14       10.302485   1.000000
   15       10.508693   1.000000
   16       10.638414   1.000000
   17       10.638414   1.000000
   18       10.694484   1.000000
   19       11.428980   1.002240
   20       11.923856  -0.000723
   21       11.923856  -0.000723
   22       12.077525  -0.000000
   23       18.236390   0.000000
   24       18.236390   0.000000
 
  0.4375000E+00  0.6250000E-01  0.6250000E-01  0.4687500E-01
    1        5.771842   1.000000
    2        6.142880   1.000000
    3        6.519667   1.000000
    4        6.519667   1.000000
    5        6.637733   1.000000
    6        7.132627   1.000000
    7        7.215927   1.000000
    8        7.215927   1.000000
    9        8.152069   1.000000
   10        8.152069   1.000000
   11        9.017114   1.000000
   12        9.410850   1.000000
   13        9.421286   1.000000
   14        9.860739   1.000000
   15       10.043876   1.000000
   16       10.152956   1.000000
   17       10.152956   1.000000
   18       10.728960   1.000000
   19       10.789104   1.000000
   20       11.107619   1.000000
   21       11.921078  -0.000823
   22       11.921078  -0.000823
   23       19.912231   0.000000
   24       19.912231   0.000000
 
  0.1875000E+00  0.1875000E+00  0.6250000E-01  0.4687500E-01
    1        4.596356   1.000000
    2        5.811496   1.000000
    3        5.861076   1.000000
    4        5.861076   1.000000
    5        6.158462   1.000000
    6        6.158462   1.000000
    7        6.317748   1.000000
    8        7.962065   1.000000
    9        8.614341   1.000000
   10        8.645186   1.000000
   11        9.915293   1.000000
   12        9.999410   1.000000
   13        9.999410   1.000000
   14       10.002791   1.000000
   15       10.324566   1.000000
   16       10.848795   1.000000
   17       11.029325   1.000000
   18       11.029325   1.000000
   19       11.691362   0.274677
   20       11.691362   0.274677
   21       11.741444   0.015634
   22       15.024851   0.000000
   23       15.024851   0.000000
   24       17.567711   0.000000
 
  0.3125000E+00  0.1875000E+00  0.6250000E-01  0.9375000E-01
    1        5.260925   1.000000
    2        6.166418   1.000000
    3        6.178521   1.000000
    4        6.307703   1.000000
    5        6.469763   1.000000
    6        6.643898   1.000000
    7        6.812342   1.000000
    8        7.679815   1.000000
    9        8.753728   1.000000
   10        8.861612   1.000000
   11        8.904606   1.000000
   12        9.096085   1.000000
   13        9.295387   1.000000
   14        9.761577   1.000000
   15       10.414207   1.000000
   16       10.537049   1.000000
   17       10.612295   1.000000
   18       10.634556   1.000000
   19       11.336210   1.000019
   20       11.594616   0.956219
   21       11.606218   0.907845
   22       13.258225  -0.000000
   23       16.469701   0.000000
   24       18.996507   0.000000
 
  0.4375000E+00  0.1875000E+00  0.6250000E-01  0.9375000E-01
    1        6.013685   1.000000
    2        6.373211   1.000000
    3        6.652090   1.000000
    4        6.766737   1.000000
    5        6.870712   1.000000
    6        7.226481   1.000000
    7        7.265746   1.000000
    8        7.280932   1.000000
    9        7.969481   1.000000
   10        8.174850   1.000000
   11        8.620344   1.000000
   12        8.691440   1.000000
   13        9.350739   1.000000
   14        9.916066   1.000000
   15       10.046659   1.000000
   16       10.088759   1.000000
   17       10.138046   1.000000
   18       10.782147   1.000000
   19       11.130605   1.000000
   20       11.553770   1.032543
   21       11.554128   1.032362
   22       11.910454  -0.001330
   23       17.858974   0.000000
   24       19.122240   0.000000
 
  0.3125000E+00  0.3125000E+00  0.6250000E-01  0.4687500E-01
    1        5.793345   1.000000
    2        6.392922   1.000000
    3        6.595402   1.000000
    4        6.595402   1.000000
    5        6.952721   1.000000
    6        6.952721   1.000000
    7        7.241919   1.000000
    8        7.669782   1.000000
    9        8.340611   1.000000
   10        8.340611   1.000000
   11        8.669655   1.000000
   12        8.694190   1.000000
   13        9.013037   1.000000
   14        9.655782   1.000000
   15       10.056416   1.000000
   16       10.300575   1.000000
   17       10.300575   1.000000
   18       11.106801   1.000000
   19       11.106801   1.000000
   20       11.166349   1.000000
   21       11.260726   1.000000
   22       14.579838   0.000000
   23       14.579838   0.000000
   24       18.619263   0.000000
 
  0.4375000E+00  0.3125000E+00  0.6250000E-01  0.9375000E-01
    1        6.382495   1.000000
    2        6.710547   1.000000
    3        6.794687   1.000000
    4        7.108041   1.000000
    5        7.271867   1.000000
    6        7.343009   1.000000
    7        7.471779   1.000000
    8        7.533678   1.000000
    9        7.823686   1.000000
   10        8.055235   1.000000
   11        8.178947   1.000000
   12        8.377834   1.000000
   13        9.290677   1.000000
   14        9.771256   1.000000
   15        9.783172   1.000000
   16        9.901377   1.000000
   17        9.923750   1.000000
   18       10.510838   1.000000
   19       11.001245   1.000000
   20       11.049948   1.000000
   21       11.969609  -0.000066
   22       13.062005  -0.000000
   23       15.879679   0.000000
   24       17.186208   0.000000
 
  0.4375000E+00  0.4375000E+00  0.6250000E-01  0.4687500E-01
    1        6.711983   1.000000
    2        6.919820   1.000000
    3        6.957970   1.000000
    4        6.957970   1.000000
    5        7.649358   1.000000
    6        7.683288   1.000000
    7        7.683288   1.000000
    8        7.719424   1.000000
    9        7.923812   1.000000
   10        7.923812   1.000000
   11        8.174306   1.000000
   12        8.275595   1.000000
   13        9.212752   1.000000
   14        9.469888   1.000000
   15        9.506543   1.000000
   16        9.506543   1.000000
   17        9.955579   1.000000
   18       10.411293   1.000000
   19       10.411293   1.000000
   20       10.616040   1.000000
   21       13.012910  -0.000000
   22       14.274162  -0.000000
   23       14.274162  -0.000000
   24       15.601028   0.000000
 
  0.1875000E+00  0.1875000E+00  0.1875000E+00  0.1562500E-01
    1        4.897001   1.000000
    2        5.971524   1.000000
    3        5.971524   1.000000
    4        5.971524   1.000000
    5        6.496576   1.000000
    6        6.496576   1.000000
    7        6.496576   1.000000
    8        8.019142   1.000000
    9        8.643750   1.000000
   10        8.643750   1.000000
   11        9.609332   1.000000
   12        9.609332   1.000000
   13        9.609332   1.000000
   14       10.161193   1.000000
   15       10.161193   1.000000
   16       10.433553   1.000000
   17       10.433553   1.000000
   18       10.433553   1.000000
   19       11.809635  -0.029371
   20       11.809635  -0.029371
   21       11.809635  -0.029371
   22       15.818021   0.000000
   23       15.818021   0.000000
   24       15.818021   0.000000
 
  0.3125000E+00  0.1875000E+00  0.1875000E+00  0.4687500E-01
    1        5.420659   1.000000
    2        6.182209   1.000000
    3        6.277656   1.000000
    4        6.277656   1.000000
    5        6.869215   1.000000
    6        6.965698   1.000000
    7        6.965698   1.000000
    8        7.934657   1.000000
    9        8.691485   1.000000
   10        8.764109   1.000000
   11        8.841095   1.000000
   12        8.841095   1.000000
   13        9.007236   1.000000
   14        9.904557   1.000000
   15       10.094813   1.000000
   16       10.094813   1.000000
   17       10.114470   1.000000
   18       10.561651   1.000000
   19       11.667898   0.463534
   20       11.667898   0.463534
   21       11.714286   0.126070
   22       13.804038  -0.000000
   23       16.942925   0.000000
   24       16.942925   0.000000
 
  0.4375000E+00  0.1875000E+00  0.1875000E+00  0.4687500E-01
    1        5.978223   1.000000
    2        6.259481   1.000000
    3        6.745941   1.000000
    4        6.745941   1.000000
    5        7.158414   1.000000
    6        7.158414   1.000000
    7        7.355539   1.000000
    8        7.717601   1.000000
    9        8.329038   1.000000
   10        8.329038   1.000000
   11        8.504389   1.000000
   12        8.509116   1.000000
   13        9.018122   1.000000
   14        9.408915   1.000000
   15        9.803554   1.000000
   16        9.803554   1.000000
   17       10.745081   1.000000
   18       11.015504   1.000000
   19       11.428917   1.002235
   20       11.525922   1.032592
   21       11.525922   1.032592
   22       12.044584  -0.000000
   23       17.943910   0.000000
   24       17.943910   0.000000
 
  0.3125000E+00  0.3125000E+00  0.1875000E+00  0.4687500E-01
    1        5.691127   1.000000
    2        6.347435   1.000000
    3        6.347435   1.000000
    4        6.374553   1.000000
    5        7.316330   1.000000
    6        7.333555   1.000000
    7        7.333555   1.000000
    8        8.250957   1.000000
    9        8.531050   1.000000
   10        8.531050   1.000000
   11        8.652531   1.000000
   12        8.701681   1.000000
   13        8.755507   1.000000
   14        9.614739   1.000000
   15        9.627044   1.000000
   16        9.627044   1.000000
   17       10.195678   1.000000
   18       10.976427   1.000000
   19       11.549000   1.034392
   20       11.594770   0.955667
   21       11.594770   0.955667
   22       14.787180   0.000000
   23       14.787180   0.000000
   24       17.376922   0.000000
 
  0.4375000E+00  0.3125000E+00  0.1875000E+00  0.9375000E-01
    1        5.998069   1.000000
    2        6.248968   1.000000
    3        6.553957   1.000000
    4        6.567087   1.000000
    5        7.409262   1.000000
    6        7.423213   1.000000
    7        7.878740   1.000000
    8        8.312909   1.000000
    9        8.350894   1.000000
   10        8.422776   1.000000
   11        8.542033   1.000000
   12        8.720803   1.000000
   13        8.845096   1.000000
   14        9.174640   1.000000
   15        9.358374   1.000000
   16        9.419271   1.000000
   17       10.605330   1.000000
   18       11.242733   1.000000
   19       11.365084   1.000102
   20       11.376493   1.000189
   21       11.753201  -0.010728
   22       12.982228  -0.000000
   23       15.868904   0.000000
   24       16.881720   0.000000
 
  0.4375000E+00  0.4375000E+00  0.1875000E+00  0.4687500E-01
    1        6.106669   1.000000
    2        6.305003   1.000000
    3        6.305003   1.000000
    4        6.400042   1.000000
    5        7.684850   1.000000
    6        7.853455   1.000000
    7        7.853455   1.000000
    8        8.178012   1.000000
    9        8.746730   1.000000
   10        8.746730   1.000000
   11        8.750503   1.000000
   12        8.936675   1.000000
   13        9.004567   1.000000
   14        9.022279   1.000000
   15        9.078973   1.000000
   16        9.078973   1.000000
   17       10.562528   1.000000
   18       10.992456   1.000000
   19       10.992456   1.000000
   20       11.080871   1.000000
   21       12.784300  -0.000000
   22       14.111486  -0.000000
   23       14.111486  -0.000000
   24       15.393954   0.000000
 
  0.3125000E+00  0.3125000E+00  0.3125000E+00  0.1562500E-01
    1        5.654224   1.000000
    2        6.207713   1.000000
    3        6.207713   1.000000
    4        6.207713   1.000000
    5        7.601125   1.000000
    6        7.601125   1.000000
    7        7.601125   1.000000
    8        8.532722   1.000000
    9        8.532722   1.000000
   10        8.905643   1.000000
   11        8.905643   1.000000
   12        8.905643   1.000000
   13        9.133036   1.000000
   14        9.133036   1.000000
   15        9.133036   1.000000
   16        9.154683   1.000000
   17       10.781988   1.000000
   18       10.781988   1.000000
   19       11.716234   0.115700
   20       11.716234   0.115700
   21       11.716234   0.115700
   22       15.171673   0.000000
   23       15.171673   0.000000
   24       15.171673   0.000000
 
  0.4375000E+00  0.3125000E+00  0.3125000E+00  0.4687500E-01
    1        5.747971   1.000000
    2        5.956301   1.000000
    3        6.154371   1.000000
    4        6.154371   1.000000
    5        7.678421   1.000000
    6        7.678421   1.000000
    7        8.007957   1.000000
    8        8.344217   1.000000
    9        8.551512   1.000000
   10        8.759381   1.000000
   11        8.898108   1.000000
   12        8.898108   1.000000
   13        9.164503   1.000000
   14        9.312838   1.000000
   15        9.312838   1.000000
   16        9.451689   1.000000
   17       11.294048   1.000001
   18       11.448040   1.004687
   19       11.574245   1.010236
   20       11.574245   1.010236
   21       11.630012   0.767138
   22       13.105885  -0.000000
   23       15.510391   0.000000
   24       15.510391   0.000000
 
  0.4375000E+00  0.4375000E+00  0.3125000E+00  0.4687500E-01
    1        5.696874   1.000000
    2        5.842046   1.000000
    3        5.842046   1.000000
    4        5.908728   1.000000
    5        7.915964   1.000000
    6        8.021710   1.000000
    7        8.021710   1.000000
    8        8.281960   1.000000
    9        8.420973   1.000000
   10        8.565339   1.000000
   11        8.565339   1.000000
   12        8.606597   1.000000
   13        9.884750   1.000000
   14        9.884750   1.000000
   15        9.898623   1.000000
   16       10.211433   1.000000
   17       11.134326   1.000000
   18       11.484670   1.014853
   19       11.484670   1.014853
   20       11.488702   1.016474
   21       12.320664  -0.000000
   22       13.742732  -0.000000
   23       13.742732  -0.000000
   24       14.651772   0.000000
 
  0.4375000E+00  0.4375000E+00  0.4375000E+00  0.1562500E-01
    1        5.528089   1.000000
    2        5.603738   1.000000
    3        5.603738   1.000000
    4        5.603738   1.000000
    5        8.149949   1.000000
    6        8.149949   1.000000
    7        8.149949   1.000000
    8        8.281794   1.000000
    9        8.281794   1.000000
   10        8.346832   1.000000
   11        8.346832   1.000000
   12        8.346832   1.000000
   13       10.788477   1.000000
   14       10.788477   1.000000
   15       10.788477   1.000000
   16       11.531699   1.034261
   17       11.531699   1.034261
   18       11.659539   0.534201
   19       11.659539   0.534201
   20       11.659539   0.534201
   21       11.806864  -0.030514
   22       13.292223  -0.000000
   23       13.292223  -0.000000
   24       13.292223  -0.000000
