       N       E                     dE             d eps       ncg     rms          rms(c)
DAV:   1     0.149561355937E+03    0.14956E+03   -0.19115E+04   960   0.133E+03
DAV:   2    -0.203925473967E+02   -0.16995E+03   -0.16959E+03  1368   0.254E+02
DAV:   3    -0.212654194052E+02   -0.87287E+00   -0.87181E+00   960   0.273E+01
DAV:   4    -0.212696033712E+02   -0.41840E-02   -0.41839E-02  1104   0.143E+00
DAV:   5    -0.212696495022E+02   -0.46131E-04   -0.46129E-04  1008   0.147E-01    0.211E+01
DAV:   6    -0.201998083010E+02    0.10698E+01   -0.42558E+00   960   0.145E+01    0.106E+01
DAV:   7    -0.201143401485E+02    0.85468E-01   -0.14538E-01  1008   0.228E+00    0.429E+00
DAV:   8    -0.200983808531E+02    0.15959E-01   -0.14245E-02   960   0.956E-01    0.301E-01
DAV:   9    -0.200982379878E+02    0.14287E-03   -0.32231E-04   624   0.139E-01    0.238E-02
DAV:  10    -0.200982600847E+02   -0.22097E-04   -0.15969E-05   480   0.235E-02
   1 F= -.20098260E+02 E0= -.20098157E+02  d E =-.308867E-03
