 vasp.5.4.1 05Feb16 (build Feb 08 2018 09:21:51) complex                        
  
 executed on             LinuxIFC date 2019.11.20  21:32:19
 running on   24 total cores
 distrk:  each k-point on   24 cores,    1 groups
 distr:  one band on NCORES_PER_BAND=   1 cores,   24 groups


--------------------------------------------------------------------------------------------------------


 INCAR:
 POTCAR:    PAW_PBE Pd 04Jan2005                  

 ----------------------------------------------------------------------------- 
|                                                                             |
|           W    W    AA    RRRRR   N    N  II  N    N   GGGG   !!!           |
|           W    W   A  A   R    R  NN   N  II  NN   N  G    G  !!!           |
|           W    W  A    A  R    R  N N  N  II  N N  N  G       !!!           |
|           W WW W  AAAAAA  RRRRR   N  N N  II  N  N N  G  GGG   !            |
|           WW  WW  A    A  R   R   N   NN  II  N   NN  G    G                |
|           W    W  A    A  R    R  N    N  II  N    N   GGGG   !!!           |
|                                                                             |
|      For optimal performance we recommend to set                            |
|        NCORE= 4 - approx SQRT( number of cores)                             |
|      NCORE specifies how many cores store one orbital (NPAR=cpu/NCORE).     |
|      This setting can  greatly improve the performance of VASP for DFT.     |
|      The default, NPAR=number of cores might be grossly inefficient         |
|      on modern multi-core architectures or massively parallel machines.     |
|      Do your own testing !!!!                                               |
|      Unfortunately you need to use the default for GW and RPA calculations. |
|      (for HF NCORE is supported but not extensively tested yet)             |
|                                                                             |
 ----------------------------------------------------------------------------- 

 POTCAR:    PAW_PBE Pd 04Jan2005                  
   VRHFIN =Pd : s1 d9                                                           
   LEXCH  = PE                                                                  
   EATOM  =   809.7530 eV,   59.5152 Ry                                         
                                                                                
   TITEL  = PAW_PBE Pd 04Jan2005                                                
   LULTRA =        F    use ultrasoft PP ?                                      
   IUNSCR =        1    unscreen: 0-lin 1-nonlin 2-no                           
   RPACOR =    2.000    partial core radius                                     
   POMASS =  106.420; ZVAL   =   10.000    mass and valenz                      
   RCORE  =    2.600    outmost cutoff radius                                   
   RWIGS  =    2.710; RWIGS  =    1.434    wigner-seitz radius (au A)           
   ENMAX  =  250.925; ENMIN  =  188.194 eV                                      
   ICORE  =        3    local potential                                         
   LCOR   =        T    correct aug charges                                     
   LPAW   =        T    paw PP                                                  
   EAUG   =  416.230                                                            
   DEXC   =    0.000                                                            
   RMAX   =    2.653    core radius for proj-oper                               
   RAUG   =    1.300    factor for augmentation sphere                          
   RDEP   =    2.734    radius for radial grids                                 
   RDEPT  =    2.103    core radius for aug-charge                              
                                                                                
   Atomic configuration                                                         
   12 entries                                                                   
     n  l   j            E        occ.                                          
     1  0  0.50    -24164.6631   2.0000                                         
     2  0  0.50     -3530.9218   2.0000                                         
     2  1  1.50     -3165.6822   6.0000                                         
     3  0  0.50      -639.4577   2.0000                                         
     3  1  1.50      -519.4532   6.0000                                         
     3  2  2.50      -328.9757  10.0000                                         
     4  0  0.50       -88.7014   2.0000                                         
     4  1  1.50       -54.4540   6.0000                                         
     4  2  2.50        -6.6878   9.0000                                         
     5  0  0.50        -4.3543   1.0000                                         
     5  1  0.50        -1.3606   0.0000                                         
     4  3  2.50        -1.3606   0.0000                                         
   Description                                                                  
     l       E           TYP  RCUT    TYP  RCUT                                 
     2     -6.6878251     23  2.400                                             
     2     -8.0484077     23  2.400                                             
     0     -4.3542939     23  2.400                                             
     0      4.3406793     23  2.400                                             
     1     -4.0817478     23  2.600                                             
     1     15.8380318     23  2.600                                             
     3     -4.0817478     23  2.400                                             
  local pseudopotential read in
  partial core-charges read in
  partial kinetic energy density read in
  atomic valenz-charges read in
  non local Contribution for L=           2  read in
    real space projection operators read in
  non local Contribution for L=           2  read in
    real space projection operators read in
  non local Contribution for L=           0  read in
    real space projection operators read in
  non local Contribution for L=           0  read in
    real space projection operators read in
  non local Contribution for L=           1  read in
    real space projection operators read in
  non local Contribution for L=           1  read in
    real space projection operators read in
    PAW grid and wavefunctions read in
 
   number of l-projection  operators is LMAX  =           6
   number of lm-projection operators is LMMAX =          18
 
  PAW_PBE Pd 04Jan2005                  :
 energy of atom  1       EATOM= -809.7530
 kinetic energy error for atom=    0.0091 (will be added to EATOM!!)
 
 
 POSCAR: Pd                                      
  positions in cartesian coordinates
  No initial velocities read in
 exchange correlation table for  LEXCH =        8
   RHO(1)=    0.500       N(1)  =     2000
   RHO(2)=  100.500       N(2)  =     4000
 


--------------------------------------------------------------------------------------------------------


 ion  position               nearest neighbor table
   1  0.000  0.000  0.000-   2 2.66   3 2.66   4 2.66   2 2.66   3 2.66   2 2.66   4 2.66   2 2.66
                             3 2.66   4 2.66   3 2.66   4 2.66
   2  0.000  0.500  0.500-   1 2.66   3 2.66   4 2.66   1 2.66   4 2.66   1 2.66   3 2.66   1 2.66
                             3 2.66   4 2.66   4 2.66   3 2.66
   3  0.500  0.000  0.500-   1 2.66   2 2.66   4 2.66   1 2.66   4 2.66   2 2.66   4 2.66   4 2.66
                             1 2.66   2 2.66   1 2.66   2 2.66
   4  0.500  0.500  0.000-   1 2.66   2 2.66   3 2.66   2 2.66   3 2.66   1 2.66   3 2.66   3 2.66
                             1 2.66   2 2.66   2 2.66   1 2.66
 
  LATTYP: Found a simple cubic cell.
 ALAT       =     3.7603333333
  
  Lattice vectors:
  
 A1 = (   3.7603333333,   0.0000000000,   0.0000000000)
 A2 = (   0.0000000000,   3.7603333333,   0.0000000000)
 A3 = (   0.0000000000,   0.0000000000,   3.7603333333)


Analysis of symmetry for initial positions (statically):
=====================================================================
 Subroutine PRICEL returns following result:
 
  LATTYP: Found a face centered cubic cell.
 ALAT       =     3.7603333333
  
  Lattice vectors:
  
 A1 = (   1.8801666667,   1.8801666667,  -0.0000000000)
 A2 = (   1.8801666667,   0.0000000000,  -1.8801666667)
 A3 = (   0.0000000000,   1.8801666667,  -1.8801666667)
 
   4 primitive cells build up your supercell.
 

 Routine SETGRP: Setting up the symmetry group for a 
 simple cubic supercell.


 Subroutine GETGRP returns: Found 48 space group operations
 (whereof 48 operations were pure point group operations)
 out of a pool of 48 trial point group operations.


The static configuration has the point symmetry O_h .


Analysis of symmetry for dynamics (positions and initial velocities):
=====================================================================
 Subroutine PRICEL returns following result:
 
  LATTYP: Found a face centered cubic cell.
 ALAT       =     3.7603333333
  
  Lattice vectors:
  
 A1 = (   1.8801666667,   1.8801666667,  -0.0000000000)
 A2 = (   1.8801666667,   0.0000000000,  -1.8801666667)
 A3 = (   0.0000000000,   1.8801666667,  -1.8801666667)
 
   4 primitive cells build up your supercell.
 

 Routine SETGRP: Setting up the symmetry group for a 
 simple cubic supercell.


 Subroutine GETGRP returns: Found 48 space group operations
 (whereof 48 operations were pure point group operations)
 out of a pool of 48 trial point group operations.


The dynamic configuration has the point symmetry O_h .


 Subroutine INISYM returns: Found 48 space group operations
 (whereof 48 operations are pure point group operations),
 and found     4 'primitive' translations

 
 
 KPOINTS: KPOINTS created by Atomic Simulation Env

Automatic generation of k-mesh.
Space group operators:
 irot       det(A)        alpha          n_x          n_y          n_z        tau_x        tau_y        tau_z
    1     1.000000     0.000001     1.000000     0.000000     0.000000     0.000000     0.000000     0.000000
    2    -1.000000     0.000001     1.000000     0.000000     0.000000     0.000000     0.000000     0.000000
    3     1.000000   120.000000    -0.577350    -0.577350    -0.577350     0.000000     0.000000     0.000000
    4    -1.000000   120.000000    -0.577350    -0.577350    -0.577350     0.000000     0.000000     0.000000
    5     1.000000   120.000000     0.577350     0.577350     0.577350     0.000000     0.000000     0.000000
    6    -1.000000   120.000000     0.577350     0.577350     0.577350     0.000000     0.000000     0.000000
    7     1.000000    90.000000     0.000000     0.000000    -1.000000     0.000000     0.000000     0.000000
    8    -1.000000    90.000000     0.000000     0.000000    -1.000000     0.000000     0.000000     0.000000
    9     1.000000   180.000000     0.000000     0.707107     0.707107     0.000000     0.000000     0.000000
   10    -1.000000   180.000000     0.000000     0.707107     0.707107     0.000000     0.000000     0.000000
   11     1.000000    90.000000     0.000000     1.000000     0.000000     0.000000     0.000000     0.000000
   12    -1.000000    90.000000     0.000000     1.000000     0.000000     0.000000     0.000000     0.000000
   13     1.000000   180.000000     0.000000     0.000000     1.000000     0.000000     0.000000     0.000000
   14    -1.000000   180.000000     0.000000     0.000000     1.000000     0.000000     0.000000     0.000000
   15     1.000000   120.000000    -0.577350     0.577350     0.577350     0.000000     0.000000     0.000000
   16    -1.000000   120.000000    -0.577350     0.577350     0.577350     0.000000     0.000000     0.000000
   17     1.000000   120.000000    -0.577350     0.577350    -0.577350     0.000000     0.000000     0.000000
   18    -1.000000   120.000000    -0.577350     0.577350    -0.577350     0.000000     0.000000     0.000000
   19     1.000000    90.000000     0.000000     0.000000     1.000000     0.000000     0.000000     0.000000
   20    -1.000000    90.000000     0.000000     0.000000     1.000000     0.000000     0.000000     0.000000
   21     1.000000    90.000000    -1.000000     0.000000     0.000000     0.000000     0.000000     0.000000
   22    -1.000000    90.000000    -1.000000     0.000000     0.000000     0.000000     0.000000     0.000000
   23     1.000000   180.000000     0.707107     0.000000     0.707107     0.000000     0.000000     0.000000
   24    -1.000000   180.000000     0.707107     0.000000     0.707107     0.000000     0.000000     0.000000
   25     1.000000   120.000000     0.577350    -0.577350     0.577350     0.000000     0.000000     0.000000
   26    -1.000000   120.000000     0.577350    -0.577350     0.577350     0.000000     0.000000     0.000000
   27     1.000000   120.000000    -0.577350    -0.577350     0.577350     0.000000     0.000000     0.000000
   28    -1.000000   120.000000    -0.577350    -0.577350     0.577350     0.000000     0.000000     0.000000
   29     1.000000   180.000000     1.000000     0.000000     0.000000     0.000000     0.000000     0.000000
   30    -1.000000   180.000000     1.000000     0.000000     0.000000     0.000000     0.000000     0.000000
   31     1.000000    90.000000     0.000000    -1.000000     0.000000     0.000000     0.000000     0.000000
   32    -1.000000    90.000000     0.000000    -1.000000     0.000000     0.000000     0.000000     0.000000
   33     1.000000   180.000000     0.707107     0.707107     0.000000     0.000000     0.000000     0.000000
   34    -1.000000   180.000000     0.707107     0.707107     0.000000     0.000000     0.000000     0.000000
   35     1.000000    90.000000     1.000000     0.000000     0.000000     0.000000     0.000000     0.000000
   36    -1.000000    90.000000     1.000000     0.000000     0.000000     0.000000     0.000000     0.000000
   37     1.000000   120.000000     0.577350    -0.577350    -0.577350     0.000000     0.000000     0.000000
   38    -1.000000   120.000000     0.577350    -0.577350    -0.577350     0.000000     0.000000     0.000000
   39     1.000000   180.000000     0.000000     1.000000     0.000000     0.000000     0.000000     0.000000
   40    -1.000000   180.000000     0.000000     1.000000     0.000000     0.000000     0.000000     0.000000
   41     1.000000   120.000000     0.577350     0.577350    -0.577350     0.000000     0.000000     0.000000
   42    -1.000000   120.000000     0.577350     0.577350    -0.577350     0.000000     0.000000     0.000000
   43     1.000000   180.000000     0.000000    -0.707107     0.707107     0.000000     0.000000     0.000000
   44    -1.000000   180.000000     0.000000    -0.707107     0.707107     0.000000     0.000000     0.000000
   45     1.000000   180.000000     0.707107    -0.707107     0.000000     0.000000     0.000000     0.000000
   46    -1.000000   180.000000     0.707107    -0.707107     0.000000     0.000000     0.000000     0.000000
   47     1.000000   180.000000     0.707107     0.000000    -0.707107     0.000000     0.000000     0.000000
   48    -1.000000   180.000000     0.707107     0.000000    -0.707107     0.000000     0.000000     0.000000
 
 Subroutine IBZKPT returns following result:
 ===========================================
 
 Found     20 irreducible k-points:
 
 Following reciprocal coordinates:
            Coordinates               Weight
  0.062500  0.062500  0.062500      8.000000
  0.187500  0.062500  0.062500     24.000000
  0.312500  0.062500  0.062500     24.000000
  0.437500  0.062500  0.062500     24.000000
  0.187500  0.187500  0.062500     24.000000
  0.312500  0.187500  0.062500     48.000000
  0.437500  0.187500  0.062500     48.000000
  0.312500  0.312500  0.062500     24.000000
  0.437500  0.312500  0.062500     48.000000
  0.437500  0.437500  0.062500     24.000000
  0.187500  0.187500  0.187500      8.000000
  0.312500  0.187500  0.187500     24.000000
  0.437500  0.187500  0.187500     24.000000
  0.312500  0.312500  0.187500     24.000000
  0.437500  0.312500  0.187500     48.000000
  0.437500  0.437500  0.187500     24.000000
  0.312500  0.312500  0.312500      8.000000
  0.437500  0.312500  0.312500     24.000000
  0.437500  0.437500  0.312500     24.000000
  0.437500  0.437500  0.437500      8.000000
 
 Following cartesian coordinates:
            Coordinates               Weight
  0.016621  0.016621  0.016621      8.000000
  0.049863  0.016621  0.016621     24.000000
  0.083104  0.016621  0.016621     24.000000
  0.116346  0.016621  0.016621     24.000000
  0.049863  0.049863  0.016621     24.000000
  0.083104  0.049863  0.016621     48.000000
  0.116346  0.049863  0.016621     48.000000
  0.083104  0.083104  0.016621     24.000000
  0.116346  0.083104  0.016621     48.000000
  0.116346  0.116346  0.016621     24.000000
  0.049863  0.049863  0.049863      8.000000
  0.083104  0.049863  0.049863     24.000000
  0.116346  0.049863  0.049863     24.000000
  0.083104  0.083104  0.049863     24.000000
  0.116346  0.083104  0.049863     48.000000
  0.116346  0.116346  0.049863     24.000000
  0.083104  0.083104  0.083104      8.000000
  0.116346  0.083104  0.083104     24.000000
  0.116346  0.116346  0.083104     24.000000
  0.116346  0.116346  0.116346      8.000000
 


--------------------------------------------------------------------------------------------------------




 Dimension of arrays:
   k-points           NKPTS =     20   k-points in BZ     NKDIM =     20   number of bands    NBANDS=     24
   number of dos      NEDOS =    301   number of ions     NIONS =      4
   non local maximal  LDIM  =      6   non local SUM 2l+1 LMDIM =     18
   total plane-waves  NPLWV =   5832
   max r-space proj   IRMAX =      1   max aug-charges    IRDMAX=   5519
   dimension x,y,z NGX =    18 NGY =   18 NGZ =   18
   dimension x,y,z NGXF=    36 NGYF=   36 NGZF=   36
   support grid    NGXF=    36 NGYF=   36 NGZF=   36
   ions per type =               4
 NGX,Y,Z   is equivalent  to a cutoff of   7.96,  7.96,  7.96 a.u.
 NGXF,Y,Z  is equivalent  to a cutoff of  15.92, 15.92, 15.92 a.u.


 I would recommend the setting:
   dimension x,y,z NGX =    18 NGY =   18 NGZ =   18
 SYSTEM =  unknown system                          
 POSCAR =  Pd                                      

 Startparameter for this run:
   NWRITE =      2    write-flag & timer
   PREC   = normal    normal or accurate (medium, high low for compatibility)
   ISTART =      0    job   : 0-new  1-cont  2-samecut
   ICHARG =      2    charge: 1-file 2-atom 10-const
   ISPIN  =      1    spin polarized calculation?
   LNONCOLLINEAR =      F non collinear calculations
   LSORBIT =      F    spin-orbit coupling
   INIWAV =      1    electr: 0-lowe 1-rand  2-diag
   LASPH  =      F    aspherical Exc in radial PAW
   METAGGA=      F    non-selfconsistent MetaGGA calc.

 Electronic Relaxation 1
   ENCUT  =  400.0 eV  29.40 Ry    5.42 a.u.   6.13  6.13  6.13*2*pi/ulx,y,z
   ENINI  =  400.0     initial cutoff
   ENAUG  =  416.2 eV  augmentation charge cutoff
   NELM   =     60;   NELMIN=  2; NELMDL= -5     # of ELM steps 
   EDIFF  = 0.1E-03   stopping-criterion for ELM
   LREAL  =      F    real-space projection
   NLSPLINE    = F    spline interpolate recip. space projectors
   LCOMPAT=      F    compatible to vasp.4.4
   GGA_COMPAT  = T    GGA compatible to vasp.4.4-vasp.4.6
   LMAXPAW     = -100 max onsite density
   LMAXMIX     =    2 max onsite mixed and CHGCAR
   VOSKOWN=      0    Vosko Wilk Nusair interpolation
   ROPT   =    0.00000
 Ionic relaxation
   EDIFFG = 0.1E-02   stopping-criterion for IOM
   NSW    =      0    number of steps for IOM
   NBLOCK =      1;   KBLOCK =      1    inner block; outer block 
   IBRION =     -1    ionic relax: 0-MD 1-quasi-New 2-CG
   NFREE  =      0    steps in history (QN), initial steepest desc. (CG)
   ISIF   =      2    stress and relaxation
   IWAVPR =     10    prediction:  0-non 1-charg 2-wave 3-comb
   ISYM   =      2    0-nonsym 1-usesym 2-fastsym
   LCORR  =      T    Harris-Foulkes like correction to forces

   POTIM  = 0.5000    time-step for ionic-motion
   TEIN   =    0.0    initial temperature
   TEBEG  =    0.0;   TEEND  =   0.0 temperature during run
   SMASS  =  -3.00    Nose mass-parameter (am)
   estimated Nose-frequenzy (Omega)   =  0.10E-29 period in steps =****** mass=  -0.323E-27a.u.
   SCALEE = 1.0000    scale energy and forces
   NPACO  =    256;   APACO  = 16.0  distance and # of slots for P.C.
   PSTRESS=    0.0 pullay stress

  Mass of Ions in am
   POMASS = 106.42
  Ionic Valenz
   ZVAL   =  10.00
  Atomic Wigner-Seitz radii
   RWIGS  =  -1.00
  virtual crystal weights 
   VCA    =   1.00
   NELECT =      40.0000    total number of electrons
   NUPDOWN=      -1.0000    fix difference up-down

 DOS related values:
   EMIN   =  10.00;   EMAX   =-10.00  energy-range for DOS
   EFERMI =   0.00
   ISMEAR =     1;   SIGMA  =   0.10  broadening in eV -4-tet -1-fermi 0-gaus

 Electronic relaxation 2 (details)
   IALGO  =     38    algorithm
   LDIAG  =      T    sub-space diagonalisation (order eigenvalues)
   LSUBROT=      F    optimize rotation matrix (better conditioning)
   TURBO    =      0    0=normal 1=particle mesh
   IRESTART =      0    0=no restart 2=restart with 2 vectors
   NREBOOT  =      0    no. of reboots
   NMIN     =      0    reboot dimension
   EREF     =   0.00    reference energy to select bands
   IMIX   =      4    mixing-type and parameters
     AMIX     =   0.40;   BMIX     =  1.00
     AMIX_MAG =   1.60;   BMIX_MAG =  1.00
     AMIN     =   0.10
     WC   =   100.;   INIMIX=   1;  MIXPRE=   1;  MAXMIX= -45

 Intra band minimization:
   WEIMIN = 0.0000     energy-eigenvalue tresh-hold
   EBREAK =  0.10E-05  absolut break condition
   DEPER  =   0.30     relativ break condition  

   TIME   =   0.40     timestep for ELM

  volume/ion in A,a.u.               =      13.29        89.70
  Fermi-wavevector in a.u.,A,eV,Ry     =   1.488910  2.813632 30.162121  2.216853
  Thomas-Fermi vector in A             =   2.601885
 
 Write flags
   LWAVE  =      F    write WAVECAR
   LCHARG =      F    write CHGCAR
   LVTOT  =      F    write LOCPOT, total local potential
   LVHAR  =      F    write LOCPOT, Hartree potential only
   LELF   =      F    write electronic localiz. function (ELF)
   LORBIT =      0    0 simple, 1 ext, 2 COOP (PROOUT)


 Dipole corrections
   LMONO  =      F    monopole corrections only (constant potential shift)
   LDIPOL =      F    correct potential (dipole corrections)
   IDIPOL =      0    1-x, 2-y, 3-z, 4-all directions 
   EPSILON=  1.0000000 bulk dielectric constant

 Exchange correlation treatment:
   GGA     =    --    GGA type
   LEXCH   =     8    internal setting for exchange type
   VOSKOWN=      0    Vosko Wilk Nusair interpolation
   LHFCALC =     F    Hartree Fock is set to
   LHFONE  =     F    Hartree Fock one center treatment
   AEXX    =    0.0000 exact exchange contribution

 Linear response parameters
   LEPSILON=     F    determine dielectric tensor
   LRPA    =     F    only Hartree local field effects (RPA)
   LNABLA  =     F    use nabla operator in PAW spheres
   LVEL    =     F    velocity operator in full k-point grid
   LINTERFAST=   F  fast interpolation
   KINTER  =     0    interpolate to denser k-point grid
   CSHIFT  =0.1000    complex shift for real part using Kramers Kronig
   OMEGAMAX=  -1.0    maximum frequency
   DEG_THRESHOLD= 0.2000000E-02 threshold for treating states as degnerate
   RTIME   =    0.100 relaxation time in fs

 Orbital magnetization related:
   ORBITALMAG=     F  switch on orbital magnetization
   LCHIMAG   =     F  perturbation theory with respect to B field
   DQ        =  0.001000  dq finite difference perturbation B field



--------------------------------------------------------------------------------------------------------


 Static calculation
 charge density and potential will be updated during run
 non-spin polarized calculation
 Variant of blocked Davidson
 Davidson routine will perform the subspace rotation
 perform sub-space diagonalisation
    after iterative eigenvector-optimisation
 modified Broyden-mixing scheme, WC =      100.0
 initial mixing is a Kerker type mixing with AMIX =  0.4000 and BMIX =      1.0000
 Hartree-type preconditioning will be used
 using additional bands            4
 reciprocal scheme for non local part
 use partial core corrections
 calculate Harris-corrections to forces 
   (improved forces if not selfconsistent)
 use gradient corrections 
 use of overlap-Matrix (Vanderbilt PP)
 Methfessel and Paxton  Order N= 1 SIGMA  =   0.10


--------------------------------------------------------------------------------------------------------


  energy-cutoff  :      400.00
  volume of cell :       53.17
      direct lattice vectors                 reciprocal lattice vectors
     3.760333333  0.000000000  0.000000000     0.265933871  0.000000000  0.000000000
     0.000000000  3.760333333  0.000000000     0.000000000  0.265933871  0.000000000
     0.000000000  0.000000000  3.760333333     0.000000000  0.000000000  0.265933871

  length of vectors
     3.760333333  3.760333333  3.760333333     0.265933871  0.265933871  0.265933871


 
 k-points in units of 2pi/SCALE and weight: KPOINTS created by Atomic Simulation Env
   0.01662087  0.01662087  0.01662087       0.016
   0.04986260  0.01662087  0.01662087       0.047
   0.08310433  0.01662087  0.01662087       0.047
   0.11634607  0.01662087  0.01662087       0.047
   0.04986260  0.04986260  0.01662087       0.047
   0.08310433  0.04986260  0.01662087       0.094
   0.11634607  0.04986260  0.01662087       0.094
   0.08310433  0.08310433  0.01662087       0.047
   0.11634607  0.08310433  0.01662087       0.094
   0.11634607  0.11634607  0.01662087       0.047
   0.04986260  0.04986260  0.04986260       0.016
   0.08310433  0.04986260  0.04986260       0.047
   0.11634607  0.04986260  0.04986260       0.047
   0.08310433  0.08310433  0.04986260       0.047
   0.11634607  0.08310433  0.04986260       0.094
   0.11634607  0.11634607  0.04986260       0.047
   0.08310433  0.08310433  0.08310433       0.016
   0.11634607  0.08310433  0.08310433       0.047
   0.11634607  0.11634607  0.08310433       0.047
   0.11634607  0.11634607  0.11634607       0.016
 
 k-points in reciprocal lattice and weights: KPOINTS created by Atomic Simulation Env
   0.06250000  0.06250000  0.06250000       0.016
   0.18750000  0.06250000  0.06250000       0.047
   0.31250000  0.06250000  0.06250000       0.047
   0.43750000  0.06250000  0.06250000       0.047
   0.18750000  0.18750000  0.06250000       0.047
   0.31250000  0.18750000  0.06250000       0.094
   0.43750000  0.18750000  0.06250000       0.094
   0.31250000  0.31250000  0.06250000       0.047
   0.43750000  0.31250000  0.06250000       0.094
   0.43750000  0.43750000  0.06250000       0.047
   0.18750000  0.18750000  0.18750000       0.016
   0.31250000  0.18750000  0.18750000       0.047
   0.43750000  0.18750000  0.18750000       0.047
   0.31250000  0.31250000  0.18750000       0.047
   0.43750000  0.31250000  0.18750000       0.094
   0.43750000  0.43750000  0.18750000       0.047
   0.31250000  0.31250000  0.31250000       0.016
   0.43750000  0.31250000  0.31250000       0.047
   0.43750000  0.43750000  0.31250000       0.047
   0.43750000  0.43750000  0.43750000       0.016
 
 position of ions in fractional coordinates (direct lattice) 
   0.00000000  0.00000000  0.00000000
   0.00000000  0.50000000  0.50000000
   0.50000000  0.00000000  0.50000000
   0.50000000  0.50000000  0.00000000
 
 position of ions in cartesian coordinates  (Angst):
   0.00000000  0.00000000  0.00000000
   0.00000000  1.88016667  1.88016667
   1.88016667  0.00000000  1.88016667
   1.88016667  1.88016667  0.00000000
 


--------------------------------------------------------------------------------------------------------


 k-point  1 :   0.0625 0.0625 0.0625  plane waves:     967
 k-point  2 :   0.1875 0.0625 0.0625  plane waves:     965
 k-point  3 :   0.3125 0.0625 0.0625  plane waves:     959
 k-point  4 :   0.4375 0.0625 0.0625  plane waves:     964
 k-point  5 :   0.1875 0.1875 0.0625  plane waves:     962
 k-point  6 :   0.3125 0.1875 0.0625  plane waves:     963
 k-point  7 :   0.4375 0.1875 0.0625  plane waves:     957
 k-point  8 :   0.3125 0.3125 0.0625  plane waves:     965
 k-point  9 :   0.4375 0.3125 0.0625  plane waves:     966
 k-point 10 :   0.4375 0.4375 0.0625  plane waves:     971
 k-point 11 :   0.1875 0.1875 0.1875  plane waves:     952
 k-point 12 :   0.3125 0.1875 0.1875  plane waves:     969
 k-point 13 :   0.4375 0.1875 0.1875  plane waves:     966
 k-point 14 :   0.3125 0.3125 0.1875  plane waves:     968
 k-point 15 :   0.4375 0.3125 0.1875  plane waves:     968
 k-point 16 :   0.4375 0.4375 0.1875  plane waves:     978
 k-point 17 :   0.3125 0.3125 0.3125  plane waves:     970
 k-point 18 :   0.4375 0.3125 0.3125  plane waves:     968
 k-point 19 :   0.4375 0.4375 0.3125  plane waves:     975
 k-point 20 :   0.4375 0.4375 0.4375  plane waves:     967

 maximum and minimum number of plane-waves per node :       978      952

 maximum number of plane-waves:       978
 maximum index in each direction: 
   IXMAX=    6   IYMAX=    6   IZMAX=    6
   IXMIN=   -6   IYMIN=   -6   IZMIN=   -6

 WARNING: aliasing errors must be expected set NGX to  26 to avoid them
 WARNING: aliasing errors must be expected set NGY to  26 to avoid them
 WARNING: aliasing errors must be expected set NGZ to  26 to avoid them
 aliasing errors are usually negligible using standard VASP settings
 and one can safely disregard these warnings

 serial   3D FFT for wavefunctions
 parallel 3D FFT for charge:
    minimum data exchange during FFTs selected (reduces bandwidth)


 total amount of memory used by VASP on root node    33775. kBytes
========================================================================

   base      :      30000. kBytes
   nonl-proj :       2896. kBytes
   fftplans  :        113. kBytes
   grid      :        367. kBytes
   one-center:         62. kBytes
   wavefun   :        337. kBytes
 
     INWAV:  cpu time    0.0000: real time    0.0014
 Broyden mixing: mesh for mixing (old mesh)
   NGX = 13   NGY = 13   NGZ = 13
  (NGX  = 36   NGY  = 36   NGZ  = 36)
  gives a total of   2197 points

 initial charge density was supplied:
 charge density of overlapping atoms calculated
 number of electron      40.0000000 magnetization 
 keeping initial charge density in first step


--------------------------------------------------------------------------------------------------------


 Maximum index for augmentation-charges          357 (set IRDMAX)


--------------------------------------------------------------------------------------------------------


 First call to EWALD:  gamma=   0.471
 Maximum number of real-space cells 3x 3x 3
 Maximum number of reciprocal cells 3x 3x 3

 FEWALD executed in parallel
    FEWALD:  cpu time    0.0647: real time    0.0648


----------------------------------------- Iteration    1(   1)  ---------------------------------------


    POTLOK:  cpu time    0.8480: real time    0.8483
    SETDIJ:  cpu time    0.0027: real time    0.0027
     EDDAV:  cpu time    0.1272: real time    0.1273
       DOS:  cpu time    0.0005: real time    0.0005
    --------------------------------------------
      LOOP:  cpu time    0.9810: real time    0.9886

 eigenvalue-minimisations  :   960
 total energy-change (2. order) : 0.1495614E+03  (-0.1911539E+04)
 number of electron      40.0000000 magnetization 
 augmentation part       40.0000000 magnetization 

 Free energy of the ion-electron system (eV)
  ---------------------------------------------------
  alpha Z        PSCENC =       196.12072420
  Ewald energy   TEWEN  =     -3511.44608229
  -Hartree energ DENC   =      -446.78609489
  -exchange      EXHF   =         0.00000000
  -V(xc)+E(xc)   XCENC  =      -114.96503415
  PAW double counting   =      3226.95325816    -2978.06409795
  entropy T*S    EENTRO =         0.00103470
  eigenvalues    EBANDS =       538.77207782
  atomic energy  EATOM  =      3238.97557032
  Solvation  Ediel_sol  =         0.00000000
  ---------------------------------------------------
  free energy    TOTEN  =       149.56135594 eV

  energy without entropy =      149.56032124  energy(sigma->0) =      149.56101104


--------------------------------------------------------------------------------------------------------




----------------------------------------- Iteration    1(   2)  ---------------------------------------


     EDDAV:  cpu time    0.1826: real time    0.1830
       DOS:  cpu time    0.0005: real time    0.0005
    --------------------------------------------
      LOOP:  cpu time    0.1845: real time    0.1862

 eigenvalue-minimisations  :  1368
 total energy-change (2. order) :-0.1699539E+03  (-0.1695925E+03)
 number of electron      40.0000000 magnetization 
 augmentation part       40.0000000 magnetization 

 Free energy of the ion-electron system (eV)
  ---------------------------------------------------
  alpha Z        PSCENC =       196.12072420
  Ewald energy   TEWEN  =     -3511.44608229
  -Hartree energ DENC   =      -446.78609489
  -exchange      EXHF   =         0.00000000
  -V(xc)+E(xc)   XCENC  =      -114.96503415
  PAW double counting   =      3226.95325816    -2978.06409795
  entropy T*S    EENTRO =        -0.00420228
  eigenvalues    EBANDS =       368.82341147
  atomic energy  EATOM  =      3238.97557032
  Solvation  Ediel_sol  =         0.00000000
  ---------------------------------------------------
  free energy    TOTEN  =       -20.39254740 eV

  energy without entropy =      -20.38834512  energy(sigma->0) =      -20.39114664


--------------------------------------------------------------------------------------------------------




----------------------------------------- Iteration    1(   3)  ---------------------------------------


     EDDAV:  cpu time    0.1080: real time    0.1082
       DOS:  cpu time    0.0004: real time    0.0004
    --------------------------------------------
      LOOP:  cpu time    0.1095: real time    0.1111

 eigenvalue-minimisations  :   960
 total energy-change (2. order) :-0.8728720E+00  (-0.8718074E+00)
 number of electron      40.0000000 magnetization 
 augmentation part       40.0000000 magnetization 

 Free energy of the ion-electron system (eV)
  ---------------------------------------------------
  alpha Z        PSCENC =       196.12072420
  Ewald energy   TEWEN  =     -3511.44608229
  -Hartree energ DENC   =      -446.78609489
  -exchange      EXHF   =         0.00000000
  -V(xc)+E(xc)   XCENC  =      -114.96503415
  PAW double counting   =      3226.95325816    -2978.06409795
  entropy T*S    EENTRO =        -0.00362206
  eigenvalues    EBANDS =       367.94995924
  atomic energy  EATOM  =      3238.97557032
  Solvation  Ediel_sol  =         0.00000000
  ---------------------------------------------------
  free energy    TOTEN  =       -21.26541941 eV

  energy without entropy =      -21.26179735  energy(sigma->0) =      -21.26421205


--------------------------------------------------------------------------------------------------------




----------------------------------------- Iteration    1(   4)  ---------------------------------------


     EDDAV:  cpu time    0.1389: real time    0.1391
       DOS:  cpu time    0.0005: real time    0.0005
    --------------------------------------------
      LOOP:  cpu time    0.1402: real time    0.1421

 eigenvalue-minimisations  :  1104
 total energy-change (2. order) :-0.4183966E-02  (-0.4183885E-02)
 number of electron      40.0000000 magnetization 
 augmentation part       40.0000000 magnetization 

 Free energy of the ion-electron system (eV)
  ---------------------------------------------------
  alpha Z        PSCENC =       196.12072420
  Ewald energy   TEWEN  =     -3511.44608229
  -Hartree energ DENC   =      -446.78609489
  -exchange      EXHF   =         0.00000000
  -V(xc)+E(xc)   XCENC  =      -114.96503415
  PAW double counting   =      3226.95325816    -2978.06409795
  entropy T*S    EENTRO =        -0.00361175
  eigenvalues    EBANDS =       367.94576497
  atomic energy  EATOM  =      3238.97557032
  Solvation  Ediel_sol  =         0.00000000
  ---------------------------------------------------
  free energy    TOTEN  =       -21.26960337 eV

  energy without entropy =      -21.26599162  energy(sigma->0) =      -21.26839945


--------------------------------------------------------------------------------------------------------




----------------------------------------- Iteration    1(   5)  ---------------------------------------


     EDDAV:  cpu time    0.1175: real time    0.1176
       DOS:  cpu time    0.0006: real time    0.0006
    CHARGE:  cpu time    0.0055: real time    0.0055
    MIXING:  cpu time    0.0047: real time    0.0047
    --------------------------------------------
      LOOP:  cpu time    0.1292: real time    0.1314

 eigenvalue-minimisations  :  1008
 total energy-change (2. order) :-0.4613096E-04  (-0.4612950E-04)
 number of electron      39.9999788 magnetization 
 augmentation part       15.9322369 magnetization 

 Broyden mixing:
  rms(total) = 0.21080E+01    rms(broyden)= 0.21080E+01
  rms(prec ) = 0.26509E+01
  weight for this iteration     100.00

 Free energy of the ion-electron system (eV)
  ---------------------------------------------------
  alpha Z        PSCENC =       196.12072420
  Ewald energy   TEWEN  =     -3511.44608229
  -Hartree energ DENC   =      -446.78609489
  -exchange      EXHF   =         0.00000000
  -V(xc)+E(xc)   XCENC  =      -114.96503415
  PAW double counting   =      3226.95325816    -2978.06409795
  entropy T*S    EENTRO =        -0.00361169
  eigenvalues    EBANDS =       367.94571878
  atomic energy  EATOM  =      3238.97557032
  Solvation  Ediel_sol  =         0.00000000
  ---------------------------------------------------
  free energy    TOTEN  =       -21.26964950 eV

  energy without entropy =      -21.26603781  energy(sigma->0) =      -21.26844560


--------------------------------------------------------------------------------------------------------




----------------------------------------- Iteration    1(   6)  ---------------------------------------


    POTLOK:  cpu time    0.0022: real time    0.0022
    SETDIJ:  cpu time    0.0023: real time    0.0023
     EDDAV:  cpu time    0.1102: real time    0.1102
       DOS:  cpu time    0.0004: real time    0.0004
    CHARGE:  cpu time    0.0047: real time    0.0047
    MIXING:  cpu time    0.0004: real time    0.0004
    --------------------------------------------
      LOOP:  cpu time    0.1212: real time    0.1234

 eigenvalue-minimisations  :   960
 total energy-change (2. order) : 0.1069841E+01  (-0.4255764E+00)
 number of electron      39.9999785 magnetization 
 augmentation part       16.5847676 magnetization 

 Broyden mixing:
  rms(total) = 0.10566E+01    rms(broyden)= 0.10566E+01
  rms(prec ) = 0.11010E+01
  weight for this iteration     100.00

 eigenvalues of (default mixing * dielectric matrix)
  average eigenvalue GAMMA=   1.8319
  1.8319

 Free energy of the ion-electron system (eV)
  ---------------------------------------------------
  alpha Z        PSCENC =       196.12072420
  Ewald energy   TEWEN  =     -3511.44608229
  -Hartree energ DENC   =      -415.46139195
  -exchange      EXHF   =         0.00000000
  -V(xc)+E(xc)   XCENC  =      -115.80447030
  PAW double counting   =      3603.46497557    -3361.85586368
  entropy T*S    EENTRO =        -0.00128016
  eigenvalues    EBANDS =       345.80800998
  atomic energy  EATOM  =      3238.97557032
  Solvation  Ediel_sol  =         0.00000000
  ---------------------------------------------------
  free energy    TOTEN  =       -20.19980830 eV

  energy without entropy =      -20.19852814  energy(sigma->0) =      -20.19938158


--------------------------------------------------------------------------------------------------------




----------------------------------------- Iteration    1(   7)  ---------------------------------------


    POTLOK:  cpu time    0.0020: real time    0.0020
    SETDIJ:  cpu time    0.0020: real time    0.0021
     EDDAV:  cpu time    0.1208: real time    0.1211
       DOS:  cpu time    0.0005: real time    0.0005
    CHARGE:  cpu time    0.0054: real time    0.0054
    MIXING:  cpu time    0.0002: real time    0.0002
    --------------------------------------------
      LOOP:  cpu time    0.1322: real time    0.1372

 eigenvalue-minimisations  :  1008
 total energy-change (2. order) : 0.8546815E-01  (-0.1453812E-01)
 number of electron      39.9999783 magnetization 
 augmentation part       16.7093090 magnetization 

 Broyden mixing:
  rms(total) = 0.42856E+00    rms(broyden)= 0.42856E+00
  rms(prec ) = 0.43010E+00
  weight for this iteration     100.00

 eigenvalues of (default mixing * dielectric matrix)
  average eigenvalue GAMMA=   1.8789
  1.1363  2.6215

 Free energy of the ion-electron system (eV)
  ---------------------------------------------------
  alpha Z        PSCENC =       196.12072420
  Ewald energy   TEWEN  =     -3511.44608229
  -Hartree energ DENC   =      -407.00072338
  -exchange      EXHF   =         0.00000000
  -V(xc)+E(xc)   XCENC  =      -116.02152227
  PAW double counting   =      3944.44234333    -3707.47520751
  entropy T*S    EENTRO =        -0.00029720
  eigenvalues    EBANDS =       342.29085465
  atomic energy  EATOM  =      3238.97557032
  Solvation  Ediel_sol  =         0.00000000
  ---------------------------------------------------
  free energy    TOTEN  =       -20.11434015 eV

  energy without entropy =      -20.11404295  energy(sigma->0) =      -20.11424108


--------------------------------------------------------------------------------------------------------




----------------------------------------- Iteration    1(   8)  ---------------------------------------


    POTLOK:  cpu time    0.0027: real time    0.0027
    SETDIJ:  cpu time    0.0020: real time    0.0020
     EDDAV:  cpu time    0.1165: real time    0.1168
       DOS:  cpu time    0.0008: real time    0.0008
    CHARGE:  cpu time    0.0047: real time    0.0047
    MIXING:  cpu time    0.0002: real time    0.0002
    --------------------------------------------
      LOOP:  cpu time    0.1280: real time    0.1299

 eigenvalue-minimisations  :   960
 total energy-change (2. order) : 0.1595930E-01  (-0.1424510E-02)
 number of electron      39.9999783 magnetization 
 augmentation part       16.6843034 magnetization 

 Broyden mixing:
  rms(total) = 0.30102E-01    rms(broyden)= 0.30102E-01
  rms(prec ) = 0.30294E-01
  weight for this iteration     100.00

 eigenvalues of (default mixing * dielectric matrix)
  average eigenvalue GAMMA=   1.5384
  2.4911  1.0621  1.0621

 Free energy of the ion-electron system (eV)
  ---------------------------------------------------
  alpha Z        PSCENC =       196.12072420
  Ewald energy   TEWEN  =     -3511.44608229
  -Hartree energ DENC   =      -405.46600412
  -exchange      EXHF   =         0.00000000
  -V(xc)+E(xc)   XCENC  =      -116.05808086
  PAW double counting   =      4192.48855438    -3958.40999420
  entropy T*S    EENTRO =        -0.00030548
  eigenvalues    EBANDS =       343.69723719
  atomic energy  EATOM  =      3238.97557032
  Solvation  Ediel_sol  =         0.00000000
  ---------------------------------------------------
  free energy    TOTEN  =       -20.09838085 eV

  energy without entropy =      -20.09807537  energy(sigma->0) =      -20.09827902


--------------------------------------------------------------------------------------------------------




----------------------------------------- Iteration    1(   9)  ---------------------------------------


    POTLOK:  cpu time    0.0020: real time    0.0020
    SETDIJ:  cpu time    0.0021: real time    0.0021
     EDDAV:  cpu time    0.0743: real time    0.0744
       DOS:  cpu time    0.0143: real time    0.0143
    CHARGE:  cpu time    0.0273: real time    0.0273
    MIXING:  cpu time    0.0002: real time    0.0002
    --------------------------------------------
      LOOP:  cpu time    0.1212: real time    0.1228

 eigenvalue-minimisations  :   624
 total energy-change (2. order) : 0.1428653E-03  (-0.3223136E-04)
 number of electron      39.9999783 magnetization 
 augmentation part       16.6892431 magnetization 

 Broyden mixing:
  rms(total) = 0.23774E-02    rms(broyden)= 0.23772E-02
  rms(prec ) = 0.37072E-02
  weight for this iteration     100.00

 eigenvalues of (default mixing * dielectric matrix)
  average eigenvalue GAMMA=   1.8121
  1.0562  1.0562  2.6999  2.4360

 Free energy of the ion-electron system (eV)
  ---------------------------------------------------
  alpha Z        PSCENC =       196.12072420
  Ewald energy   TEWEN  =     -3511.44608229
  -Hartree energ DENC   =      -405.51114684
  -exchange      EXHF   =         0.00000000
  -V(xc)+E(xc)   XCENC  =      -116.05682092
  PAW double counting   =      4178.04305960    -3943.70090477
  entropy T*S    EENTRO =        -0.00030200
  eigenvalues    EBANDS =       343.47766472
  atomic energy  EATOM  =      3238.97557032
  Solvation  Ediel_sol  =         0.00000000
  ---------------------------------------------------
  free energy    TOTEN  =       -20.09823799 eV

  energy without entropy =      -20.09793598  energy(sigma->0) =      -20.09813732


--------------------------------------------------------------------------------------------------------




----------------------------------------- Iteration    1(  10)  ---------------------------------------


    POTLOK:  cpu time    0.0023: real time    0.0023
    SETDIJ:  cpu time    0.0020: real time    0.0020
     EDDAV:  cpu time    0.0611: real time    0.0612
       DOS:  cpu time    0.0005: real time    0.0005
    --------------------------------------------
      LOOP:  cpu time    0.0669: real time    0.0686

 eigenvalue-minimisations  :   480
 total energy-change (2. order) :-0.2209689E-04  (-0.1596925E-05)
 number of electron      39.9999783 magnetization 
 augmentation part       16.6892431 magnetization 

 Free energy of the ion-electron system (eV)
  ---------------------------------------------------
  alpha Z        PSCENC =       196.12072420
  Ewald energy   TEWEN  =     -3511.44608229
  -Hartree energ DENC   =      -405.61230212
  -exchange      EXHF   =         0.00000000
  -V(xc)+E(xc)   XCENC  =      -116.05380459
  PAW double counting   =      4182.06653548    -3947.60940955
  entropy T*S    EENTRO =        -0.00030887
  eigenvalues    EBANDS =       343.46081733
  atomic energy  EATOM  =      3238.97557032
  Solvation  Ediel_sol  =         0.00000000
  ---------------------------------------------------
  free energy    TOTEN  =       -20.09826008 eV

  energy without entropy =      -20.09795122  energy(sigma->0) =      -20.09815713


--------------------------------------------------------------------------------------------------------




 average (electrostatic) potential at core
  the test charge radii are     1.1199
  (the norm of the test charge is              1.0000)
       1 -68.9292       2 -68.9292       3 -68.9292       4 -68.9292
 
 
 
 E-fermi :  11.6636     XC(G=0): -13.8431     alpha+bet :-18.5247


 k-point     1 :       0.0625    0.0625    0.0625
  band No.  band energies     occupation 
      1       3.8280      2.00000
      2       5.4018      2.00000
      3       5.4018      2.00000
      4       5.4018      2.00000
      5       5.7332      2.00000
      6       5.7332      2.00000
      7       5.7332      2.00000
      8       8.2482      2.00000
      9       8.3671      2.00000
     10       8.3671      2.00000
     11      10.1902      2.00000
     12      10.1902      2.00000
     13      11.4964      2.03961
     14      11.4964      2.03961
     15      11.4964      2.03961
     16      11.5823      1.98659
     17      11.5823      1.98659
     18      11.5823      1.98659
     19      11.9601     -0.00023
     20      11.9601     -0.00023
     21      11.9601     -0.00023
     22      15.2558      0.00000
     23      15.2558      0.00000
     24      15.2558      0.00000

 k-point     2 :       0.1875    0.0625    0.0625
  band No.  band energies     occupation 
      1       4.2287      2.00000
      2       5.6095      2.00000
      3       5.6552      2.00000
      4       5.6552      2.00000
      5       5.8963      2.00000
      6       6.0015      2.00000
      7       6.0015      2.00000
      8       8.0339      2.00000
      9       8.5436      2.00000
     10       8.5507      2.00000
     11       9.9535      2.00000
     12      10.3007      2.00000
     13      10.5056      2.00000
     14      10.5056      2.00000
     15      11.1139      2.00000
     16      11.1867      2.00000
     17      11.1867      2.00000
     18      11.2288      2.00000
     19      11.7305      0.10302
     20      11.9337     -0.00090
     21      11.9337     -0.00090
     22      13.8027     -0.00000
     23      16.5659      0.00000
     24      16.5659      0.00000

 k-point     3 :       0.3125    0.0625    0.0625
  band No.  band energies     occupation 
      1       4.9565      2.00000
      2       5.9402      2.00000
      3       6.0961      2.00000
      4       6.0961      2.00000
      5       6.2090      2.00000
      6       6.5109      2.00000
      7       6.5109      2.00000
      8       7.6275      2.00000
      9       8.8736      2.00000
     10       8.9094      2.00000
     11       9.2693      2.00000
     12       9.2693      2.00000
     13       9.6415      2.00000
     14      10.3025      2.00000
     15      10.5087      2.00000
     16      10.6384      2.00000
     17      10.6384      2.00000
     18      10.6945      2.00000
     19      11.4290      2.00448
     20      11.9239     -0.00145
     21      11.9239     -0.00145
     22      12.0775     -0.00000
     23      18.2364      0.00000
     24      18.2364      0.00000

 k-point     4 :       0.4375    0.0625    0.0625
  band No.  band energies     occupation 
      1       5.7718      2.00000
      2       6.1429      2.00000
      3       6.5197      2.00000
      4       6.5197      2.00000
      5       6.6377      2.00000
      6       7.1326      2.00000
      7       7.2159      2.00000
      8       7.2159      2.00000
      9       8.1521      2.00000
     10       8.1521      2.00000
     11       9.0171      2.00000
     12       9.4108      2.00000
     13       9.4213      2.00000
     14       9.8607      2.00000
     15      10.0439      2.00000
     16      10.1530      2.00000
     17      10.1530      2.00000
     18      10.7290      2.00000
     19      10.7891      2.00000
     20      11.1076      2.00000
     21      11.9211     -0.00165
     22      11.9211     -0.00165
     23      19.9122      0.00000
     24      19.9122      0.00000

 k-point     5 :       0.1875    0.1875    0.0625
  band No.  band energies     occupation 
      1       4.5964      2.00000
      2       5.8115      2.00000
      3       5.8611      2.00000
      4       5.8611      2.00000
      5       6.1585      2.00000
      6       6.1585      2.00000
      7       6.3177      2.00000
      8       7.9621      2.00000
      9       8.6143      2.00000
     10       8.6452      2.00000
     11       9.9153      2.00000
     12       9.9994      2.00000
     13       9.9994      2.00000
     14      10.0028      2.00000
     15      10.3246      2.00000
     16      10.8488      2.00000
     17      11.0293      2.00000
     18      11.0293      2.00000
     19      11.6914      0.54935
     20      11.6914      0.54935
     21      11.7414      0.03127
     22      15.0249      0.00000
     23      15.0249      0.00000
     24      17.5677      0.00000

 k-point     6 :       0.3125    0.1875    0.0625
  band No.  band energies     occupation 
      1       5.2609      2.00000
      2       6.1664      2.00000
      3       6.1785      2.00000
      4       6.3077      2.00000
      5       6.4698      2.00000
      6       6.6439      2.00000
      7       6.8123      2.00000
      8       7.6798      2.00000
      9       8.7537      2.00000
     10       8.8616      2.00000
     11       8.9046      2.00000
     12       9.0961      2.00000
     13       9.2954      2.00000
     14       9.7616      2.00000
     15      10.4142      2.00000
     16      10.5370      2.00000
     17      10.6123      2.00000
     18      10.6346      2.00000
     19      11.3362      2.00004
     20      11.5946      1.91244
     21      11.6062      1.81569
     22      13.2582     -0.00000
     23      16.4697      0.00000
     24      18.9965      0.00000

 k-point     7 :       0.4375    0.1875    0.0625
  band No.  band energies     occupation 
      1       6.0137      2.00000
      2       6.3732      2.00000
      3       6.6521      2.00000
      4       6.7667      2.00000
      5       6.8707      2.00000
      6       7.2265      2.00000
      7       7.2657      2.00000
      8       7.2809      2.00000
      9       7.9695      2.00000
     10       8.1748      2.00000
     11       8.6203      2.00000
     12       8.6914      2.00000
     13       9.3507      2.00000
     14       9.9161      2.00000
     15      10.0467      2.00000
     16      10.0888      2.00000
     17      10.1380      2.00000
     18      10.7821      2.00000
     19      11.1306      2.00000
     20      11.5538      2.06509
     21      11.5541      2.06472
     22      11.9105     -0.00266
     23      17.8590      0.00000
     24      19.1222      0.00000

 k-point     8 :       0.3125    0.3125    0.0625
  band No.  band energies     occupation 
      1       5.7933      2.00000
      2       6.3929      2.00000
      3       6.5954      2.00000
      4       6.5954      2.00000
      5       6.9527      2.00000
      6       6.9527      2.00000
      7       7.2419      2.00000
      8       7.6698      2.00000
      9       8.3406      2.00000
     10       8.3406      2.00000
     11       8.6697      2.00000
     12       8.6942      2.00000
     13       9.0130      2.00000
     14       9.6558      2.00000
     15      10.0564      2.00000
     16      10.3006      2.00000
     17      10.3006      2.00000
     18      11.1068      2.00000
     19      11.1068      2.00000
     20      11.1663      2.00000
     21      11.2607      2.00000
     22      14.5798      0.00000
     23      14.5798      0.00000
     24      18.6193      0.00000

 k-point     9 :       0.4375    0.3125    0.0625
  band No.  band energies     occupation 
      1       6.3825      2.00000
      2       6.7105      2.00000
      3       6.7947      2.00000
      4       7.1080      2.00000
      5       7.2719      2.00000
      6       7.3430      2.00000
      7       7.4718      2.00000
      8       7.5337      2.00000
      9       7.8237      2.00000
     10       8.0552      2.00000
     11       8.1789      2.00000
     12       8.3778      2.00000
     13       9.2907      2.00000
     14       9.7713      2.00000
     15       9.7832      2.00000
     16       9.9014      2.00000
     17       9.9238      2.00000
     18      10.5108      2.00000
     19      11.0012      2.00000
     20      11.0499      2.00000
     21      11.9696     -0.00013
     22      13.0620     -0.00000
     23      15.8797      0.00000
     24      17.1862      0.00000

 k-point    10 :       0.4375    0.4375    0.0625
  band No.  band energies     occupation 
      1       6.7120      2.00000
      2       6.9198      2.00000
      3       6.9580      2.00000
      4       6.9580      2.00000
      5       7.6494      2.00000
      6       7.6833      2.00000
      7       7.6833      2.00000
      8       7.7194      2.00000
      9       7.9238      2.00000
     10       7.9238      2.00000
     11       8.1743      2.00000
     12       8.2756      2.00000
     13       9.2128      2.00000
     14       9.4699      2.00000
     15       9.5065      2.00000
     16       9.5065      2.00000
     17       9.9556      2.00000
     18      10.4113      2.00000
     19      10.4113      2.00000
     20      10.6160      2.00000
     21      13.0129     -0.00000
     22      14.2742     -0.00000
     23      14.2742     -0.00000
     24      15.6010      0.00000

 k-point    11 :       0.1875    0.1875    0.1875
  band No.  band energies     occupation 
      1       4.8970      2.00000
      2       5.9715      2.00000
      3       5.9715      2.00000
      4       5.9715      2.00000
      5       6.4966      2.00000
      6       6.4966      2.00000
      7       6.4966      2.00000
      8       8.0191      2.00000
      9       8.6438      2.00000
     10       8.6438      2.00000
     11       9.6093      2.00000
     12       9.6093      2.00000
     13       9.6093      2.00000
     14      10.1612      2.00000
     15      10.1612      2.00000
     16      10.4336      2.00000
     17      10.4336      2.00000
     18      10.4336      2.00000
     19      11.8096     -0.05874
     20      11.8096     -0.05874
     21      11.8096     -0.05874
     22      15.8180      0.00000
     23      15.8180      0.00000
     24      15.8180      0.00000

 k-point    12 :       0.3125    0.1875    0.1875
  band No.  band energies     occupation 
      1       5.4207      2.00000
      2       6.1822      2.00000
      3       6.2777      2.00000
      4       6.2777      2.00000
      5       6.8692      2.00000
      6       6.9657      2.00000
      7       6.9657      2.00000
      8       7.9347      2.00000
      9       8.6915      2.00000
     10       8.7641      2.00000
     11       8.8411      2.00000
     12       8.8411      2.00000
     13       9.0072      2.00000
     14       9.9046      2.00000
     15      10.0948      2.00000
     16      10.0948      2.00000
     17      10.1145      2.00000
     18      10.5617      2.00000
     19      11.6679      0.92707
     20      11.6679      0.92707
     21      11.7143      0.25214
     22      13.8040     -0.00000
     23      16.9429      0.00000
     24      16.9429      0.00000

 k-point    13 :       0.4375    0.1875    0.1875
  band No.  band energies     occupation 
      1       5.9782      2.00000
      2       6.2595      2.00000
      3       6.7459      2.00000
      4       6.7459      2.00000
      5       7.1584      2.00000
      6       7.1584      2.00000
      7       7.3555      2.00000
      8       7.7176      2.00000
      9       8.3290      2.00000
     10       8.3290      2.00000
     11       8.5044      2.00000
     12       8.5091      2.00000
     13       9.0181      2.00000
     14       9.4089      2.00000
     15       9.8036      2.00000
     16       9.8036      2.00000
     17      10.7451      2.00000
     18      11.0155      2.00000
     19      11.4289      2.00447
     20      11.5259      2.06518
     21      11.5259      2.06518
     22      12.0446     -0.00000
     23      17.9439      0.00000
     24      17.9439      0.00000

 k-point    14 :       0.3125    0.3125    0.1875
  band No.  band energies     occupation 
      1       5.6911      2.00000
      2       6.3474      2.00000
      3       6.3474      2.00000
      4       6.3746      2.00000
      5       7.3163      2.00000
      6       7.3336      2.00000
      7       7.3336      2.00000
      8       8.2510      2.00000
      9       8.5310      2.00000
     10       8.5310      2.00000
     11       8.6525      2.00000
     12       8.7017      2.00000
     13       8.7555      2.00000
     14       9.6147      2.00000
     15       9.6270      2.00000
     16       9.6270      2.00000
     17      10.1957      2.00000
     18      10.9764      2.00000
     19      11.5490      2.06878
     20      11.5948      1.91133
     21      11.5948      1.91133
     22      14.7872      0.00000
     23      14.7872      0.00000
     24      17.3769      0.00000

 k-point    15 :       0.4375    0.3125    0.1875
  band No.  band energies     occupation 
      1       5.9981      2.00000
      2       6.2490      2.00000
      3       6.5540      2.00000
      4       6.5671      2.00000
      5       7.4093      2.00000
      6       7.4232      2.00000
      7       7.8787      2.00000
      8       8.3129      2.00000
      9       8.3509      2.00000
     10       8.4228      2.00000
     11       8.5420      2.00000
     12       8.7208      2.00000
     13       8.8451      2.00000
     14       9.1746      2.00000
     15       9.3584      2.00000
     16       9.4193      2.00000
     17      10.6053      2.00000
     18      11.2427      2.00000
     19      11.3651      2.00020
     20      11.3765      2.00038
     21      11.7532     -0.02146
     22      12.9822     -0.00000
     23      15.8689      0.00000
     24      16.8817      0.00000

 k-point    16 :       0.4375    0.4375    0.1875
  band No.  band energies     occupation 
      1       6.1067      2.00000
      2       6.3050      2.00000
      3       6.3050      2.00000
      4       6.4000      2.00000
      5       7.6849      2.00000
      6       7.8535      2.00000
      7       7.8535      2.00000
      8       8.1780      2.00000
      9       8.7467      2.00000
     10       8.7467      2.00000
     11       8.7505      2.00000
     12       8.9367      2.00000
     13       9.0046      2.00000
     14       9.0223      2.00000
     15       9.0790      2.00000
     16       9.0790      2.00000
     17      10.5625      2.00000
     18      10.9925      2.00000
     19      10.9925      2.00000
     20      11.0809      2.00000
     21      12.7843     -0.00000
     22      14.1115     -0.00000
     23      14.1115     -0.00000
     24      15.3940      0.00000

 k-point    17 :       0.3125    0.3125    0.3125
  band No.  band energies     occupation 
      1       5.6542      2.00000
      2       6.2077      2.00000
      3       6.2077      2.00000
      4       6.2077      2.00000
      5       7.6011      2.00000
      6       7.6011      2.00000
      7       7.6011      2.00000
      8       8.5327      2.00000
      9       8.5327      2.00000
     10       8.9056      2.00000
     11       8.9056      2.00000
     12       8.9056      2.00000
     13       9.1330      2.00000
     14       9.1330      2.00000
     15       9.1330      2.00000
     16       9.1547      2.00000
     17      10.7820      2.00000
     18      10.7820      2.00000
     19      11.7162      0.23140
     20      11.7162      0.23140
     21      11.7162      0.23140
     22      15.1717      0.00000
     23      15.1717      0.00000
     24      15.1717      0.00000

 k-point    18 :       0.4375    0.3125    0.3125
  band No.  band energies     occupation 
      1       5.7480      2.00000
      2       5.9563      2.00000
      3       6.1544      2.00000
      4       6.1544      2.00000
      5       7.6784      2.00000
      6       7.6784      2.00000
      7       8.0080      2.00000
      8       8.3442      2.00000
      9       8.5515      2.00000
     10       8.7594      2.00000
     11       8.8981      2.00000
     12       8.8981      2.00000
     13       9.1645      2.00000
     14       9.3128      2.00000
     15       9.3128      2.00000
     16       9.4517      2.00000
     17      11.2940      2.00000
     18      11.4480      2.00937
     19      11.5742      2.02047
     20      11.5742      2.02047
     21      11.6300      1.53428
     22      13.1059     -0.00000
     23      15.5104      0.00000
     24      15.5104      0.00000

 k-point    19 :       0.4375    0.4375    0.3125
  band No.  band energies     occupation 
      1       5.6969      2.00000
      2       5.8420      2.00000
      3       5.8420      2.00000
      4       5.9087      2.00000
      5       7.9160      2.00000
      6       8.0217      2.00000
      7       8.0217      2.00000
      8       8.2820      2.00000
      9       8.4210      2.00000
     10       8.5653      2.00000
     11       8.5653      2.00000
     12       8.6066      2.00000
     13       9.8848      2.00000
     14       9.8848      2.00000
     15       9.8986      2.00000
     16      10.2114      2.00000
     17      11.1343      2.00000
     18      11.4847      2.02971
     19      11.4847      2.02971
     20      11.4887      2.03295
     21      12.3207     -0.00000
     22      13.7427     -0.00000
     23      13.7427     -0.00000
     24      14.6518      0.00000

 k-point    20 :       0.4375    0.4375    0.4375
  band No.  band energies     occupation 
      1       5.5281      2.00000
      2       5.6037      2.00000
      3       5.6037      2.00000
      4       5.6037      2.00000
      5       8.1499      2.00000
      6       8.1499      2.00000
      7       8.1499      2.00000
      8       8.2818      2.00000
      9       8.2818      2.00000
     10       8.3468      2.00000
     11       8.3468      2.00000
     12       8.3468      2.00000
     13      10.7885      2.00000
     14      10.7885      2.00000
     15      10.7885      2.00000
     16      11.5317      2.06852
     17      11.5317      2.06852
     18      11.6595      1.06840
     19      11.6595      1.06840
     20      11.6595      1.06840
     21      11.8069     -0.06103
     22      13.2922     -0.00000
     23      13.2922     -0.00000
     24      13.2922     -0.00000


--------------------------------------------------------------------------------------------------------


 soft charge-density along one line, spin component           1
         0         1         2         3         4         5         6         7         8         9
 total charge-density along one line
 
 pseudopotential strength for first ion, spin component:           1
 -1.335   0.000  -0.000   0.000   0.000  -1.620   0.000  -0.000
  0.000  -1.335   0.000   0.000  -0.000   0.000  -1.620   0.000
 -0.000   0.000  -1.304   0.000  -0.000  -0.000   0.000  -1.590
  0.000   0.000   0.000  -1.335  -0.000   0.000   0.000   0.000
  0.000  -0.000   0.000  -0.000  -1.304   0.000  -0.000  -0.000
 -1.620   0.000  -0.000   0.000   0.000  -1.869   0.000  -0.000
  0.000  -1.620   0.000   0.000  -0.000   0.000  -1.869   0.000
 -0.000   0.000  -1.590   0.000   0.000  -0.000   0.000  -1.840
  0.000   0.000   0.000  -1.620  -0.000   0.000   0.000   0.000
  0.000  -0.000  -0.000  -0.000  -1.590   0.000  -0.000  -0.000
 -0.000  -0.000  -0.000  -0.000   0.000  -0.000  -0.000  -0.000
 -0.000  -0.000  -0.000  -0.000   0.000  -0.000  -0.000  -0.000
 -0.000  -0.000   0.000  -0.000   0.000  -0.000  -0.000   0.000
 -0.000  -0.000  -0.000  -0.000  -0.000  -0.000  -0.000  -0.000
 -0.000  -0.000   0.000  -0.000  -0.000  -0.000  -0.000   0.000
 -0.000  -0.000   0.000  -0.000   0.000  -0.000  -0.000   0.000
 -0.000  -0.000  -0.000  -0.000  -0.000  -0.000  -0.000  -0.000
 -0.000  -0.000   0.000  -0.000  -0.000  -0.000  -0.000   0.000
 total augmentation occupancy for first ion, spin component:           1
  3.650   0.000  -0.000  -0.000   0.000  -2.624   0.000   0.000   0.000  -0.000  -0.000  -0.000   0.000  -0.000  -0.000   0.000
 -0.000   3.650   0.000  -0.000  -0.000  -0.000  -2.624  -0.000  -0.000   0.000   0.000   0.000  -0.000  -0.000   0.000  -0.000
 -0.000   0.000   4.117   0.000  -0.000   0.000   0.000  -2.639  -0.000   0.000  -0.000   0.000   0.000  -0.000   0.000  -0.000
 -0.000   0.000   0.000   3.650   0.000  -0.000  -0.000  -0.000  -2.624   0.000   0.000  -0.000   0.000   0.000   0.000   0.000
 -0.000  -0.000  -0.000   0.000   4.117  -0.000  -0.000   0.000   0.000  -2.639  -0.000  -0.000   0.000   0.000   0.000  -0.000
 -2.624  -0.000   0.000  -0.000  -0.000   3.356   0.000   0.000   0.000  -0.000   0.000  -0.000   0.000  -0.000   0.000   0.000
  0.000  -2.624   0.000  -0.000  -0.000  -0.000   3.356   0.000  -0.000  -0.000   0.000  -0.000   0.000  -0.000   0.000   0.000
  0.000  -0.000  -2.639  -0.000   0.000   0.000   0.000   3.020   0.000  -0.000   0.000  -0.000  -0.000  -0.000   0.000   0.000
  0.000  -0.000  -0.000  -2.624   0.000  -0.000  -0.000   0.000   3.356   0.000   0.000   0.000  -0.000   0.000   0.000   0.000
 -0.000   0.000   0.000   0.000  -2.639   0.000  -0.000  -0.000   0.000   3.020   0.000   0.000   0.000  -0.000   0.000   0.000
 -0.000  -0.000  -0.000   0.000   0.000   0.000  -0.000   0.000   0.000  -0.000   2.416  -0.400   0.000   0.000   0.000   0.000
 -0.000  -0.000   0.000   0.000  -0.000  -0.000   0.000  -0.000   0.000   0.000  -0.400   0.070   0.000   0.000  -0.000  -0.000
 -0.000  -0.000  -0.000  -0.000  -0.000  -0.000   0.000  -0.000  -0.000  -0.000  -0.000   0.000   0.312   0.000  -0.000  -0.018
 -0.000  -0.000  -0.000  -0.000  -0.000  -0.000   0.000   0.000  -0.000   0.000  -0.000  -0.000  -0.000   0.312  -0.000  -0.000
  0.000   0.000  -0.000   0.000   0.000  -0.000   0.000   0.000  -0.000   0.000  -0.000   0.000  -0.000   0.000   0.312  -0.000
 -0.000   0.000  -0.000  -0.000   0.000  -0.000  -0.000   0.000   0.000   0.000  -0.000  -0.000  -0.018  -0.000  -0.000   0.001
 -0.000  -0.000   0.000   0.000   0.000   0.000   0.000   0.000  -0.000  -0.000  -0.000  -0.000   0.000  -0.018   0.000  -0.000
  0.000  -0.000   0.000  -0.000  -0.000  -0.000   0.000   0.000   0.000  -0.000   0.000  -0.000  -0.000  -0.000  -0.018  -0.000


------------------------ aborting loop because EDIFF is reached ----------------------------------------


    CHARGE:  cpu time    0.0048: real time    0.0048
    FORLOC:  cpu time    0.0002: real time    0.0002
    FORNL :  cpu time    0.0233: real time    0.0233
    STRESS:  cpu time    0.1085: real time    0.1086
    FORCOR:  cpu time    0.0033: real time    0.0034
    FORHAR:  cpu time    0.0006: real time    0.0006
    MIXING:  cpu time    0.0002: real time    0.0002
    OFIELD:  cpu time    0.0001: real time    0.0001

  FORCE on cell =-STRESS in cart. coord.  units (eV):
  Direction    XX          YY          ZZ          XY          YZ          ZX
  --------------------------------------------------------------------------------------
  Alpha Z   196.12072   196.12072   196.12072
  Ewald   -1170.48254 -1170.48254 -1170.48254    -0.00000    -0.00000    -0.00000
  Hartree   135.20749   135.20749   135.20749    -0.00000    -0.00000    -0.00000
  E(xc)    -212.28452  -212.28452  -212.28452     0.00000     0.00000    -0.00000
  Local     214.99234   214.99234   214.99234     0.00000     0.00000     0.00000
  n-local     6.55512    -5.00892     6.03906    10.56045     6.93387     6.82944
  augment   295.72624   295.72624   295.72624     0.00000     0.00000     0.00000
  Kinetic   556.30998   547.00180   545.45656     4.08434    -1.01392     1.35068
  Fock        0.00000     0.00000     0.00000     0.00000     0.00000     0.00000
  -------------------------------------------------------------------------------------
  Total      11.39760    11.39760    11.39760     0.00000     0.00000     0.00000
  in kB     343.43545   343.43545   343.43545     0.00000     0.00000     0.00000
  external pressure =      343.44 kB  Pullay stress =        0.00 kB


 VOLUME and BASIS-vectors are now :
 -----------------------------------------------------------------------------
  energy-cutoff  :      400.00
  volume of cell :       53.17
      direct lattice vectors                 reciprocal lattice vectors
     3.760333333  0.000000000  0.000000000     0.265933871  0.000000000  0.000000000
     0.000000000  3.760333333  0.000000000     0.000000000  0.265933871  0.000000000
     0.000000000  0.000000000  3.760333333     0.000000000  0.000000000  0.265933871

  length of vectors
     3.760333333  3.760333333  3.760333333     0.265933871  0.265933871  0.265933871


 FORCES acting on ions
    electron-ion (+dipol)            ewald-force                    non-local-force                 convergence-correction
 -----------------------------------------------------------------------------------------------
   -.192E-13 0.108E-13 -.564E-13   -.902E-14 0.165E-14 -.215E-14   0.165E-23 -.279E-23 -.372E-23   0.130E-13 0.176E-13 -.379E-13
   -.184E-13 0.329E-12 0.250E-12   -.999E-14 -.347E-14 0.355E-14   -.331E-23 0.207E-23 -.372E-23   0.120E-13 0.288E-14 0.166E-13
   0.298E-12 0.550E-14 -.323E-12   0.570E-14 0.474E-14 0.365E-14   -.165E-23 0.620E-23 0.000E+00   0.227E-13 0.345E-13 0.303E-13
   0.297E-12 0.323E-12 0.356E-12   0.473E-14 -.380E-15 -.785E-14   0.165E-23 0.827E-24 0.000E+00   0.244E-13 0.720E-14 -.236E-13
 -----------------------------------------------------------------------------------------------
   0.557E-12 0.669E-12 0.228E-12   -.857E-14 0.254E-14 -.280E-14   -.165E-23 0.631E-23 -.744E-23   0.722E-13 0.622E-13 -.145E-13
 
 
 POSITION                                       TOTAL-FORCE (eV/Angst)
 -----------------------------------------------------------------------------------
      0.00000      0.00000      0.00000         0.000000     -0.000000      0.000000
      0.00000      1.88017      1.88017        -0.000000      0.000000     -0.000000
      1.88017      0.00000      1.88017        -0.000000     -0.000000     -0.000000
      1.88017      1.88017      0.00000         0.000000      0.000000      0.000000
 -----------------------------------------------------------------------------------
    total drift:                                0.000000      0.000000      0.000000


--------------------------------------------------------------------------------------------------------



  FREE ENERGIE OF THE ION-ELECTRON SYSTEM (eV)
  ---------------------------------------------------
  free  energy   TOTEN  =       -20.09826008 eV

  energy  without entropy=      -20.09795122  energy(sigma->0) =      -20.09815713
 


--------------------------------------------------------------------------------------------------------


    POTLOK:  cpu time    0.0050: real time    0.0050


--------------------------------------------------------------------------------------------------------


     LOOP+:  cpu time    2.2814: real time    2.3450
    4ORBIT:  cpu time    0.0000: real time    0.0000

 total amount of memory used by VASP on root node    33775. kBytes
========================================================================

   base      :      30000. kBytes
   nonl-proj :       2896. kBytes
   fftplans  :        113. kBytes
   grid      :        367. kBytes
   one-center:         62. kBytes
   wavefun   :        337. kBytes
 
  
  
 General timing and accounting informations for this job:
 ========================================================
  
                  Total CPU time used (sec):       20.889
                            User time (sec):       20.771
                          System time (sec):        0.118
                         Elapsed time (sec):       21.118
  
                   Maximum memory used (kb):       54800.
                   Average memory used (kb):           0.
  
                          Minor page faults:        15348
                          Major page faults:            8
                 Voluntary context switches:         1498
