<?xml version="1.0" encoding="ISO-8859-1"?>
<modeling>
 <generator>
  <i name="program" type="string">vasp </i>
  <i name="version" type="string">5.4.1  </i>
  <i name="subversion" type="string">05Feb16 (build Feb 08 2018 09:21:51) complex                          parallel </i>
  <i name="platform" type="string">LinuxIFC </i>
  <i name="date" type="string">2019 11 20 </i>
  <i name="time" type="string">21:32:19 </i>
 </generator>
 <incar>
  <i type="string" name="PREC">normal</i>
  <i name="ENCUT">    400.00000000</i>
  <i type="int" name="ISMEAR">     1</i>
  <i name="SIGMA">      0.10000000</i>
  <i type="logical" name="LWAVE"> F  </i>
  <i type="logical" name="LCHARG"> F  </i>
  <v type="int" name="KPOINT_BSE">    -1     0     0     0</v>
 </incar>
 <kpoints>
  <generation param="Monkhorst-Pack">
   <v type="int" name="divisions">       8        8        8 </v>
   <v name="usershift">      0.00000000       0.00000000       0.00000000 </v>
   <v name="genvec1">      0.12500000       0.00000000       0.00000000 </v>
   <v name="genvec2">      0.00000000       0.12500000       0.00000000 </v>
   <v name="genvec3">      0.00000000       0.00000000       0.12500000 </v>
   <v name="shift">      0.50000000       0.50000000       0.50000000 </v>
  </generation>
  <varray name="kpointlist" >
   <v>       0.06250000       0.06250000       0.06250000 </v>
   <v>       0.18750000       0.06250000       0.06250000 </v>
   <v>       0.31250000       0.06250000       0.06250000 </v>
   <v>       0.43750000       0.06250000       0.06250000 </v>
   <v>       0.18750000       0.18750000       0.06250000 </v>
   <v>       0.31250000       0.18750000       0.06250000 </v>
   <v>       0.43750000       0.18750000       0.06250000 </v>
   <v>       0.31250000       0.31250000       0.06250000 </v>
   <v>       0.43750000       0.31250000       0.06250000 </v>
   <v>       0.43750000       0.43750000       0.06250000 </v>
   <v>       0.18750000       0.18750000       0.18750000 </v>
   <v>       0.31250000       0.18750000       0.18750000 </v>
   <v>       0.43750000       0.18750000       0.18750000 </v>
   <v>       0.31250000       0.31250000       0.18750000 </v>
   <v>       0.43750000       0.31250000       0.18750000 </v>
   <v>       0.43750000       0.43750000       0.18750000 </v>
   <v>       0.31250000       0.31250000       0.31250000 </v>
   <v>       0.43750000       0.31250000       0.31250000 </v>
   <v>       0.43750000       0.43750000       0.31250000 </v>
   <v>       0.43750000       0.43750000       0.43750000 </v>
  </varray>
  <varray name="weights" >
   <v>       0.01562500 </v>
   <v>       0.04687500 </v>
   <v>       0.04687500 </v>
   <v>       0.04687500 </v>
   <v>       0.04687500 </v>
   <v>       0.09375000 </v>
   <v>       0.09375000 </v>
   <v>       0.04687500 </v>
   <v>       0.09375000 </v>
   <v>       0.04687500 </v>
   <v>       0.01562500 </v>
   <v>       0.04687500 </v>
   <v>       0.04687500 </v>
   <v>       0.04687500 </v>
   <v>       0.09375000 </v>
   <v>       0.04687500 </v>
   <v>       0.01562500 </v>
   <v>       0.04687500 </v>
   <v>       0.04687500 </v>
   <v>       0.01562500 </v>
  </varray>
 </kpoints>
 <parameters>
  <separator name="general" >
   <i type="string" name="SYSTEM">unknown system</i>
   <i type="logical" name="LCOMPAT"> F  </i>
  </separator>
  <separator name="electronic" >
   <i type="string" name="PREC">normal</i>
   <i name="ENMAX">    400.00000000</i>
   <i name="ENAUG">    416.23000000</i>
   <i name="EDIFF">      0.00010000</i>
   <i type="int" name="IALGO">    38</i>
   <i type="int" name="IWAVPR">    10</i>
   <i type="int" name="NBANDS">    24</i>
   <i name="NELECT">     40.00000000</i>
   <i type="int" name="TURBO">     0</i>
   <i type="int" name="IRESTART">     0</i>
   <i type="int" name="NREBOOT">     0</i>
   <i type="int" name="NMIN">     0</i>
   <i name="EREF">      0.00000000</i>
   <separator name="electronic smearing" >
    <i type="int" name="ISMEAR">     1</i>
    <i name="SIGMA">      0.10000000</i>
    <i name="KSPACING">      0.50000000</i>
    <i type="logical" name="KGAMMA"> T  </i>
   </separator>
   <separator name="electronic projectors" >
    <i type="logical" name="LREAL"> F  </i>
    <v name="ROPT">      0.00000000</v>
    <i type="int" name="LMAXPAW">  -100</i>
    <i type="int" name="LMAXMIX">     2</i>
    <i type="logical" name="NLSPLINE"> F  </i>
   </separator>
   <separator name="electronic startup" >
    <i type="int" name="ISTART">     0</i>
    <i type="int" name="ICHARG">     2</i>
    <i type="int" name="INIWAV">     1</i>
   </separator>
   <separator name="electronic spin" >
    <i type="int" name="ISPIN">     1</i>
    <i type="logical" name="LNONCOLLINEAR"> F  </i>
    <v name="MAGMOM">      1.00000000      1.00000000      1.00000000      1.00000000</v>
    <i name="NUPDOWN">     -1.00000000</i>
    <i type="logical" name="LSORBIT"> F  </i>
    <v name="SAXIS">      0.00000000      0.00000000      1.00000000</v>
    <i type="logical" name="LSPIRAL"> F  </i>
    <v name="QSPIRAL">      0.00000000      0.00000000      0.00000000</v>
    <i type="logical" name="LZEROZ"> F  </i>
   </separator>
   <separator name="electronic exchange-correlation" >
    <i type="logical" name="LASPH"> F  </i>
    <i type="logical" name="LMETAGGA"> F  </i>
   </separator>
   <separator name="electronic convergence" >
    <i type="int" name="NELM">    60</i>
    <i type="int" name="NELMDL">    -5</i>
    <i type="int" name="NELMIN">     2</i>
    <i name="ENINI">    400.00000000</i>
    <separator name="electronic convergence detail" >
     <i type="logical" name="LDIAG"> T  </i>
     <i type="logical" name="LSUBROT"> F  </i>
     <i name="WEIMIN">      0.00000000</i>
     <i name="EBREAK">      0.00000104</i>
     <i name="DEPER">      0.30000000</i>
     <i type="int" name="NRMM">     4</i>
     <i name="TIME">      0.40000000</i>
    </separator>
   </separator>
   <separator name="electronic mixer" >
    <i name="AMIX">      0.40000000</i>
    <i name="BMIX">      1.00000000</i>
    <i name="AMIN">      0.10000000</i>
    <i name="AMIX_MAG">      1.60000000</i>
    <i name="BMIX_MAG">      1.00000000</i>
    <separator name="electronic mixer details" >
     <i type="int" name="IMIX">     4</i>
     <i type="logical" name="MIXFIRST"> F  </i>
     <i type="int" name="MAXMIX">   -45</i>
     <i name="WC">    100.00000000</i>
     <i type="int" name="INIMIX">     1</i>
     <i type="int" name="MIXPRE">     1</i>
     <i type="int" name="MREMOVE">     5</i>
    </separator>
   </separator>
   <separator name="electronic dipolcorrection" >
    <i type="logical" name="LDIPOL"> F  </i>
    <i type="logical" name="LMONO"> F  </i>
    <i type="int" name="IDIPOL">     0</i>
    <i name="EPSILON">      1.00000000</i>
    <v name="DIPOL">   -100.00000000   -100.00000000   -100.00000000</v>
    <i name="EFIELD">      0.00000000</i>
   </separator>
  </separator>
  <separator name="grids" >
   <i type="int" name="NGX">    18</i>
   <i type="int" name="NGY">    18</i>
   <i type="int" name="NGZ">    18</i>
   <i type="int" name="NGXF">    36</i>
   <i type="int" name="NGYF">    36</i>
   <i type="int" name="NGZF">    36</i>
   <i type="logical" name="ADDGRID"> F  </i>
  </separator>
  <separator name="ionic" >
   <i type="int" name="NSW">     0</i>
   <i type="int" name="IBRION">    -1</i>
   <i type="int" name="ISIF">     2</i>
   <i name="PSTRESS">      0.00000000</i>
   <i name="EDIFFG">      0.00100000</i>
   <i type="int" name="NFREE">     0</i>
   <i name="POTIM">      0.50000000</i>
   <i name="SMASS">     -3.00000000</i>
   <i name="SCALEE">      1.00000000</i>
  </separator>
  <separator name="ionic md" >
   <i name="TEBEG">      0.00010000</i>
   <i name="TEEND">      0.00010000</i>
   <i type="int" name="NBLOCK">     1</i>
   <i type="int" name="KBLOCK">     1</i>
   <i type="int" name="NPACO">   256</i>
   <i name="APACO">     16.00000000</i>
  </separator>
  <separator name="symmetry" >
   <i type="int" name="ISYM">     2</i>
   <i name="SYMPREC">      0.00001000</i>
  </separator>
  <separator name="dos" >
   <i type="logical" name="LORBIT"> F  </i>
   <v name="RWIGS">     -1.00000000</v>
   <i type="int" name="NEDOS">   301</i>
   <i name="EMIN">     10.00000000</i>
   <i name="EMAX">    -10.00000000</i>
   <i name="EFERMI">      0.00000000</i>
  </separator>
  <separator name="writing" >
   <i type="int" name="NWRITE">     2</i>
   <i type="logical" name="LWAVE"> F  </i>
   <i type="logical" name="LCHARG"> F  </i>
   <i type="logical" name="LPARD"> F  </i>
   <i type="logical" name="LVTOT"> F  </i>
   <i type="logical" name="LVHAR"> F  </i>
   <i type="logical" name="LELF"> F  </i>
   <i type="logical" name="LOPTICS"> F  </i>
   <v name="STM">      0.00000000      0.00000000      0.00000000      0.00000000      0.00000000      0.00000000      0.00000000</v>
  </separator>
  <separator name="performance" >
   <i type="int" name="NPAR">    24</i>
   <i type="int" name="NSIM">     4</i>
   <i type="int" name="NBLK">    -1</i>
   <i type="logical" name="LPLANE"> T  </i>
   <i type="logical" name="LSCALAPACK"> F  </i>
   <i type="logical" name="LSCAAWARE"> F  </i>
   <i type="logical" name="LSCALU"> F  </i>
   <i type="logical" name="LASYNC"> F  </i>
   <i type="logical" name="LORBITALREAL"> F  </i>
  </separator>
  <separator name="miscellaneous" >
   <i type="int" name="IDIOT">     3</i>
   <i type="logical" name="LMUSIC"> F  </i>
   <v name="POMASS">    106.42000000</v>
   <v name="DARWINR">      0.00000000</v>
   <v name="DARWINV">      1.00000000</v>
   <i type="logical" name="LCORR"> T  </i>
  </separator>
  <i type="logical" name="GGA_COMPAT"> T  </i>
  <i type="logical" name="LBERRY"> F  </i>
  <i type="int" name="ICORELEVEL">     0</i>
  <i type="logical" name="LDAU"> F  </i>
  <i type="int" name="I_CONSTRAINED_M">     0</i>
  <separator name="electronic exchange-correlation" >
   <i type="string" name="GGA">--</i>
   <i type="int" name="VOSKOWN">     0</i>
   <i type="logical" name="LHFCALC"> F  </i>
   <i type="string" name="PRECFOCK"></i>
   <i type="logical" name="LSYMGRAD"> F  </i>
   <i type="logical" name="LHFONE"> F  </i>
   <i type="logical" name="LRHFCALC"> F  </i>
   <i type="logical" name="LTHOMAS"> F  </i>
   <i type="logical" name="LMODELHF"> F  </i>
   <i name="ENCUT4O">     -1.00000000</i>
   <i type="int" name="EXXOEP">     0</i>
   <i type="int" name="FOURORBIT">     0</i>
   <i name="AEXX">      0.00000000</i>
   <i name="HFALPHA">      0.00000000</i>
   <i name="MCALPHA">      0.00000000</i>
   <i name="ALDAX">      1.00000000</i>
   <i name="AGGAX">      1.00000000</i>
   <i name="ALDAC">      1.00000000</i>
   <i name="AGGAC">      1.00000000</i>
   <i type="int" name="NKREDX">     1</i>
   <i type="int" name="NKREDY">     1</i>
   <i type="int" name="NKREDZ">     1</i>
   <i type="logical" name="SHIFTRED"> F  </i>
   <i type="logical" name="ODDONLY"> F  </i>
   <i type="logical" name="EVENONLY"> F  </i>
   <i type="int" name="LMAXFOCK">     0</i>
   <i type="int" name="NMAXFOCKAE">     0</i>
   <i type="logical" name="LFOCKAEDFT"> F  </i>
   <i name="HFSCREEN">      0.00000000</i>
   <i name="HFSCREENC">      0.00000000</i>
   <i type="int" name="NBANDSGWLOW">     0</i>
  </separator>
  <separator name="vdW DFT" >
   <i type="logical" name="LUSE_VDW"> F  </i>
   <i name="Zab_VDW">     -0.84910000</i>
   <i name="PARAM1">      0.12340000</i>
   <i name="PARAM2">      1.00000000</i>
   <i name="PARAM3">      0.00000000</i>
  </separator>
  <separator name="model GW" >
   <i type="int" name="MODEL_GW">     0</i>
   <i name="MODEL_EPS0">      7.97572723</i>
   <i name="MODEL_ALPHA">      1.00000000</i>
  </separator>
  <separator name="linear response parameters" >
   <i type="logical" name="LEPSILON"> F  </i>
   <i type="logical" name="LRPA"> F  </i>
   <i type="logical" name="LNABLA"> F  </i>
   <i type="logical" name="LVEL"> F  </i>
   <i type="int" name="KINTER">     0</i>
   <i name="CSHIFT">      0.10000000</i>
   <i name="OMEGAMAX">     -1.00000000</i>
   <i name="DEG_THRESHOLD">      0.00200000</i>
  </separator>
  <separator name="orbital magnetization" >
   <i type="logical" name="NUCIND"> F  </i>
   <v name="MAGPOS">      0.00000000      0.00000000      0.00000000</v>
   <i type="logical" name="LNICSALL"> T  </i>
   <i type="logical" name="ORBITALMAG"> F  </i>
   <i type="logical" name="LMAGBLOCH"> F  </i>
   <i type="logical" name="LCHIMAG"> F  </i>
   <i type="logical" name="LGAUGE"> T  </i>
   <i type="int" name="MAGATOM">     0</i>
   <v name="MAGDIPOL">      0.00000000      0.00000000      0.00000000</v>
   <v name="AVECCONST">      0.00000000      0.00000000      0.00000000</v>
  </separator>
  <separator name="response functions" >
   <i type="logical" name="LADDER"> F  </i>
   <i type="logical" name="LFXC"> F  </i>
   <i type="logical" name="LHARTREE"> T  </i>
   <i type="int" name="IBSE">     0</i>
   <v type="int" name="KPOINT">    -1     0     0     0</v>
   <i type="logical" name="LTCTE"> F  </i>
   <i type="logical" name="LTETE"> F  </i>
   <i type="logical" name="LTRIPLET"> F  </i>
   <i type="logical" name="LFXCEPS"> F  </i>
   <i type="logical" name="LFXHEG"> F  </i>
   <i type="int" name="NATURALO">     0</i>
   <i type="logical" name="L2ORDER"> F  </i>
   <i type="logical" name="LUSEW"> F  </i>
   <i name="ENCUTGW">     -2.00000000</i>
   <i name="ENCUTGWSOFT">     -2.00000000</i>
   <i name="ENCUTLF">     -1.00000000</i>
   <i type="int" name="LMAXMP2">    -1</i>
   <i name="SCISSOR">      0.00000000</i>
   <i type="int" name="NOMEGA">     0</i>
   <i type="int" name="NOMEGAR">     0</i>
   <i type="int" name="NBANDSGW">    -1</i>
   <i type="int" name="NBANDSO">    -1</i>
   <i type="int" name="NBANDSV">    -1</i>
   <i type="int" name="NELM">     1</i>
   <i type="int" name="NELMHF">     1</i>
   <i type="int" name="DIM">     3</i>
   <i type="int" name="ANTIRES">     0</i>
   <i name="OMEGAMAX">    -30.00000000</i>
   <i name="OMEGAMIN">    -30.00000000</i>
   <i name="OMEGATL">   -200.00000000</i>
   <i type="int" name="OMEGAGRID">     0</i>
   <i name="CSHIFT">     -0.10000000</i>
   <i type="logical" name="SELFENERGY"> F  </i>
   <i type="logical" name="LSPECTRAL"> F  </i>
   <i type="logical" name="LSPECTRALGW"> F  </i>
   <i type="logical" name="LSINGLES"> F  </i>
   <i type="logical" name="LFERMIGW"> F  </i>
   <i type="logical" name="ODDONLYGW"> F  </i>
   <i type="logical" name="EVENONLYGW"> F  </i>
   <i type="int" name="NKREDLFX">     1</i>
   <i type="int" name="NKREDLFY">     1</i>
   <i type="int" name="NKREDLFZ">     1</i>
   <i type="int" name="MAXMEM">  1800</i>
   <i type="int" name="TELESCOPE">     0</i>
   <i type="int" name="TAUPAR">     1</i>
   <i type="int" name="OMEGAPAR">    -1</i>
   <i name="LAMBDA">      1.00000000</i>
  </separator>
  <separator name="External order field" >
   <i name="OFIELD_KAPPA">      0.00000000</i>
   <v name="OFIELD_K">      0.00000000      0.00000000      0.00000000</v>
   <i name="OFIELD_Q6_NEAR">      0.00000000</i>
   <i name="OFIELD_Q6_FAR">      0.00000000</i>
   <i name="OFIELD_A">      0.00000000</i>
  </separator>
 </parameters>
 <atominfo>
  <atoms>       4 </atoms>
  <types>       1 </types>
  <array name="atoms" >
   <dimension dim="1">ion</dimension>
   <field type="string">element</field>
   <field type="int">atomtype</field>
   <set>
    <rc><c>Pd</c><c>   1</c></rc>
    <rc><c>Pd</c><c>   1</c></rc>
    <rc><c>Pd</c><c>   1</c></rc>
    <rc><c>Pd</c><c>   1</c></rc>
   </set>
  </array>
  <array name="atomtypes" >
   <dimension dim="1">type</dimension>
   <field type="int">atomspertype</field>
   <field type="string">element</field>
   <field>mass</field>
   <field>valence</field>
   <field type="string">pseudopotential</field>
   <set>
    <rc><c>   4</c><c>Pd</c><c>    106.42000000</c><c>     10.00000000</c><c>  PAW_PBE Pd 04Jan2005                  </c></rc>
   </set>
  </array>
 </atominfo>
 <structure name="initialpos" >
  <crystal>
   <varray name="basis" >
    <v>       3.76033333       0.00000000       0.00000000 </v>
    <v>       0.00000000       3.76033333       0.00000000 </v>
    <v>       0.00000000       0.00000000       3.76033333 </v>
   </varray>
   <i name="volume">     53.17151485 </i>
   <varray name="rec_basis" >
    <v>       0.26593387       0.00000000       0.00000000 </v>
    <v>       0.00000000       0.26593387       0.00000000 </v>
    <v>       0.00000000       0.00000000       0.26593387 </v>
   </varray>
  </crystal>
  <varray name="positions" >
   <v>       0.00000000       0.00000000       0.00000000 </v>
   <v>       0.00000000       0.50000000       0.50000000 </v>
   <v>       0.50000000       0.00000000       0.50000000 </v>
   <v>       0.50000000       0.50000000       0.00000000 </v>
  </varray>
 </structure>
 <calculation>
  <scstep>
   <time name="dav">    0.13    0.13</time>
   <time name="total">    0.98    0.99</time>
   <energy>
    <i name="alphaZ">    196.12072420 </i>
    <i name="ewald">  -3511.44608229 </i>
    <i name="hartreedc">   -446.78609489 </i>
    <i name="XCdc">   -114.96503415 </i>
    <i name="pawpsdc">   3226.95325816 </i>
    <i name="pawaedc">  -2978.06409795 </i>
    <i name="eentropy">      0.00103470 </i>
    <i name="bandstr">    538.77207782 </i>
    <i name="atom">   3238.97557032 </i>
    <i name="e_fr_energy">    149.56135594 </i>
    <i name="e_wo_entrp">    149.56032124 </i>
    <i name="e_0_energy">    149.56101104 </i>
   </energy>
  </scstep>
  <scstep>
   <time name="dav">    0.18    0.18</time>
   <time name="total">    0.18    0.19</time>
   <energy>
    <i name="e_fr_energy">    -20.39254740 </i>
    <i name="e_wo_entrp">    -20.38834512 </i>
    <i name="e_0_energy">    -20.39114664 </i>
   </energy>
  </scstep>
  <scstep>
   <time name="dav">    0.11    0.11</time>
   <time name="total">    0.11    0.11</time>
   <energy>
    <i name="e_fr_energy">    -21.26541941 </i>
    <i name="e_wo_entrp">    -21.26179735 </i>
    <i name="e_0_energy">    -21.26421205 </i>
   </energy>
  </scstep>
  <scstep>
   <time name="dav">    0.14    0.14</time>
   <time name="total">    0.14    0.14</time>
   <energy>
    <i name="e_fr_energy">    -21.26960337 </i>
    <i name="e_wo_entrp">    -21.26599162 </i>
    <i name="e_0_energy">    -21.26839945 </i>
   </energy>
  </scstep>
  <scstep>
   <time name="dav">    0.12    0.12</time>
   <time name="total">    0.13    0.13</time>
   <energy>
    <i name="e_fr_energy">    -21.26964950 </i>
    <i name="e_wo_entrp">    -21.26603781 </i>
    <i name="e_0_energy">    -21.26844560 </i>
   </energy>
  </scstep>
  <scstep>
   <time name="dav">    0.11    0.11</time>
   <time name="total">    0.12    0.12</time>
   <energy>
    <i name="e_fr_energy">    -20.19980830 </i>
    <i name="e_wo_entrp">    -20.19852814 </i>
    <i name="e_0_energy">    -20.19938158 </i>
   </energy>
  </scstep>
  <scstep>
   <time name="dav">    0.12    0.12</time>
   <time name="total">    0.13    0.14</time>
   <energy>
    <i name="e_fr_energy">    -20.11434015 </i>
    <i name="e_wo_entrp">    -20.11404295 </i>
    <i name="e_0_energy">    -20.11424108 </i>
   </energy>
  </scstep>
  <scstep>
   <time name="dav">    0.12    0.12</time>
   <time name="total">    0.13    0.13</time>
   <energy>
    <i name="e_fr_energy">    -20.09838085 </i>
    <i name="e_wo_entrp">    -20.09807537 </i>
    <i name="e_0_energy">    -20.09827902 </i>
   </energy>
  </scstep>
  <scstep>
   <time name="dav">    0.07    0.07</time>
   <time name="total">    0.12    0.12</time>
   <energy>
    <i name="e_fr_energy">    -20.09823799 </i>
    <i name="e_wo_entrp">    -20.09793598 </i>
    <i name="e_0_energy">    -20.09813732 </i>
   </energy>
  </scstep>
  <scstep>
   <time name="dav">    0.06    0.06</time>
   <time name="total">    0.07    0.07</time>
   <energy>
    <i name="alphaZ">    196.12072420 </i>
    <i name="ewald">  -3511.44608229 </i>
    <i name="hartreedc">   -405.61230212 </i>
    <i name="XCdc">   -116.05380459 </i>
    <i name="pawpsdc">   4182.06653548 </i>
    <i name="pawaedc">  -3947.60940955 </i>
    <i name="eentropy">     -0.00030887 </i>
    <i name="bandstr">    343.46081733 </i>
    <i name="atom">   3238.97557032 </i>
    <i name="e_fr_energy">    -20.09826008 </i>
    <i name="e_wo_entrp">    -20.09795122 </i>
    <i name="e_0_energy">    -20.09815713 </i>
   </energy>
  </scstep>
  <structure>
   <crystal>
    <varray name="basis" >
     <v>       3.76033333       0.00000000       0.00000000 </v>
     <v>       0.00000000       3.76033333       0.00000000 </v>
     <v>       0.00000000       0.00000000       3.76033333 </v>
    </varray>
    <i name="volume">     53.17151485 </i>
    <varray name="rec_basis" >
     <v>       0.26593387       0.00000000       0.00000000 </v>
     <v>       0.00000000       0.26593387       0.00000000 </v>
     <v>       0.00000000       0.00000000       0.26593387 </v>
    </varray>
   </crystal>
   <varray name="positions" >
    <v>       0.00000000       0.00000000       0.00000000 </v>
    <v>       0.00000000       0.50000000       0.50000000 </v>
    <v>       0.50000000       0.00000000       0.50000000 </v>
    <v>       0.50000000       0.50000000       0.00000000 </v>
   </varray>
  </structure>
  <varray name="forces" >
   <v>       0.00000000      -0.00000000       0.00000000 </v>
   <v>      -0.00000000       0.00000000      -0.00000000 </v>
   <v>      -0.00000000      -0.00000000      -0.00000000 </v>
   <v>       0.00000000       0.00000000       0.00000000 </v>
  </varray>
  <varray name="stress" >
   <v>     343.43545158       0.00000000       0.00000000 </v>
   <v>       0.00000000     343.43545158      -0.00000000 </v>
   <v>      -0.00000000       0.00000000     343.43545158 </v>
  </varray>
  <energy>
   <i name="e_fr_energy">    -20.09826008 </i>
   <i name="e_wo_entrp">    -20.09815713 </i>
   <i name="e_0_energy">     -0.00030887 </i>
  </energy>
  <time name="totalsc">    2.28    2.34</time>
  <eigenvalues>
   <array>
    <dimension dim="1">band</dimension>
    <dimension dim="2">kpoint</dimension>
    <dimension dim="3">spin</dimension>
    <field>eigene</field>
    <field>occ</field>
    <set>
     <set comment="spin 1">
      <set comment="kpoint 1">
       <r>    3.8280    1.0000 </r>
       <r>    5.4018    1.0000 </r>
       <r>    5.4018    1.0000 </r>
       <r>    5.4018    1.0000 </r>
       <r>    5.7332    1.0000 </r>
       <r>    5.7332    1.0000 </r>
       <r>    5.7332    1.0000 </r>
       <r>    8.2482    1.0000 </r>
       <r>    8.3671    1.0000 </r>
       <r>    8.3671    1.0000 </r>
       <r>   10.1902    1.0000 </r>
       <r>   10.1902    1.0000 </r>
       <r>   11.4964    1.0198 </r>
       <r>   11.4964    1.0198 </r>
       <r>   11.4964    1.0198 </r>
       <r>   11.5823    0.9933 </r>
       <r>   11.5823    0.9933 </r>
       <r>   11.5823    0.9933 </r>
       <r>   11.9601   -0.0001 </r>
       <r>   11.9601   -0.0001 </r>
       <r>   11.9601   -0.0001 </r>
       <r>   15.2558    0.0000 </r>
       <r>   15.2558    0.0000 </r>
       <r>   15.2558    0.0000 </r>
      </set>
      <set comment="kpoint 2">
       <r>    4.2287    1.0000 </r>
       <r>    5.6095    1.0000 </r>
       <r>    5.6552    1.0000 </r>
       <r>    5.6552    1.0000 </r>
       <r>    5.8963    1.0000 </r>
       <r>    6.0015    1.0000 </r>
       <r>    6.0015    1.0000 </r>
       <r>    8.0339    1.0000 </r>
       <r>    8.5436    1.0000 </r>
       <r>    8.5507    1.0000 </r>
       <r>    9.9535    1.0000 </r>
       <r>   10.3007    1.0000 </r>
       <r>   10.5056    1.0000 </r>
       <r>   10.5056    1.0000 </r>
       <r>   11.1139    1.0000 </r>
       <r>   11.1867    1.0000 </r>
       <r>   11.1867    1.0000 </r>
       <r>   11.2288    1.0000 </r>
       <r>   11.7305    0.0515 </r>
       <r>   11.9337   -0.0004 </r>
       <r>   11.9337   -0.0004 </r>
       <r>   13.8027   -0.0000 </r>
       <r>   16.5659    0.0000 </r>
       <r>   16.5659    0.0000 </r>
      </set>
      <set comment="kpoint 3">
       <r>    4.9565    1.0000 </r>
       <r>    5.9402    1.0000 </r>
       <r>    6.0961    1.0000 </r>
       <r>    6.0961    1.0000 </r>
       <r>    6.2090    1.0000 </r>
       <r>    6.5109    1.0000 </r>
       <r>    6.5109    1.0000 </r>
       <r>    7.6275    1.0000 </r>
       <r>    8.8736    1.0000 </r>
       <r>    8.9094    1.0000 </r>
       <r>    9.2693    1.0000 </r>
       <r>    9.2693    1.0000 </r>
       <r>    9.6415    1.0000 </r>
       <r>   10.3025    1.0000 </r>
       <r>   10.5087    1.0000 </r>
       <r>   10.6384    1.0000 </r>
       <r>   10.6384    1.0000 </r>
       <r>   10.6945    1.0000 </r>
       <r>   11.4290    1.0022 </r>
       <r>   11.9239   -0.0007 </r>
       <r>   11.9239   -0.0007 </r>
       <r>   12.0775   -0.0000 </r>
       <r>   18.2364    0.0000 </r>
       <r>   18.2364    0.0000 </r>
      </set>
      <set comment="kpoint 4">
       <r>    5.7718    1.0000 </r>
       <r>    6.1429    1.0000 </r>
       <r>    6.5197    1.0000 </r>
       <r>    6.5197    1.0000 </r>
       <r>    6.6377    1.0000 </r>
       <r>    7.1326    1.0000 </r>
       <r>    7.2159    1.0000 </r>
       <r>    7.2159    1.0000 </r>
       <r>    8.1521    1.0000 </r>
       <r>    8.1521    1.0000 </r>
       <r>    9.0171    1.0000 </r>
       <r>    9.4108    1.0000 </r>
       <r>    9.4213    1.0000 </r>
       <r>    9.8607    1.0000 </r>
       <r>   10.0439    1.0000 </r>
       <r>   10.1530    1.0000 </r>
       <r>   10.1530    1.0000 </r>
       <r>   10.7290    1.0000 </r>
       <r>   10.7891    1.0000 </r>
       <r>   11.1076    1.0000 </r>
       <r>   11.9211   -0.0008 </r>
       <r>   11.9211   -0.0008 </r>
       <r>   19.9122    0.0000 </r>
       <r>   19.9122    0.0000 </r>
      </set>
      <set comment="kpoint 5">
       <r>    4.5964    1.0000 </r>
       <r>    5.8115    1.0000 </r>
       <r>    5.8611    1.0000 </r>
       <r>    5.8611    1.0000 </r>
       <r>    6.1585    1.0000 </r>
       <r>    6.1585    1.0000 </r>
       <r>    6.3177    1.0000 </r>
       <r>    7.9621    1.0000 </r>
       <r>    8.6143    1.0000 </r>
       <r>    8.6452    1.0000 </r>
       <r>    9.9153    1.0000 </r>
       <r>    9.9994    1.0000 </r>
       <r>    9.9994    1.0000 </r>
       <r>   10.0028    1.0000 </r>
       <r>   10.3246    1.0000 </r>
       <r>   10.8488    1.0000 </r>
       <r>   11.0293    1.0000 </r>
       <r>   11.0293    1.0000 </r>
       <r>   11.6914    0.2747 </r>
       <r>   11.6914    0.2747 </r>
       <r>   11.7414    0.0156 </r>
       <r>   15.0249    0.0000 </r>
       <r>   15.0249    0.0000 </r>
       <r>   17.5677    0.0000 </r>
      </set>
      <set comment="kpoint 6">
       <r>    5.2609    1.0000 </r>
       <r>    6.1664    1.0000 </r>
       <r>    6.1785    1.0000 </r>
       <r>    6.3077    1.0000 </r>
       <r>    6.4698    1.0000 </r>
       <r>    6.6439    1.0000 </r>
       <r>    6.8123    1.0000 </r>
       <r>    7.6798    1.0000 </r>
       <r>    8.7537    1.0000 </r>
       <r>    8.8616    1.0000 </r>
       <r>    8.9046    1.0000 </r>
       <r>    9.0961    1.0000 </r>
       <r>    9.2954    1.0000 </r>
       <r>    9.7616    1.0000 </r>
       <r>   10.4142    1.0000 </r>
       <r>   10.5370    1.0000 </r>
       <r>   10.6123    1.0000 </r>
       <r>   10.6346    1.0000 </r>
       <r>   11.3362    1.0000 </r>
       <r>   11.5946    0.9562 </r>
       <r>   11.6062    0.9078 </r>
       <r>   13.2582   -0.0000 </r>
       <r>   16.4697    0.0000 </r>
       <r>   18.9965    0.0000 </r>
      </set>
      <set comment="kpoint 7">
       <r>    6.0137    1.0000 </r>
       <r>    6.3732    1.0000 </r>
       <r>    6.6521    1.0000 </r>
       <r>    6.7667    1.0000 </r>
       <r>    6.8707    1.0000 </r>
       <r>    7.2265    1.0000 </r>
       <r>    7.2657    1.0000 </r>
       <r>    7.2809    1.0000 </r>
       <r>    7.9695    1.0000 </r>
       <r>    8.1748    1.0000 </r>
       <r>    8.6203    1.0000 </r>
       <r>    8.6914    1.0000 </r>
       <r>    9.3507    1.0000 </r>
       <r>    9.9161    1.0000 </r>
       <r>   10.0467    1.0000 </r>
       <r>   10.0888    1.0000 </r>
       <r>   10.1380    1.0000 </r>
       <r>   10.7821    1.0000 </r>
       <r>   11.1306    1.0000 </r>
       <r>   11.5538    1.0325 </r>
       <r>   11.5541    1.0324 </r>
       <r>   11.9105   -0.0013 </r>
       <r>   17.8590    0.0000 </r>
       <r>   19.1222    0.0000 </r>
      </set>
      <set comment="kpoint 8">
       <r>    5.7933    1.0000 </r>
       <r>    6.3929    1.0000 </r>
       <r>    6.5954    1.0000 </r>
       <r>    6.5954    1.0000 </r>
       <r>    6.9527    1.0000 </r>
       <r>    6.9527    1.0000 </r>
       <r>    7.2419    1.0000 </r>
       <r>    7.6698    1.0000 </r>
       <r>    8.3406    1.0000 </r>
       <r>    8.3406    1.0000 </r>
       <r>    8.6697    1.0000 </r>
       <r>    8.6942    1.0000 </r>
       <r>    9.0130    1.0000 </r>
       <r>    9.6558    1.0000 </r>
       <r>   10.0564    1.0000 </r>
       <r>   10.3006    1.0000 </r>
       <r>   10.3006    1.0000 </r>
       <r>   11.1068    1.0000 </r>
       <r>   11.1068    1.0000 </r>
       <r>   11.1663    1.0000 </r>
       <r>   11.2607    1.0000 </r>
       <r>   14.5798    0.0000 </r>
       <r>   14.5798    0.0000 </r>
       <r>   18.6193    0.0000 </r>
      </set>
      <set comment="kpoint 9">
       <r>    6.3825    1.0000 </r>
       <r>    6.7105    1.0000 </r>
       <r>    6.7947    1.0000 </r>
       <r>    7.1080    1.0000 </r>
       <r>    7.2719    1.0000 </r>
       <r>    7.3430    1.0000 </r>
       <r>    7.4718    1.0000 </r>
       <r>    7.5337    1.0000 </r>
       <r>    7.8237    1.0000 </r>
       <r>    8.0552    1.0000 </r>
       <r>    8.1789    1.0000 </r>
       <r>    8.3778    1.0000 </r>
       <r>    9.2907    1.0000 </r>
       <r>    9.7713    1.0000 </r>
       <r>    9.7832    1.0000 </r>
       <r>    9.9014    1.0000 </r>
       <r>    9.9238    1.0000 </r>
       <r>   10.5108    1.0000 </r>
       <r>   11.0012    1.0000 </r>
       <r>   11.0499    1.0000 </r>
       <r>   11.9696   -0.0001 </r>
       <r>   13.0620   -0.0000 </r>
       <r>   15.8797    0.0000 </r>
       <r>   17.1862    0.0000 </r>
      </set>
      <set comment="kpoint 10">
       <r>    6.7120    1.0000 </r>
       <r>    6.9198    1.0000 </r>
       <r>    6.9580    1.0000 </r>
       <r>    6.9580    1.0000 </r>
       <r>    7.6494    1.0000 </r>
       <r>    7.6833    1.0000 </r>
       <r>    7.6833    1.0000 </r>
       <r>    7.7194    1.0000 </r>
       <r>    7.9238    1.0000 </r>
       <r>    7.9238    1.0000 </r>
       <r>    8.1743    1.0000 </r>
       <r>    8.2756    1.0000 </r>
       <r>    9.2128    1.0000 </r>
       <r>    9.4699    1.0000 </r>
       <r>    9.5065    1.0000 </r>
       <r>    9.5065    1.0000 </r>
       <r>    9.9556    1.0000 </r>
       <r>   10.4113    1.0000 </r>
       <r>   10.4113    1.0000 </r>
       <r>   10.6160    1.0000 </r>
       <r>   13.0129   -0.0000 </r>
       <r>   14.2742   -0.0000 </r>
       <r>   14.2742   -0.0000 </r>
       <r>   15.6010    0.0000 </r>
      </set>
      <set comment="kpoint 11">
       <r>    4.8970    1.0000 </r>
       <r>    5.9715    1.0000 </r>
       <r>    5.9715    1.0000 </r>
       <r>    5.9715    1.0000 </r>
       <r>    6.4966    1.0000 </r>
       <r>    6.4966    1.0000 </r>
       <r>    6.4966    1.0000 </r>
       <r>    8.0191    1.0000 </r>
       <r>    8.6438    1.0000 </r>
       <r>    8.6438    1.0000 </r>
       <r>    9.6093    1.0000 </r>
       <r>    9.6093    1.0000 </r>
       <r>    9.6093    1.0000 </r>
       <r>   10.1612    1.0000 </r>
       <r>   10.1612    1.0000 </r>
       <r>   10.4336    1.0000 </r>
       <r>   10.4336    1.0000 </r>
       <r>   10.4336    1.0000 </r>
       <r>   11.8096   -0.0294 </r>
       <r>   11.8096   -0.0294 </r>
       <r>   11.8096   -0.0294 </r>
       <r>   15.8180    0.0000 </r>
       <r>   15.8180    0.0000 </r>
       <r>   15.8180    0.0000 </r>
      </set>
      <set comment="kpoint 12">
       <r>    5.4207    1.0000 </r>
       <r>    6.1822    1.0000 </r>
       <r>    6.2777    1.0000 </r>
       <r>    6.2777    1.0000 </r>
       <r>    6.8692    1.0000 </r>
       <r>    6.9657    1.0000 </r>
       <r>    6.9657    1.0000 </r>
       <r>    7.9347    1.0000 </r>
       <r>    8.6915    1.0000 </r>
       <r>    8.7641    1.0000 </r>
       <r>    8.8411    1.0000 </r>
       <r>    8.8411    1.0000 </r>
       <r>    9.0072    1.0000 </r>
       <r>    9.9046    1.0000 </r>
       <r>   10.0948    1.0000 </r>
       <r>   10.0948    1.0000 </r>
       <r>   10.1145    1.0000 </r>
       <r>   10.5617    1.0000 </r>
       <r>   11.6679    0.4635 </r>
       <r>   11.6679    0.4635 </r>
       <r>   11.7143    0.1261 </r>
       <r>   13.8040   -0.0000 </r>
       <r>   16.9429    0.0000 </r>
       <r>   16.9429    0.0000 </r>
      </set>
      <set comment="kpoint 13">
       <r>    5.9782    1.0000 </r>
       <r>    6.2595    1.0000 </r>
       <r>    6.7459    1.0000 </r>
       <r>    6.7459    1.0000 </r>
       <r>    7.1584    1.0000 </r>
       <r>    7.1584    1.0000 </r>
       <r>    7.3555    1.0000 </r>
       <r>    7.7176    1.0000 </r>
       <r>    8.3290    1.0000 </r>
       <r>    8.3290    1.0000 </r>
       <r>    8.5044    1.0000 </r>
       <r>    8.5091    1.0000 </r>
       <r>    9.0181    1.0000 </r>
       <r>    9.4089    1.0000 </r>
       <r>    9.8036    1.0000 </r>
       <r>    9.8036    1.0000 </r>
       <r>   10.7451    1.0000 </r>
       <r>   11.0155    1.0000 </r>
       <r>   11.4289    1.0022 </r>
       <r>   11.5259    1.0326 </r>
       <r>   11.5259    1.0326 </r>
       <r>   12.0446   -0.0000 </r>
       <r>   17.9439    0.0000 </r>
       <r>   17.9439    0.0000 </r>
      </set>
      <set comment="kpoint 14">
       <r>    5.6911    1.0000 </r>
       <r>    6.3474    1.0000 </r>
       <r>    6.3474    1.0000 </r>
       <r>    6.3746    1.0000 </r>
       <r>    7.3163    1.0000 </r>
       <r>    7.3336    1.0000 </r>
       <r>    7.3336    1.0000 </r>
       <r>    8.2510    1.0000 </r>
       <r>    8.5310    1.0000 </r>
       <r>    8.5310    1.0000 </r>
       <r>    8.6525    1.0000 </r>
       <r>    8.7017    1.0000 </r>
       <r>    8.7555    1.0000 </r>
       <r>    9.6147    1.0000 </r>
       <r>    9.6270    1.0000 </r>
       <r>    9.6270    1.0000 </r>
       <r>   10.1957    1.0000 </r>
       <r>   10.9764    1.0000 </r>
       <r>   11.5490    1.0344 </r>
       <r>   11.5948    0.9557 </r>
       <r>   11.5948    0.9557 </r>
       <r>   14.7872    0.0000 </r>
       <r>   14.7872    0.0000 </r>
       <r>   17.3769    0.0000 </r>
      </set>
      <set comment="kpoint 15">
       <r>    5.9981    1.0000 </r>
       <r>    6.2490    1.0000 </r>
       <r>    6.5540    1.0000 </r>
       <r>    6.5671    1.0000 </r>
       <r>    7.4093    1.0000 </r>
       <r>    7.4232    1.0000 </r>
       <r>    7.8787    1.0000 </r>
       <r>    8.3129    1.0000 </r>
       <r>    8.3509    1.0000 </r>
       <r>    8.4228    1.0000 </r>
       <r>    8.5420    1.0000 </r>
       <r>    8.7208    1.0000 </r>
       <r>    8.8451    1.0000 </r>
       <r>    9.1746    1.0000 </r>
       <r>    9.3584    1.0000 </r>
       <r>    9.4193    1.0000 </r>
       <r>   10.6053    1.0000 </r>
       <r>   11.2427    1.0000 </r>
       <r>   11.3651    1.0001 </r>
       <r>   11.3765    1.0002 </r>
       <r>   11.7532   -0.0107 </r>
       <r>   12.9822   -0.0000 </r>
       <r>   15.8689    0.0000 </r>
       <r>   16.8817    0.0000 </r>
      </set>
      <set comment="kpoint 16">
       <r>    6.1067    1.0000 </r>
       <r>    6.3050    1.0000 </r>
       <r>    6.3050    1.0000 </r>
       <r>    6.4000    1.0000 </r>
       <r>    7.6849    1.0000 </r>
       <r>    7.8535    1.0000 </r>
       <r>    7.8535    1.0000 </r>
       <r>    8.1780    1.0000 </r>
       <r>    8.7467    1.0000 </r>
       <r>    8.7467    1.0000 </r>
       <r>    8.7505    1.0000 </r>
       <r>    8.9367    1.0000 </r>
       <r>    9.0046    1.0000 </r>
       <r>    9.0223    1.0000 </r>
       <r>    9.0790    1.0000 </r>
       <r>    9.0790    1.0000 </r>
       <r>   10.5625    1.0000 </r>
       <r>   10.9925    1.0000 </r>
       <r>   10.9925    1.0000 </r>
       <r>   11.0809    1.0000 </r>
       <r>   12.7843   -0.0000 </r>
       <r>   14.1115   -0.0000 </r>
       <r>   14.1115   -0.0000 </r>
       <r>   15.3940    0.0000 </r>
      </set>
      <set comment="kpoint 17">
       <r>    5.6542    1.0000 </r>
       <r>    6.2077    1.0000 </r>
       <r>    6.2077    1.0000 </r>
       <r>    6.2077    1.0000 </r>
       <r>    7.6011    1.0000 </r>
       <r>    7.6011    1.0000 </r>
       <r>    7.6011    1.0000 </r>
       <r>    8.5327    1.0000 </r>
       <r>    8.5327    1.0000 </r>
       <r>    8.9056    1.0000 </r>
       <r>    8.9056    1.0000 </r>
       <r>    8.9056    1.0000 </r>
       <r>    9.1330    1.0000 </r>
       <r>    9.1330    1.0000 </r>
       <r>    9.1330    1.0000 </r>
       <r>    9.1547    1.0000 </r>
       <r>   10.7820    1.0000 </r>
       <r>   10.7820    1.0000 </r>
       <r>   11.7162    0.1157 </r>
       <r>   11.7162    0.1157 </r>
       <r>   11.7162    0.1157 </r>
       <r>   15.1717    0.0000 </r>
       <r>   15.1717    0.0000 </r>
       <r>   15.1717    0.0000 </r>
      </set>
      <set comment="kpoint 18">
       <r>    5.7480    1.0000 </r>
       <r>    5.9563    1.0000 </r>
       <r>    6.1544    1.0000 </r>
       <r>    6.1544    1.0000 </r>
       <r>    7.6784    1.0000 </r>
       <r>    7.6784    1.0000 </r>
       <r>    8.0080    1.0000 </r>
       <r>    8.3442    1.0000 </r>
       <r>    8.5515    1.0000 </r>
       <r>    8.7594    1.0000 </r>
       <r>    8.8981    1.0000 </r>
       <r>    8.8981    1.0000 </r>
       <r>    9.1645    1.0000 </r>
       <r>    9.3128    1.0000 </r>
       <r>    9.3128    1.0000 </r>
       <r>    9.4517    1.0000 </r>
       <r>   11.2940    1.0000 </r>
       <r>   11.4480    1.0047 </r>
       <r>   11.5742    1.0102 </r>
       <r>   11.5742    1.0102 </r>
       <r>   11.6300    0.7671 </r>
       <r>   13.1059   -0.0000 </r>
       <r>   15.5104    0.0000 </r>
       <r>   15.5104    0.0000 </r>
      </set>
      <set comment="kpoint 19">
       <r>    5.6969    1.0000 </r>
       <r>    5.8420    1.0000 </r>
       <r>    5.8420    1.0000 </r>
       <r>    5.9087    1.0000 </r>
       <r>    7.9160    1.0000 </r>
       <r>    8.0217    1.0000 </r>
       <r>    8.0217    1.0000 </r>
       <r>    8.2820    1.0000 </r>
       <r>    8.4210    1.0000 </r>
       <r>    8.5653    1.0000 </r>
       <r>    8.5653    1.0000 </r>
       <r>    8.6066    1.0000 </r>
       <r>    9.8848    1.0000 </r>
       <r>    9.8848    1.0000 </r>
       <r>    9.8986    1.0000 </r>
       <r>   10.2114    1.0000 </r>
       <r>   11.1343    1.0000 </r>
       <r>   11.4847    1.0149 </r>
       <r>   11.4847    1.0149 </r>
       <r>   11.4887    1.0165 </r>
       <r>   12.3207   -0.0000 </r>
       <r>   13.7427   -0.0000 </r>
       <r>   13.7427   -0.0000 </r>
       <r>   14.6518    0.0000 </r>
      </set>
      <set comment="kpoint 20">
       <r>    5.5281    1.0000 </r>
       <r>    5.6037    1.0000 </r>
       <r>    5.6037    1.0000 </r>
       <r>    5.6037    1.0000 </r>
       <r>    8.1499    1.0000 </r>
       <r>    8.1499    1.0000 </r>
       <r>    8.1499    1.0000 </r>
       <r>    8.2818    1.0000 </r>
       <r>    8.2818    1.0000 </r>
       <r>    8.3468    1.0000 </r>
       <r>    8.3468    1.0000 </r>
       <r>    8.3468    1.0000 </r>
       <r>   10.7885    1.0000 </r>
       <r>   10.7885    1.0000 </r>
       <r>   10.7885    1.0000 </r>
       <r>   11.5317    1.0343 </r>
       <r>   11.5317    1.0343 </r>
       <r>   11.6595    0.5342 </r>
       <r>   11.6595    0.5342 </r>
       <r>   11.6595    0.5342 </r>
       <r>   11.8069   -0.0305 </r>
       <r>   13.2922   -0.0000 </r>
       <r>   13.2922   -0.0000 </r>
       <r>   13.2922   -0.0000 </r>
      </set>
     </set>
    </set>
   </array>
  </eigenvalues>
  <separator name="orbital magnetization" >
   <v name="MAGDIPOLOUT">      0.00000000      0.00000000      0.00000000</v>
  </separator>
  <dos>
   <i name="efermi">     11.66358434 </i>
   <total>
    <array>
     <dimension dim="1">gridpoints</dimension>
     <dimension dim="2">spin</dimension>
     <field>energy</field>
     <field>total</field>
     <field>integrated</field>
     <set>
      <set comment="spin 1">
       <r>     2.8280     0.0000     0.0000 </r>
       <r>     2.8882     0.0000     0.0000 </r>
       <r>     2.9485     0.0000     0.0000 </r>
       <r>     3.0088    -0.0000    -0.0000 </r>
       <r>     3.0691    -0.0000    -0.0000 </r>
       <r>     3.1294    -0.0000    -0.0000 </r>
       <r>     3.1897    -0.0000    -0.0000 </r>
       <r>     3.2499    -0.0000    -0.0000 </r>
       <r>     3.3102    -0.0000    -0.0000 </r>
       <r>     3.3705    -0.0000    -0.0000 </r>
       <r>     3.4308    -0.0000    -0.0000 </r>
       <r>     3.4911    -0.0000    -0.0000 </r>
       <r>     3.5513    -0.0002    -0.0000 </r>
       <r>     3.6116    -0.0022    -0.0001 </r>
       <r>     3.6719    -0.0105    -0.0008 </r>
       <r>     3.7322     0.0024    -0.0006 </r>
       <r>     3.7925     0.1242     0.0069 </r>
       <r>     3.8527     0.2505     0.0220 </r>
       <r>     3.9130     0.1550     0.0313 </r>
       <r>     3.9733     0.0131     0.0321 </r>
       <r>     4.0336    -0.0250     0.0306 </r>
       <r>     4.0939    -0.0407     0.0281 </r>
       <r>     4.1541     0.0911     0.0336 </r>
       <r>     4.2144     0.5528     0.0669 </r>
       <r>     4.2747     0.7259     0.1107 </r>
       <r>     4.3350     0.2836     0.1278 </r>
       <r>     4.3953    -0.0272     0.1262 </r>
       <r>     4.4556    -0.0634     0.1223 </r>
       <r>     4.5158     0.0579     0.1258 </r>
       <r>     4.5761     0.5034     0.1562 </r>
       <r>     4.6364     0.7431     0.2010 </r>
       <r>     4.6967     0.3293     0.2208 </r>
       <r>     4.7570    -0.0280     0.2191 </r>
       <r>     4.8172    -0.0447     0.2164 </r>
       <r>     4.8775     0.2336     0.2305 </r>
       <r>     4.9378     0.7629     0.2765 </r>
       <r>     4.9981     0.8472     0.3276 </r>
       <r>     5.0584     0.2988     0.3456 </r>
       <r>     5.1186    -0.0909     0.3401 </r>
       <r>     5.1789     0.0735     0.3445 </r>
       <r>     5.2392     0.9296     0.4006 </r>
       <r>     5.2995     1.4492     0.4879 </r>
       <r>     5.3598     1.1710     0.5585 </r>
       <r>     5.4200     1.3400     0.6393 </r>
       <r>     5.4803     1.0684     0.7037 </r>
       <r>     5.5406     0.6029     0.7401 </r>
       <r>     5.6009     1.7720     0.8469 </r>
       <r>     5.6612     3.7589     1.0735 </r>
       <r>     5.7214     4.5697     1.3489 </r>
       <r>     5.7817     4.6317     1.6281 </r>
       <r>     5.8420     5.0646     1.9334 </r>
       <r>     5.9023     5.4603     2.2626 </r>
       <r>     5.9626     6.4621     2.6521 </r>
       <r>     6.0229     6.9788     3.0728 </r>
       <r>     6.0831     5.7491     3.4194 </r>
       <r>     6.1434     7.4159     3.8664 </r>
       <r>     6.2037     9.8387     4.4595 </r>
       <r>     6.2640     9.2580     5.0176 </r>
       <r>     6.3243     9.3333     5.5802 </r>
       <r>     6.3845     9.1381     6.1310 </r>
       <r>     6.4448     6.7390     6.5373 </r>
       <r>     6.5051     6.1283     6.9067 </r>
       <r>     6.5654     7.5166     7.3598 </r>
       <r>     6.6257     7.4009     7.8059 </r>
       <r>     6.6859     6.6187     8.2049 </r>
       <r>     6.7462     6.6640     8.6066 </r>
       <r>     6.8065     6.6582     9.0080 </r>
       <r>     6.8668     5.6399     9.3480 </r>
       <r>     6.9271     5.5467     9.6823 </r>
       <r>     6.9873     5.3002    10.0018 </r>
       <r>     7.0476     2.7593    10.1682 </r>
       <r>     7.1079     2.0178    10.2898 </r>
       <r>     7.1682     4.0412    10.5334 </r>
       <r>     7.2285     6.8219    10.9446 </r>
       <r>     7.2888     9.0981    11.4931 </r>
       <r>     7.3490     8.5315    12.0074 </r>
       <r>     7.4093     6.3623    12.3909 </r>
       <r>     7.4696     4.5596    12.6658 </r>
       <r>     7.5299     2.9944    12.8463 </r>
       <r>     7.5902     2.8038    13.0153 </r>
       <r>     7.6504     5.9564    13.3743 </r>
       <r>     7.7107     8.2866    13.8739 </r>
       <r>     7.7710     5.1988    14.1873 </r>
       <r>     7.8313     3.3362    14.3884 </r>
       <r>     7.8916     5.4184    14.7150 </r>
       <r>     7.9518     7.0599    15.1406 </r>
       <r>     8.0121     6.9549    15.5598 </r>
       <r>     8.0724     5.4172    15.8864 </r>
       <r>     8.1327     5.0116    16.1885 </r>
       <r>     8.1930     6.5199    16.5815 </r>
       <r>     8.2532     6.5597    16.9769 </r>
       <r>     8.3135     8.4155    17.4842 </r>
       <r>     8.3738    10.4031    18.1113 </r>
       <r>     8.4341     7.2764    18.5499 </r>
       <r>     8.4944     5.3965    18.8753 </r>
       <r>     8.5547     8.3936    19.3812 </r>
       <r>     8.6149     9.8558    19.9754 </r>
       <r>     8.6752    10.0464    20.5810 </r>
       <r>     8.7355    11.0908    21.2495 </r>
       <r>     8.7958     9.8068    21.8407 </r>
       <r>     8.8561     8.6225    22.3605 </r>
       <r>     8.9163     8.7773    22.8896 </r>
       <r>     8.9766     6.9673    23.3095 </r>
       <r>     9.0369     5.9905    23.6707 </r>
       <r>     9.0972     5.8880    24.0256 </r>
       <r>     9.1575     5.0557    24.3304 </r>
       <r>     9.2177     4.4203    24.5968 </r>
       <r>     9.2780     5.8083    24.9469 </r>
       <r>     9.3383     8.0056    25.4295 </r>
       <r>     9.3986     8.0224    25.9131 </r>
       <r>     9.4589     6.4558    26.3023 </r>
       <r>     9.5191     3.9649    26.5413 </r>
       <r>     9.5794     2.8143    26.7110 </r>
       <r>     9.6397     3.8211    26.9413 </r>
       <r>     9.7000     3.7611    27.1680 </r>
       <r>     9.7603     4.3367    27.4294 </r>
       <r>     9.8205     6.2577    27.8066 </r>
       <r>     9.8808     8.2784    28.3057 </r>
       <r>     9.9411    10.0015    28.9086 </r>
       <r>    10.0014     8.4481    29.4178 </r>
       <r>    10.0617     7.5064    29.8703 </r>
       <r>    10.1220     8.3138    30.3715 </r>
       <r>    10.1822     7.1132    30.8003 </r>
       <r>    10.2425     4.4285    31.0672 </r>
       <r>    10.3028     3.6490    31.2872 </r>
       <r>    10.3631     3.9841    31.5274 </r>
       <r>    10.4234     4.3064    31.7870 </r>
       <r>    10.4836     5.4855    32.1176 </r>
       <r>    10.5439     7.4649    32.5676 </r>
       <r>    10.6042     8.8961    33.1039 </r>
       <r>    10.6645     7.7706    33.5723 </r>
       <r>    10.7248     5.2791    33.8905 </r>
       <r>    10.7850     4.8624    34.1836 </r>
       <r>    10.8453     3.7234    34.4081 </r>
       <r>    10.9056     1.3423    34.4890 </r>
       <r>    10.9659     2.6003    34.6458 </r>
       <r>    11.0262     6.7839    35.0547 </r>
       <r>    11.0864     8.7772    35.5838 </r>
       <r>    11.1467     8.2454    36.0808 </r>
       <r>    11.2070     6.4634    36.4705 </r>
       <r>    11.2673     4.9064    36.7662 </r>
       <r>    11.3276     4.6902    37.0489 </r>
       <r>    11.3879     5.2529    37.3656 </r>
       <r>    11.4481     5.6577    37.7066 </r>
       <r>    11.5084     8.0252    38.1904 </r>
       <r>    11.5687    12.0418    38.9163 </r>
       <r>    11.6290    12.2957    39.6575 </r>
       <r>    11.6893     9.3135    40.2189 </r>
       <r>    11.7495     6.9373    40.6371 </r>
       <r>    11.8098     3.9733    40.8766 </r>
       <r>    11.8701     3.1337    41.0655 </r>
       <r>    11.9304     6.5436    41.4600 </r>
       <r>    11.9907     7.1362    41.8902 </r>
       <r>    12.0509     3.5512    42.1042 </r>
       <r>    12.1112     1.2118    42.1773 </r>
       <r>    12.1715     0.2558    42.1927 </r>
       <r>    12.2318    -0.0391    42.1903 </r>
       <r>    12.2921     0.3802    42.2133 </r>
       <r>    12.3523     0.7455    42.2582 </r>
       <r>    12.4126     0.4051    42.2826 </r>
       <r>    12.4729     0.0186    42.2837 </r>
       <r>    12.5332    -0.0349    42.2816 </r>
       <r>    12.5935    -0.0223    42.2803 </r>
       <r>    12.6538    -0.0379    42.2780 </r>
       <r>    12.7140     0.1130    42.2848 </r>
       <r>    12.7743     0.5650    42.3189 </r>
       <r>    12.8346     0.6088    42.3556 </r>
       <r>    12.8949     0.2282    42.3693 </r>
       <r>    12.9552     0.9947    42.4293 </r>
       <r>    13.0154     2.7324    42.5940 </r>
       <r>    13.0757     3.2434    42.7895 </r>
       <r>    13.1360     1.9573    42.9075 </r>
       <r>    13.1963     0.8472    42.9586 </r>
       <r>    13.2566     1.5769    43.0536 </r>
       <r>    13.3168     2.0180    43.1753 </r>
       <r>    13.3771     0.8339    43.2256 </r>
       <r>    13.4374    -0.0209    43.2243 </r>
       <r>    13.4977    -0.0805    43.2194 </r>
       <r>    13.5580    -0.0540    43.2162 </r>
       <r>    13.6182    -0.1064    43.2098 </r>
       <r>    13.6785     0.2319    43.2237 </r>
       <r>    13.7388     1.5575    43.3176 </r>
       <r>    13.7991     2.6107    43.4750 </r>
       <r>    13.8594     1.7678    43.5816 </r>
       <r>    13.9196     0.3269    43.6013 </r>
       <r>    13.9799    -0.1767    43.5906 </r>
       <r>    14.0402     0.1626    43.6004 </r>
       <r>    14.1005     1.1046    43.6670 </r>
       <r>    14.1608     1.3730    43.7498 </r>
       <r>    14.2211     0.9754    43.8086 </r>
       <r>    14.2813     1.3478    43.8898 </r>
       <r>    14.3416     1.1582    43.9596 </r>
       <r>    14.4019     0.2115    43.9724 </r>
       <r>    14.4622    -0.1507    43.9633 </r>
       <r>    14.5225     0.3248    43.9829 </r>
       <r>    14.5827     1.4436    44.0699 </r>
       <r>    14.6430     1.7956    44.1781 </r>
       <r>    14.7033     1.1152    44.2454 </r>
       <r>    14.7636     1.1201    44.3129 </r>
       <r>    14.8239     1.4174    44.3983 </r>
       <r>    14.8841     0.6230    44.4359 </r>
       <r>    14.9444     0.1256    44.4435 </r>
       <r>    15.0047     0.9188    44.4988 </r>
       <r>    15.0650     1.4422    44.5858 </r>
       <r>    15.1253     0.9093    44.6406 </r>
       <r>    15.1855     0.8219    44.6901 </r>
       <r>    15.2458     1.0464    44.7532 </r>
       <r>    15.3061     0.8037    44.8017 </r>
       <r>    15.3664     0.5778    44.8365 </r>
       <r>    15.4267     0.7926    44.8843 </r>
       <r>    15.4870     1.2972    44.9625 </r>
       <r>    15.5472     1.7340    45.0670 </r>
       <r>    15.6075     1.3702    45.1496 </r>
       <r>    15.6678     0.5405    45.1822 </r>
       <r>    15.7281    -0.0429    45.1796 </r>
       <r>    15.7884     0.5402    45.2122 </r>
       <r>    15.8486     2.5671    45.3669 </r>
       <r>    15.9089     3.4096    45.5724 </r>
       <r>    15.9692     1.5444    45.6655 </r>
       <r>    16.0295     0.0115    45.6662 </r>
       <r>    16.0898    -0.1353    45.6581 </r>
       <r>    16.1500    -0.0282    45.6564 </r>
       <r>    16.2103    -0.0044    45.6561 </r>
       <r>    16.2706    -0.0237    45.6547 </r>
       <r>    16.3309    -0.0810    45.6498 </r>
       <r>    16.3912     0.0985    45.6557 </r>
       <r>    16.4514     0.9851    45.7151 </r>
       <r>    16.5117     1.9192    45.8308 </r>
       <r>    16.5720     2.0149    45.9523 </r>
       <r>    16.6323     1.2082    46.0251 </r>
       <r>    16.6926     0.1843    46.0362 </r>
       <r>    16.7529    -0.1868    46.0249 </r>
       <r>    16.8131     0.1411    46.0335 </r>
       <r>    16.8734     1.4310    46.1197 </r>
       <r>    16.9337     2.5821    46.2754 </r>
       <r>    16.9940     1.8578    46.3874 </r>
       <r>    17.0543     0.3646    46.4093 </r>
       <r>    17.1145     0.1179    46.4164 </r>
       <r>    17.1748     1.0850    46.4818 </r>
       <r>    17.2351     1.3852    46.5653 </r>
       <r>    17.2954     0.5802    46.6003 </r>
       <r>    17.3557     0.4457    46.6272 </r>
       <r>    17.4159     0.6623    46.6671 </r>
       <r>    17.4762     0.3549    46.6885 </r>
       <r>    17.5365     0.4075    46.7131 </r>
       <r>    17.5968     0.7227    46.7566 </r>
       <r>    17.6571     0.4006    46.7808 </r>
       <r>    17.7173    -0.0557    46.7774 </r>
       <r>    17.7776     0.0298    46.7792 </r>
       <r>    17.8379     0.9540    46.8367 </r>
       <r>    17.8982     2.0640    46.9612 </r>
       <r>    17.9585     2.1354    47.0899 </r>
       <r>    18.0187     1.0837    47.1552 </r>
       <r>    18.0790     0.0579    47.1587 </r>
       <r>    18.1393    -0.0789    47.1539 </r>
       <r>    18.1996     0.6966    47.1959 </r>
       <r>    18.2599     1.4967    47.2862 </r>
       <r>    18.3202     0.9524    47.3436 </r>
       <r>    18.3804     0.0941    47.3492 </r>
       <r>    18.4407    -0.0928    47.3436 </r>
       <r>    18.5010    -0.0511    47.3406 </r>
       <r>    18.5613     0.1917    47.3521 </r>
       <r>    18.6216     0.6690    47.3924 </r>
       <r>    18.6818     0.6404    47.4310 </r>
       <r>    18.7421     0.1593    47.4406 </r>
       <r>    18.8024    -0.0616    47.4369 </r>
       <r>    18.8627    -0.0955    47.4312 </r>
       <r>    18.9230     0.1678    47.4413 </r>
       <r>    18.9832     1.0466    47.5044 </r>
       <r>    19.0435     1.5859    47.6000 </r>
       <r>    19.1038     1.5908    47.6959 </r>
       <r>    19.1641     1.4422    47.7828 </r>
       <r>    19.2244     0.5861    47.8182 </r>
       <r>    19.2846    -0.0249    47.8167 </r>
       <r>    19.3449    -0.0577    47.8132 </r>
       <r>    19.4052    -0.0105    47.8125 </r>
       <r>    19.4655    -0.0007    47.8125 </r>
       <r>    19.5258    -0.0000    47.8125 </r>
       <r>    19.5861    -0.0001    47.8125 </r>
       <r>    19.6463    -0.0017    47.8124 </r>
       <r>    19.7066    -0.0189    47.8113 </r>
       <r>    19.7669    -0.0716    47.8069 </r>
       <r>    19.8272     0.0865    47.8121 </r>
       <r>    19.8875     0.9306    47.8682 </r>
       <r>    19.9477     1.5030    47.9588 </r>
       <r>    20.0080     0.7455    48.0038 </r>
       <r>    20.0683     0.0146    48.0047 </r>
       <r>    20.1286    -0.0632    48.0009 </r>
       <r>    20.1889    -0.0131    48.0001 </r>
       <r>    20.2491    -0.0010    48.0000 </r>
       <r>    20.3094    -0.0000    48.0000 </r>
       <r>    20.3697    -0.0000    48.0000 </r>
       <r>    20.4300    -0.0000    48.0000 </r>
       <r>    20.4903    -0.0000    48.0000 </r>
       <r>    20.5505    -0.0000    48.0000 </r>
       <r>    20.6108     0.0000    48.0000 </r>
       <r>    20.6711     0.0000    48.0000 </r>
       <r>    20.7314     0.0000    48.0000 </r>
       <r>    20.7917     0.0000    48.0000 </r>
       <r>    20.8520     0.0000    48.0000 </r>
       <r>    20.9122     0.0000    48.0000 </r>
      </set>
     </set>
    </array>
   </total>
  </dos>
 </calculation>
 <structure name="finalpos" >
  <crystal>
   <varray name="basis" >
    <v>       3.76033333       0.00000000       0.00000000 </v>
    <v>       0.00000000       3.76033333       0.00000000 </v>
    <v>       0.00000000       0.00000000       3.76033333 </v>
   </varray>
   <i name="volume">     53.17151485 </i>
   <varray name="rec_basis" >
    <v>       0.26593387       0.00000000       0.00000000 </v>
    <v>       0.00000000       0.26593387       0.00000000 </v>
    <v>       0.00000000       0.00000000       0.26593387 </v>
   </varray>
  </crystal>
  <varray name="positions" >
   <v>       0.00000000       0.00000000       0.00000000 </v>
   <v>       0.00000000       0.50000000       0.50000000 </v>
   <v>       0.50000000       0.00000000       0.50000000 </v>
   <v>       0.50000000       0.50000000       0.00000000 </v>
  </varray>
 </structure>
</modeling>
