----- GAMESS execution script 'rungms' -----
This job is running on host crcfe02.crc.nd.edu
under operating system Linux at Sun Sep 29 10:43:46 EDT 2019
Available scratch disk space (Kbyte units) at beginning of the job is
Filesystem      1K-blocks  Used  Available Use% Mounted on
AFS            2147483647     0 2147483647   0% /afs
GAMESS temporary binary files will be written to /afs/crc.nd.edu/user/c/cdrisko
GAMESS supplementary output files will be written to /afs/crc.nd.edu/user/c/cdrisko/scr
Copying input file SO2.inp to your run's scratch directory...

 Distributed Data Interface kickoff program.
 Initiating 1 compute processes on 1 nodes to run the following command:
 /afs/crc.nd.edu/x86_64_linux/g/gamess/nov-2017/gamess/gamess.00.x SO2 

          ******************************************************
          *         GAMESS VERSION = 11 NOV 2017 (R3)         *
          *             FROM IOWA STATE UNIVERSITY             *
          * M.W.SCHMIDT, K.K.BALDRIDGE, J.A.BOATZ, S.T.ELBERT, *
          *   M.S.GORDON, J.H.JENSEN, S.KOSEKI, N.MATSUNAGA,   *
          *          K.A.NGUYEN, S.J.SU, T.L.WINDUS,           *
          *       TOGETHER WITH M.DUPUIS, J.A.MONTGOMERY       *
          *         J.COMPUT.CHEM.  14, 1347-1363(1993)        *
          **************** 64 BIT INTEL VERSION ****************

  SINCE 1993, STUDENTS AND POSTDOCS WORKING AT IOWA STATE UNIVERSITY
  AND ALSO IN THEIR VARIOUS JOBS AFTER LEAVING ISU HAVE MADE IMPORTANT
  CONTRIBUTIONS TO THE CODE:
     IVANA ADAMOVIC, CHRISTINE AIKENS, YURI ALEXEEV, POOJA ARORA,
     ANDREY ASADCHEV, ROB BELL, PRADIPTA BANDYOPADHYAY, JONATHAN BENTZ,
     BRETT BODE, KURT BRORSEN, CALEB CARLIN, GALINA CHABAN, WEI CHEN,
     CHEOL HO CHOI, PAUL DAY, ALBERT DEFUSCO, NUWAN DESILVA, TIM DUDLEY,
     DMITRI FEDOROV, ALEX FINDLATER, GRAHAM FLETCHER, MARK FREITAG,
     KURT GLAESEMANN, ANASTASIA GUININA,
     DAN KEMP, GRANT MERRILL, NORIYUKI MINEZAWA, JONATHAN MULLIN,
     TAKESHI NAGATA, SEAN NEDD, HEATHER NETZLOFF, BOSILJKA NJEGIC, RYAN OLSON,
     MIKE PAK, BUU PHAM,
     SPENCER PRUITT, LUKE ROSKOP, JIM SHOEMAKER, LYUDMILA SLIPCHENKO,
     TONY SMITH, SAROM SOK LEANG, JIE SONG, TETSUYA TAKETSUGU, SIMON WEBB,
     PENG XU, SOOHAENG YOO, FEDERICO ZAHARIEV

  ADDITIONAL CODE HAS BEEN PROVIDED BY COLLABORATORS IN OTHER GROUPS:
     IOWA STATE UNIVERSITY:
          JOE IVANIC, AARON WEST, LAIMUTIS BYTAUTAS, KLAUS RUEDENBERG
     UNIVERSITY OF TOKYO: KIMIHIKO HIRAO, TAKAHITO NAKAJIMA,
          TAKAO TSUNEDA, MUNEAKI KAMIYA, SUSUMU YANAGISAWA,
          KIYOSHI YAGI, MAHITO CHIBA, SEIKEN TOKURA, NAOAKI KAWAKAMI
     UNIVERSITY OF AARHUS: FRANK JENSEN
     UNIVERSITY OF IOWA: VISVALDAS KAIRYS, HUI LI
     NATIONAL INST. OF STANDARDS AND TECHNOLOGY: WALT STEVENS, DAVID GARMER
     UNIVERSITY OF PISA: BENEDETTA MENNUCCI, JACOPO TOMASI
     UNIVERSITY OF MEMPHIS: HENRY KURTZ, PRAKASHAN KORAMBATH
     UNIVERSITY OF ALBERTA: TOBY ZENG, MARIUSZ KLOBUKOWSKI
     UNIVERSITY OF NEW ENGLAND: MARK SPACKMAN
     MIE UNIVERSITY: HIROAKI UMEDA
     NAT. INST. OF ADVANCED INDUSTRIAL SCIENCE AND TECHNOLOGY: KAZUO KITAURA
     MICHIGAN STATE UNIVERSITY:
          KAROL KOWALSKI, MARTA WLOCH, JEFFREY GOUR, JESSE LUTZ,
          WEI LI, PIOTR PIECUCH
     UNIVERSITY OF SILESIA: MONIKA MUSIAL, STANISLAW KUCHARSKI
     FACULTES UNIVERSITAIRES NOTRE-DAME DE LA PAIX:
          OLIVIER QUINET, BENOIT CHAMPAGNE
     UNIVERSITY OF CALIFORNIA - SANTA BARBARA: BERNARD KIRTMAN
     INSTITUTE FOR MOLECULAR SCIENCE:
          KAZUYA ISHIMURA, MICHIO KATOUDA, AND SHIGERU NAGASE
     UNIVERSITY OF NOTRE DAME: ANNA POMOGAEVA, DAN CHIPMAN
     KYUSHU UNIVERSITY:
          HARUYUKI NAKANO,
          FENG LONG GU, JACEK KORCHOWIEC, MARCIN MAKOWSKI, AND YURIKO AOKI,
          HIROTOSHI MORI AND EISAKU MIYOSHI
     PENNSYLVANIA STATE UNIVERSITY:
          TZVETELIN IORDANOV, CHET SWALINA, JONATHAN SKONE,
          SHARON HAMMES-SCHIFFER
     WASEDA UNIVERSITY:
          MASATO KOBAYASHI, TOMOKO AKAMA, TSUGUKI TOUMA,
          TAKESHI YOSHIKAWA, YASUHIRO IKABATA, JUNJI SEINO,
          YUYA NAKAJIMA, HIROMI NAKAI
     NANJING UNIVERSITY: SHUHUA LI
     UNIVERSITY OF NEBRASKA:
          PEIFENG SU, DEJUN SI, NANDUN THELLAMUREGE, YALI WANG, HUI LI
     UNIVERSITY OF ZURICH: ROBERTO PEVERATI, KIM BALDRIDGE
     N. COPERNICUS UNIVERSITY AND JACKSON STATE UNIVERSITY:
          MARIA BARYSZ
     UNIVERSITY OF COPENHAGEN: Jimmy Kromann, CASPER STEINMANN
     TOKYO INSTITUTE OF TECHNOLOGY: HIROYA NAKATA
     NAGOYA UNIVERSITY: YOSHIO NISHIMOTO, STEPHAN IRLE
     MOSCOW STATE UNIVERSITY: VLADIMIR MIRONOV

 EXECUTION OF GAMESS BEGUN Sun Sep 29 10:43:47 2019

            ECHO OF THE FIRST FEW INPUT CARDS -
 INPUT CARD> $BASIS GBASIS=PCSEG-1 $END                                                     
 INPUT CARD> $CONTRL COORD=ZMT ISPHER=1 RUNTYP=ENERGY DFTTYP=PBE MULT=1 $END                
 INPUT CARD>                                                                                
 INPUT CARD> $DATA                                                                          
 INPUT CARD>Title SO2 single-point calculation template with Z-Matrix                       
 INPUT CARD>C1                                                                              
 INPUT CARD>S                                                                               
 INPUT CARD>O 1 1.30                                                                        
 INPUT CARD>O 1 1.30 2 150                                                                  
 INPUT CARD> $END                                                                           
    1000000 WORDS OF MEMORY AVAILABLE

     BASIS OPTIONS
     -------------
     GBASIS=PCSEG-1      IGAUSS=       0      POLAR=NONE    
     NDFUNC=       0     NFFUNC=       0     DIFFSP=       F
     NPFUNC=       0      DIFFS=       F     BASNAM=        


     RUN TITLE
     ---------
 Title SO2 single-point calculation template with Z-Matrix                       

 THE POINT GROUP OF THE MOLECULE IS C1      
 THE ORDER OF THE PRINCIPAL AXIS IS     0

 YOUR FULLY SUBSTITUTED Z-MATRIX IS
 S   
 O      1   1.3000000
 O      1   1.3000000  2  150.0000

 THE MOMENTS OF INERTIA ARE (AMU-ANGSTROM**2)
 IXX=     1.810   IYY=    50.441   IZZ=    52.252

 ATOM      ATOMIC                      COORDINATES (BOHR)
           CHARGE         X                   Y                   Z
 S          16.0     0.0000000000       -0.3180013229        0.0000000000
 O           8.0     2.3729356770        0.3178248754        0.0000000000
 O           8.0    -2.3729356770        0.3178248754        0.0000000000

          INTERNUCLEAR DISTANCES (ANGS.)
          ------------------------------

                1 S          2 O          3 O     

   1 S       0.0000000    1.3000000 *  1.3000000 *
   2 O       1.3000000 *  0.0000000    2.5114071 *
   3 O       1.3000000 *  2.5114071 *  0.0000000  

  * ... LESS THAN  3.000


     ATOMIC BASIS SET
     ----------------
 THE CONTRACTED PRIMITIVE FUNCTIONS HAVE BEEN UNNORMALIZED
 THE CONTRACTED BASIS FUNCTIONS ARE NOW NORMALIZED TO UNITY

  SHELL TYPE  PRIMITIVE        EXPONENT          CONTRACTION COEFFICIENT(S)

 S         

      1   S       1         49299.4000000    0.000677492991
      1   S       2          7395.8400000    0.005232317766
      1   S       3          1683.3000000    0.026769459077
      1   S       4           476.1440000    0.102869580705
      1   S       5           154.3290000    0.286438127414
      1   S       6            55.0288000    0.454278639081
      1   S       7            20.5029000    0.271743121997

      2   S       8            45.9596000   -0.088421914560
      2   S       9             4.9274000    0.564350486135
      2   S      10             1.9179900    0.505415953466

      3   S      11             0.3684980    1.000000000000

      4   S      12             0.1291650    1.000000000000

      5   P      13           451.6620000    0.003707705453
      5   P      14           106.0980000    0.029219352245
      5   P      15            33.6996000    0.124444551509
      5   P      16            12.3054000    0.321808587656
      5   P      17             4.7141200    0.462822172957
      5   P      18             1.7810500    0.266513371364

      6   P      19             0.8722350    0.349265132972
      6   P      20             0.3102780    0.717115018770

      7   P      21             0.1001940    1.000000000000

      8   D      22             0.5500000    1.000000000000

 O         

      9   S      23          2288.6400000    0.005451138222
      9   S      24           344.4160000    0.040718922842
      9   S      25            78.2538000    0.181369420873
      9   S      26            21.7195000    0.465536820246
      9   S      27             6.5590700    0.451211321214

     10   S      28            10.4656000   -0.150211201174
     10   S      29             0.9643510    1.052867983385

     11   S      30             0.2851270    1.000000000000

     12   P      31            17.0590000    0.068749256972
     12   P      32             3.6899900    0.351671941499
     12   P      33             0.9929960    0.724532099722

     13   P      34             0.2449240    1.000000000000

     14   D      35             1.0000000    1.000000000000

 O         

     15   S      36          2288.6400000    0.005451138222
     15   S      37           344.4160000    0.040718922842
     15   S      38            78.2538000    0.181369420873
     15   S      39            21.7195000    0.465536820246
     15   S      40             6.5590700    0.451211321214

     16   S      41            10.4656000   -0.150211201174
     16   S      42             0.9643510    1.052867983385

     17   S      43             0.2851270    1.000000000000

     18   P      44            17.0590000    0.068749256972
     18   P      45             3.6899900    0.351671941499
     18   P      46             0.9929960    0.724532099722

     19   P      47             0.2449240    1.000000000000

     20   D      48             1.0000000    1.000000000000

 TOTAL NUMBER OF BASIS SET SHELLS             =   20
 NUMBER OF CARTESIAN GAUSSIAN BASIS FUNCTIONS =   49
 NOTE: THIS RUN WILL RESTRICT THE MO VARIATION SPACE TO SPHERICAL HARMONICS.
 THE NUMBER OF ORBITALS KEPT IN THE VARIATIONAL SPACE WILL BE PRINTED LATER.
 NUMBER OF ELECTRONS                          =   32
 CHARGE OF MOLECULE                           =    0
 SPIN MULTIPLICITY                            =    1
 NUMBER OF OCCUPIED ORBITALS (ALPHA)          =   16
 NUMBER OF OCCUPIED ORBITALS (BETA )          =   16
 TOTAL NUMBER OF ATOMS                        =    3
 THE NUCLEAR REPULSION ENERGY IS      117.6926177298

     LEBEDEV GRID-BASED DFT OPTIONS
     ------------------------------
     DFTTYP=PBE     
     NRAD  =      96     NLEB  =     302
     NRAD0 =      24     NLEB0 =     110
     SWOFF =    5.00E-03 (PURE SCF -> DFT)
     SWITCH=    3.00E-04 (COARSE -> TIGHT GRID)
     THRESH=    0.00E+00 GTHRE=    1.00E+00

 GRIMME'S EMPIRICAL DISPERSION CORRECTION= F

     $CONTRL OPTIONS
     ---------------
 SCFTYP=RHF          RUNTYP=ENERGY       EXETYP=RUN     
 MPLEVL=       0     CITYP =NONE         CCTYP =NONE         VBTYP =NONE    
 DFTTYP=PBE          TDDFT =NONE    
 MULT  =       1     ICHARG=       0     NZVAR =       0     COORD =ZMT     
 PP    =NONE         RELWFN=NONE         LOCAL =NONE         NUMGRD=       F
 ISPHER=       1     NOSYM =       0     MAXIT =      30     UNITS =ANGS    
 PLTORB=       F     MOLPLT=       F     AIMPAC=       F     FRIEND=        
 NPRINT=       7     IREST =       0     GEOM  =INPUT   
 NORMF =       0     NORMP =       0     ITOL  =      20     ICUT  =       9
 INTTYP=BEST         GRDTYP=BEST         QMTTOL= 1.0E-06

     $SYSTEM OPTIONS
     ---------------
  REPLICATED MEMORY=     1000000 WORDS (ON EVERY NODE).
 DISTRIBUTED MEMDDI=           0 MILLION WORDS IN AGGREGATE,
 MEMDDI DISTRIBUTED OVER   1 PROCESSORS IS           0 WORDS/PROCESSOR.
 TOTAL MEMORY REQUESTED ON EACH PROCESSOR=     1000000 WORDS.
 TIMLIM=      525600.00 MINUTES, OR     365.0 DAYS.
 PARALL= F  BALTYP=  DLB     KDIAG=    0  COREFL= F
 MXSEQ2=     300 MXSEQ3=     150  mem10=         0

          ----------------
          PROPERTIES INPUT
          ----------------

     MOMENTS            FIELD           POTENTIAL          DENSITY
 IEMOM =       1   IEFLD =       0   IEPOT =       0   IEDEN =       0
 WHERE =COMASS     WHERE =NUCLEI     WHERE =NUCLEI     WHERE =NUCLEI  
 OUTPUT=BOTH       OUTPUT=BOTH       OUTPUT=BOTH       OUTPUT=BOTH    
 IEMINT=       0   IEFINT=       0                     IEDINT=       0
                                                       MORB  =       0
          EXTRAPOLATION IN EFFECT
          DIIS IN EFFECT
 ORBITAL PRINTING OPTION: NPREO=     1    49     2     1

     -------------------------------
     INTEGRAL TRANSFORMATION OPTIONS
     -------------------------------
     NWORD  =            0
     CUTOFF = 1.0E-09     MPTRAN =       0
     DIRTRF =       F     AOINTS =DUP     

          ----------------------
          INTEGRAL INPUT OPTIONS
          ----------------------
 NOPK  =       1 NORDER=       0 SCHWRZ=       F

   --- ENCODED Z MATRIX ---
 COORD  TYPE   I   J   K   L   M   N
    1      1    2   1
    2      1    3   1
    3      2    3   1   2

 THE DETERMINANT OF THE G MATRIX IS 10**(    -4)

 THE DETERMINANT OF THE G MATRIX IS 10**(    -4)
 * * * WARNING * * *
 YOUR B MATRIX HAS A SMALL DETERMINANT.
 THIS SUGGESTS YOU MAY HAVE BADLY CHOSEN COORDINATES.

     ------------------------------------------
     THE POINT GROUP IS C1 , NAXIS= 0, ORDER= 1
     ------------------------------------------

 -- VARIATIONAL SPACE WILL BE RESTRICTED TO PURE SPHERICAL HARMONICS ONLY --
 AFTER EXCLUDING CONTAMINANT COMBINATIONS FROM THE CARTESIAN GAUSSIAN BASIS
 SET, THE NUMBER OF SPHERICAL HARMONICS KEPT IN THE VARIATION SPACE IS   46

     DIMENSIONS OF THE SYMMETRY SUBSPACES ARE
 A   =   46

 ..... DONE SETTING UP THE RUN .....
 STEP CPU TIME =     0.03 TOTAL CPU TIME =          0.0 (      0.0 MIN)
 TOTAL WALL CLOCK TIME=          0.0 SECONDS, CPU UTILIZATION IS    75.00%

          ********************
          1 ELECTRON INTEGRALS
          ********************
 ...... END OF ONE-ELECTRON INTEGRALS ......
 STEP CPU TIME =     0.01 TOTAL CPU TIME =          0.0 (      0.0 MIN)
 TOTAL WALL CLOCK TIME=          0.0 SECONDS, CPU UTILIZATION IS   100.00%

          -------------
          GUESS OPTIONS
          -------------
          GUESS =HUCKEL            NORB  =       0          NORDER=       0
          MIX   =       F          PRTMO =       F          PUNMO =       F
          TOLZ  = 1.0E-08          TOLE  = 1.0E-05
          SYMDEN=       F          PURIFY=       F

 INITIAL GUESS ORBITALS GENERATED BY HUCKEL   ROUTINE.
 HUCKEL GUESS REQUIRES     21634 WORDS.

 STATISTICS FOR GENERATION OF SYMMETRY ORBITAL -Q- MATRIX
 NUMBER OF CARTESIAN ATOMIC ORBITALS=         49
 NUMBER OF SPHERICAL CONTAMINANTS DROPPED=     3
 NUMBER OF LINEARLY DEPENDENT MOS DROPPED=     0
 TOTAL NUMBER OF MOS IN VARIATION SPACE=      46

 SYMMETRIES FOR INITIAL GUESS ORBITALS FOLLOW.   BOTH SET(S).
    16 ORBITALS ARE OCCUPIED (    7 CORE ORBITALS).
     8=A        9=A       10=A       11=A       12=A       13=A       14=A   
    15=A       16=A       17=A       18=A       19=A       20=A       21=A   
    22=A       23=A       24=A       25=A       26=A   
 ...... END OF INITIAL ORBITAL SELECTION ......
 STEP CPU TIME =     0.00 TOTAL CPU TIME =          0.0 (      0.0 MIN)
 TOTAL WALL CLOCK TIME=          0.0 SECONDS, CPU UTILIZATION IS    80.00%

                    ----------------------
                    AO INTEGRAL TECHNOLOGY
                    ----------------------
     S,P,L SHELL ROTATED AXIS INTEGRALS, REPROGRAMMED BY
        KAZUYA ISHIMURA (IMS) AND JOSE SIERRA (SYNSTAR).
     S,P,D,L SHELL ROTATED AXIS INTEGRALS PROGRAMMED BY
        KAZUYA ISHIMURA (INSTITUTE FOR MOLECULAR SCIENCE).
     S,P,D,F,G SHELL TO TOTAL QUARTET ANGULAR MOMENTUM SUM 5,
        ERIC PROGRAM BY GRAHAM FLETCHER (ELORET AND NASA ADVANCED
        SUPERCOMPUTING DIVISION, AMES RESEARCH CENTER).
     S,P,D,F,G,L SHELL GENERAL RYS QUADRATURE PROGRAMMED BY
        MICHEL DUPUIS (PACIFIC NORTHWEST NATIONAL LABORATORY).

          --------------------
          2 ELECTRON INTEGRALS
          --------------------

 THE -PK- OPTION IS OFF, THE INTEGRALS ARE NOT IN SUPERMATRIX FORM.
 STORING   15000 INTEGRALS/RECORD ON DISK, USING 12 BYTES/INTEGRAL.
 TWO ELECTRON INTEGRAL EVALUATION REQUIRES   90606 WORDS OF MEMORY.
 II,JST,KST,LST =  1  1  1  1 NREC =         1 INTLOC =    1
 II,JST,KST,LST =  2  1  1  1 NREC =         1 INTLOC =    2
 II,JST,KST,LST =  3  1  1  1 NREC =         1 INTLOC =    7
 II,JST,KST,LST =  4  1  1  1 NREC =         1 INTLOC =   22
 II,JST,KST,LST =  5  1  1  1 NREC =         1 INTLOC =   56
 II,JST,KST,LST =  6  1  1  1 NREC =         1 INTLOC =  125
 II,JST,KST,LST =  7  1  1  1 NREC =         1 INTLOC =  329
 II,JST,KST,LST =  8  1  1  1 NREC =         1 INTLOC =  776
 II,JST,KST,LST =  9  1  1  1 NREC =         1 INTLOC = 2864
 II,JST,KST,LST = 10  1  1  1 NREC =         1 INTLOC = 5004
 II,JST,KST,LST = 11  1  1  1 NREC =         1 INTLOC = 7674
 II,JST,KST,LST = 12  1  1  1 NREC =         1 INTLOC =10792
 II,JST,KST,LST = 13  1  1  1 NREC =         2 INTLOC = 6732
 II,JST,KST,LST = 14  1  1  1 NREC =         3 INTLOC = 7007
 II,JST,KST,LST = 15  1  1  1 NREC =         6 INTLOC = 9060
 II,JST,KST,LST = 16  1  1  1 NREC =         7 INTLOC = 1847
 II,JST,KST,LST = 17  1  1  1 NREC =         7 INTLOC =13699
 II,JST,KST,LST = 18  1  1  1 NREC =         8 INTLOC =12176
 II,JST,KST,LST = 19  1  1  1 NREC =        11 INTLOC = 8308
 II,JST,KST,LST = 20  1  1  1 NREC =        15 INTLOC =  692
 TOTAL NUMBER OF NONZERO TWO-ELECTRON INTEGRALS =              345092
         24 INTEGRAL RECORDS WERE STORED ON DISK FILE  8.
  ...... END OF TWO-ELECTRON INTEGRALS .....
 STEP CPU TIME =     0.09 TOTAL CPU TIME =          0.1 (      0.0 MIN)
 TOTAL WALL CLOCK TIME=          0.1 SECONDS, CPU UTILIZATION IS    86.67%

          --------------------------
               R-PBE SCF CALCULATION
          --------------------------

     NUCLEAR ENERGY =       117.6926177298
     MAXIT =   30     NPUNCH=    2
     EXTRAP=T  DAMP=F  SHIFT=F  RSTRCT=F  DIIS=T  DEM=F  SOSCF=F
         DENSITY MATRIX CONVERGENCE THRESHOLD=  1.00E-05
     COARSE -> FINE DFT GRID SWITCH THRESHOLD=  3.00E-04 (SWITCH IN $DFT)
                   HF -> DFT SWITCH THRESHOLD=  5.00E-03 (SWOFF IN $DFT)
     MEMORY REQUIRED FOR RHF ITERS=    183108 WORDS.

 DFT CODE IS SWITCHING FROM THE FINE GRID NRAD= 96,  NLEB=  302
                      TO THE COARSE GRID NRAD0= 24, NLEB0=  110

     EXCHANGE FUNCTIONAL   =PBE       
     CORRELATION FUNCTIONAL=PBE       
     DFT THRESHOLD         =.460E-07
     GRID CHANGE THRESHOLD =.300E-03
 FOR AN EULER-MACLAURIN QUADRATURE USING  96 RADIAL POINTS:
 SMALLEST GAUSSIAN PRIMITIVE EXPONENT=        0.1001940000 OF TYPE -P-
 ON ATOM NUMBER   1 HAS RADIAL NORMALIZATION=  1.000000
  LARGEST GAUSSIAN PRIMITIVE EXPONENT=    49299.4000000000 OF TYPE -S-
 ON ATOM NUMBER   1 HAS RADIAL NORMALIZATION=  1.000000
 DFT IS SWITCHED OFF, PERFORMING PURE SCF UNTIL SWOFF THRESHOLD IS REACHED.

 ITER EX DEM     TOTAL ENERGY        E CHANGE  DENSITY CHANGE    DIIS ERROR
   1  0  0     -545.8026473316  -545.8026473316   0.661026438   1.055473170
          * * *   INITIATING DIIS PROCEDURE   * * *
   2  1  0     -546.7979511915    -0.9953038600   0.499111392   0.210440010
   3  2  0     -546.9202244417    -0.1222732502   0.131181048   0.134401991
   4  3  0     -546.9771901823    -0.0569657406   0.130508158   0.026259026
   5  4  0     -546.9853704742    -0.0081802919   0.090338543   0.013017919
   6  5  0     -546.9875948831    -0.0022244089   0.026651034   0.004910589
   7  6  0     -546.9878392610    -0.0002443779   0.003471942   0.000598716
 CONVERGED TO SWOFF, SO DFT CALCULATION IS NOW SWITCHED ON.
          * * *   INITIATING DIIS PROCEDURE   * * *
   8  7  0     -548.0531818951    -1.0653426341   0.205852695   0.091177749
   9  8  0     -548.0691796738    -0.0159977787   0.156870949   0.054839803
  10  9  0     -548.0665869965     0.0025926773   0.068314637   0.059205619
  11 10  0     -548.0788660190    -0.0122790224   0.017173940   0.009238036
  12 11  0     -548.0791115274    -0.0002455085   0.000805044   0.000587980
  13 12  0     -548.0791124337    -0.0000009063   0.000498731   0.000059754
  14 13  0     -548.0791124483    -0.0000000145   0.000121410   0.000022160
 DFT CODE IS SWITCHING BACK TO THE FINE GRID
          * * *   INITIATING DIIS PROCEDURE   * * *
  15 14  0     -548.0942472398    -0.0151347916   0.018896705   0.008520434
  16 15  0     -548.0945081739    -0.0002609341   0.008578930   0.003874620
  17 16  0     -548.0944969168     0.0000112572   0.004630868   0.004636237
  18 17  0     -548.0945444534    -0.0000475366   0.001379518   0.000811082
  19 18  0     -548.0945461949    -0.0000017415   0.000171384   0.000124704
  20 19  0     -548.0945462361    -0.0000000412   0.000037092   0.000005797
  21 20  0     -548.0945462362    -0.0000000001   0.000007588   0.000002193
  22 21  0     -548.0945462362    -0.0000000000   0.000002559   0.000002466

          -----------------
          DENSITY CONVERGED
          -----------------
     TIME TO FORM FOCK OPERATORS=       2.3 SECONDS (       0.1 SEC/ITER)
     TIME TO SOLVE SCF EQUATIONS=       0.0 SECONDS (       0.0 SEC/ITER)

 FINAL R-PBE ENERGY IS     -548.0945462362 AFTER  22 ITERATIONS
 DFT EXCHANGE + CORRELATION ENERGY =       -42.7745442752
 TOTAL ELECTRON NUMBER             =        32.0000112497

          ------------
          EIGENVECTORS
          ------------

                      1          2          3          4          5
                  -88.2063   -18.7992   -18.7992    -7.8277    -5.8557
                     A          A          A          A          A   
    1  S  1  S    0.997734  -0.000072  -0.000000  -0.308282  -0.000000
    2  S  1  S    0.008489   0.000619   0.000001   1.031205   0.000000
    3  S  1  S   -0.004232   0.000686   0.000000   0.028665  -0.000000
    4  S  1  S    0.000064   0.006872   0.000006  -0.004908  -0.000000
    5  S  1  X   -0.000000   0.000000  -0.000211  -0.000000   0.993502
    6  S  1  Y    0.000154  -0.000032  -0.000000   0.014832  -0.000000
    7  S  1  Z    0.000000   0.000000   0.000000   0.000000   0.000000
    8  S  1  X   -0.000000  -0.000000  -0.000181   0.000000   0.019276
    9  S  1  Y   -0.000522   0.000604   0.000000   0.001559  -0.000000
   10  S  1  Z    0.000000   0.000000   0.000000   0.000000   0.000000
   11  S  1  X    0.000000   0.000005  -0.005667   0.000000  -0.001994
   12  S  1  Y   -0.000031   0.001902   0.000002  -0.000308  -0.000000
   13  S  1  Z    0.000000   0.000000   0.000000   0.000000   0.000000
   14  S  1 XX   -0.000887  -0.001955  -0.000002   0.001500  -0.000000
   15  S  1 YY    0.000407   0.001067   0.000001  -0.000778   0.000000
   16  S  1 ZZ    0.000481   0.000888   0.000001  -0.000722   0.000000
   17  S  1 XY    0.000000  -0.000001   0.001146   0.000000   0.001964
   18  S  1 XZ    0.000000   0.000000   0.000000   0.000000   0.000000
   19  S  1 YZ    0.000000   0.000000   0.000000   0.000000   0.000000
   20  O  2  S   -0.000035   0.702834  -0.701599  -0.000572  -0.001477
   21  O  2  S   -0.000102   0.024663  -0.024497  -0.000004   0.001758
   22  O  2  S    0.001344  -0.011621   0.012239  -0.000931  -0.002326
   23  O  2  X   -0.000320  -0.001689   0.001218  -0.000581  -0.002893
   24  O  2  Y   -0.000109  -0.000223   0.000218  -0.000122  -0.000948
   25  O  2  Z    0.000000   0.000000   0.000000   0.000000   0.000000
   26  O  2  X   -0.000939   0.002898  -0.001168   0.001194   0.001582
   27  O  2  Y   -0.000267  -0.000312  -0.001127   0.000348   0.000348
   28  O  2  Z    0.000000   0.000000   0.000000   0.000000   0.000000
   29  O  2 XX    0.000335  -0.000027  -0.000255   0.001091   0.001877
   30  O  2 YY   -0.000130   0.000102   0.000231  -0.000505  -0.000727
   31  O  2 ZZ   -0.000205  -0.000074   0.000024  -0.000586  -0.001150
   32  O  2 XY    0.000222   0.000354   0.000237   0.000454   0.001293
   33  O  2 XZ    0.000000   0.000000   0.000000   0.000000   0.000000
   34  O  2 YZ    0.000000   0.000000   0.000000   0.000000   0.000000
   35  O  3  S   -0.000035   0.701594   0.702839  -0.000572   0.001477
   36  O  3  S   -0.000102   0.024620   0.024540  -0.000004  -0.001758
   37  O  3  S    0.001344  -0.011599  -0.012259  -0.000931   0.002326
   38  O  3  X    0.000320   0.001687   0.001221   0.000581  -0.002893
   39  O  3  Y   -0.000109  -0.000223  -0.000219  -0.000122   0.000948
   40  O  3  Z    0.000000   0.000000   0.000000   0.000000   0.000000
   41  O  3  X    0.000939  -0.002896  -0.001173  -0.001194   0.001582
   42  O  3  Y   -0.000267  -0.000314   0.001127   0.000348  -0.000348
   43  O  3  Z    0.000000   0.000000   0.000000   0.000000   0.000000
   44  O  3 XX    0.000335  -0.000028   0.000255   0.001091  -0.001877
   45  O  3 YY   -0.000130   0.000102  -0.000230  -0.000505   0.000727
   46  O  3 ZZ   -0.000205  -0.000074  -0.000024  -0.000586   0.001150
   47  O  3 XY   -0.000222  -0.000355   0.000236  -0.000454   0.001293
   48  O  3 XZ    0.000000   0.000000   0.000000   0.000000   0.000000
   49  O  3 YZ    0.000000   0.000000   0.000000   0.000000   0.000000

                      6          7          8          9         10
                   -5.8506    -5.8457    -1.1339    -1.0535    -0.5460
                     A          A          A          A          A   
    1  S  1  S    0.000000   0.004786   0.057845  -0.000000   0.054335
    2  S  1  S    0.000000  -0.016614  -0.348436   0.000001  -0.347175
    3  S  1  S    0.000000   0.001169   0.464241  -0.000003   0.541492
    4  S  1  S    0.000000   0.000111   0.046183  -0.000005   0.137819
    5  S  1  X    0.000000   0.000000  -0.000001  -0.185837   0.000000
    6  S  1  Y    0.000000   0.994764  -0.049147   0.000000   0.002738
    7  S  1  Z    0.994898   0.000000   0.000000   0.000000   0.000000
    8  S  1  X    0.000000   0.000000   0.000003   0.392592  -0.000000
    9  S  1  Y    0.000000   0.016037   0.100653  -0.000001  -0.000231
   10  S  1  Z    0.016084   0.000000   0.000000   0.000000   0.000000
   11  S  1  X    0.000000   0.000000   0.000002  -0.023937  -0.000001
   12  S  1  Y    0.000000  -0.002764  -0.015176  -0.000001  -0.025293
   13  S  1  Z   -0.002953   0.000000   0.000000   0.000000   0.000000
   14  S  1 XX    0.000000  -0.000691   0.089579  -0.000002  -0.018266
   15  S  1 YY    0.000000   0.001338  -0.040090   0.000001   0.004102
   16  S  1 ZZ    0.000000  -0.000647  -0.049489   0.000001   0.014165
   17  S  1 XY    0.000000   0.000000   0.000001   0.066721  -0.000000
   18  S  1 XZ    0.000000   0.000000   0.000000   0.000000   0.000000
   19  S  1 YZ    0.001110   0.000000   0.000000   0.000000   0.000000
   20  O  2  S    0.000000  -0.000383  -0.137767  -0.157919   0.114638
   21  O  2  S    0.000000   0.000619   0.271315   0.324633  -0.244967
   22  O  2  S    0.000000  -0.000341   0.197562   0.210272  -0.348785
   23  O  2  X    0.000000  -0.000991  -0.132920  -0.135142  -0.256239
   24  O  2  Y    0.000000  -0.000012  -0.024787  -0.032787  -0.074887
   25  O  2  Z    0.000255   0.000000   0.000000   0.000000   0.000000
   26  O  2  X    0.000000   0.000523  -0.024939   0.005471  -0.124891
   27  O  2  Y    0.000000  -0.000346   0.001777   0.002266  -0.032361
   28  O  2  Z   -0.000365   0.000000   0.000000   0.000000   0.000000
   29  O  2 XX    0.000000   0.000700   0.016391   0.012011   0.014108
   30  O  2 YY    0.000000  -0.000456  -0.009564  -0.005054  -0.005576
   31  O  2 ZZ    0.000000  -0.000245  -0.006828  -0.006957  -0.008532
   32  O  2 XY    0.000000  -0.000076   0.001419   0.008938   0.007542
   33  O  2 XZ   -0.000430   0.000000   0.000000   0.000000   0.000000
   34  O  2 YZ   -0.000175   0.000000   0.000000   0.000000   0.000000
   35  O  3  S    0.000000  -0.000383  -0.137767   0.157919   0.114638
   36  O  3  S    0.000000   0.000619   0.271313  -0.324635  -0.244968
   37  O  3  S    0.000000  -0.000341   0.197569  -0.210264  -0.348787
   38  O  3  X    0.000000   0.000991   0.132920  -0.135142   0.256240
   39  O  3  Y    0.000000  -0.000012  -0.024786   0.032787  -0.074887
   40  O  3  Z    0.000255   0.000000   0.000000   0.000000   0.000000
   41  O  3  X    0.000000  -0.000523   0.024941   0.005475   0.124891
   42  O  3  Y    0.000000  -0.000346   0.001776  -0.002266  -0.032361
   43  O  3  Z   -0.000365   0.000000   0.000000   0.000000   0.000000
   44  O  3 XX    0.000000   0.000700   0.016392  -0.012010   0.014108
   45  O  3 YY    0.000000  -0.000456  -0.009564   0.005054  -0.005576
   46  O  3 ZZ    0.000000  -0.000245  -0.006828   0.006957  -0.008532
   47  O  3 XY    0.000000   0.000076  -0.001419   0.008938  -0.007542
   48  O  3 XZ    0.000430   0.000000   0.000000   0.000000   0.000000
   49  O  3 YZ   -0.000175   0.000000   0.000000   0.000000   0.000000

                     11         12         13         14         15
                   -0.4927    -0.4835    -0.4592    -0.3838    -0.3728
                     A          A          A          A          A   
    1  S  1  S    0.000000  -0.008202   0.000000   0.000000  -0.000000
    2  S  1  S    0.000000   0.052777  -0.000000   0.000000   0.000000
    3  S  1  S    0.000000  -0.080341  -0.000001   0.000000   0.000000
    4  S  1  S    0.000000  -0.056176  -0.000001   0.000000   0.000002
    5  S  1  X    0.000000  -0.000000  -0.165860   0.000000  -0.009737
    6  S  1  Y    0.000000  -0.199939   0.000000   0.000000  -0.000000
    7  S  1  Z   -0.208807   0.000000   0.000000   0.000000   0.000000
    8  S  1  X    0.000000   0.000000   0.439915   0.000000   0.016412
    9  S  1  Y    0.000000   0.512250  -0.000001   0.000000   0.000000
   10  S  1  Z    0.538166   0.000000   0.000000  -0.000000   0.000000
   11  S  1  X    0.000000   0.000000  -0.068463   0.000000   0.039696
   12  S  1  Y    0.000000   0.074292  -0.000000   0.000000   0.000000
   13  S  1  Z    0.078348   0.000000   0.000000   0.000000   0.000000
   14  S  1 XX    0.000000  -0.065325  -0.000000   0.000000   0.000000
   15  S  1 YY    0.000000   0.073001   0.000000   0.000000  -0.000000
   16  S  1 ZZ    0.000000  -0.007675   0.000000   0.000000  -0.000000
   17  S  1 XY    0.000000   0.000000   0.032725   0.000000  -0.164841
   18  S  1 XZ    0.000000   0.000000   0.000000  -0.169979   0.000000
   19  S  1 YZ    0.047027   0.000000   0.000000   0.000000   0.000000
   20  O  2  S    0.000000   0.011567   0.075718   0.000000  -0.003107
   21  O  2  S    0.000000  -0.021286  -0.156371   0.000000   0.012387
   22  O  2  S    0.000000  -0.033943  -0.300300   0.000000   0.008984
   23  O  2  X    0.000000  -0.126900  -0.375739   0.000000   0.174457
   24  O  2  Y    0.000000   0.312206  -0.147966   0.000000  -0.425919
   25  O  2  Z    0.331887   0.000000   0.000000  -0.457504   0.000000
   26  O  2  X    0.000000  -0.070781  -0.143940   0.000000   0.102925
   27  O  2  Y    0.000000   0.170774  -0.072570   0.000000  -0.280958
   28  O  2  Z    0.181313   0.000000   0.000000  -0.298901   0.000000
   29  O  2 XX    0.000000   0.015942   0.015389   0.000000  -0.007728
   30  O  2 YY    0.000000  -0.011911  -0.005238   0.000000   0.007272
   31  O  2 ZZ    0.000000  -0.004031  -0.010151   0.000000   0.000455
   32  O  2 XY    0.000000  -0.020977   0.012987   0.000000   0.020763
   33  O  2 XZ   -0.028229   0.000000   0.000000   0.020413   0.000000
   34  O  2 YZ   -0.005863   0.000000   0.000000   0.003500   0.000000
   35  O  3  S    0.000000   0.011567  -0.075718   0.000000   0.003107
   36  O  3  S    0.000000  -0.021286   0.156369   0.000000  -0.012387
   37  O  3  S    0.000000  -0.033942   0.300302   0.000000  -0.008986
   38  O  3  X    0.000000   0.126899  -0.375738   0.000000   0.174457
   39  O  3  Y    0.000000   0.312206   0.147965   0.000000   0.425919
   40  O  3  Z    0.331887   0.000000   0.000000   0.457504   0.000000
   41  O  3  X    0.000000   0.070781  -0.143938   0.000000   0.102923
   42  O  3  Y    0.000000   0.170774   0.072570   0.000000   0.280958
   43  O  3  Z    0.181313   0.000000   0.000000   0.298901   0.000000
   44  O  3 XX    0.000000   0.015942  -0.015389   0.000000   0.007728
   45  O  3 YY    0.000000  -0.011911   0.005238   0.000000  -0.007272
   46  O  3 ZZ    0.000000  -0.004031   0.010151   0.000000  -0.000455
   47  O  3 XY    0.000000   0.020977   0.012986   0.000000   0.020763
   48  O  3 XZ    0.028229   0.000000   0.000000   0.020413   0.000000
   49  O  3 YZ   -0.005863   0.000000   0.000000  -0.003500   0.000000

                     16         17         18         19         20
                   -0.2211    -0.0948    -0.0245     0.1540     0.2054
                     A          A          A          A          A   
    1  S  1  S    0.030169   0.000000   0.011820  -0.000000   0.000000
    2  S  1  S   -0.198796   0.000000  -0.080027   0.000001   0.000000
    3  S  1  S    0.224491   0.000000   0.031754  -0.000009   0.000000
    4  S  1  S    0.810002   0.000000   0.809051  -0.000009   0.000000
    5  S  1  X    0.000000   0.000000  -0.000000  -0.040285   0.000000
    6  S  1  Y    0.122053   0.000000  -0.188675   0.000000   0.000000
    7  S  1  Z    0.000000  -0.231737   0.000000   0.000000   0.248834
    8  S  1  X   -0.000000   0.000000   0.000001   0.152345   0.000000
    9  S  1  Y   -0.336843   0.000000   0.613011  -0.000002   0.000000
   10  S  1  Z    0.000000   0.718347   0.000000   0.000000  -0.971219
   11  S  1  X   -0.000002   0.000000  -0.000005   1.728287   0.000000
   12  S  1  Y   -0.067276   0.000000   0.600588   0.000000   0.000000
   13  S  1  Z    0.000000   0.458099   0.000000   0.000000   1.284783
   14  S  1 XX   -0.235378   0.000000  -0.157029  -0.000004   0.000000
   15  S  1 YY    0.112387   0.000000   0.026782   0.000001   0.000000
   16  S  1 ZZ    0.122990   0.000000   0.130247   0.000002   0.000000
   17  S  1 XY   -0.000000   0.000000   0.000000  -0.077844   0.000000
   18  S  1 XZ    0.000000  -0.000000   0.000000   0.000000  -0.000000
   19  S  1 YZ    0.000000  -0.036997   0.000000   0.000000  -0.065588
   20  O  2  S    0.033998   0.000000   0.044708   0.071470   0.000000
   21  O  2  S   -0.071140   0.000000  -0.097474  -0.121493   0.000000
   22  O  2  S   -0.178840   0.000000  -0.355239  -0.908069   0.000000
   23  O  2  X    0.235202   0.000000   0.247700  -0.028925   0.000000
   24  O  2  Y    0.268293   0.000000  -0.281045   0.109275   0.000000
   25  O  2  Z    0.000000  -0.396037   0.000000   0.000000  -0.011170
   26  O  2  X    0.151720   0.000000   0.248059   0.046384   0.000000
   27  O  2  Y    0.202803   0.000000  -0.284079   0.148490   0.000000
   28  O  2  Z    0.000000  -0.372775   0.000000   0.000000  -0.078238
   29  O  2 XX   -0.008396   0.000000  -0.006039  -0.014575   0.000000
   30  O  2 YY    0.004754   0.000000   0.000525   0.007590   0.000000
   31  O  2 ZZ    0.003641   0.000000   0.005514   0.006984   0.000000
   32  O  2 XY   -0.002663   0.000000  -0.002250  -0.006488   0.000000
   33  O  2 XZ    0.000000   0.001482   0.000000   0.000000   0.027245
   34  O  2 YZ    0.000000  -0.001740   0.000000   0.000000   0.005079
   35  O  3  S    0.033998   0.000000   0.044708  -0.071470   0.000000
   36  O  3  S   -0.071141   0.000000  -0.097476   0.121484   0.000000
   37  O  3  S   -0.178842   0.000000  -0.355242   0.908092   0.000000
   38  O  3  X   -0.235202   0.000000  -0.247701  -0.028930   0.000000
   39  O  3  Y    0.268293   0.000000  -0.281045  -0.109276   0.000000
   40  O  3  Z    0.000000  -0.396037   0.000000   0.000000  -0.011170
   41  O  3  X   -0.151720   0.000000  -0.248057   0.046401   0.000000
   42  O  3  Y    0.202804   0.000000  -0.284078  -0.148494   0.000000
   43  O  3  Z    0.000000  -0.372775   0.000000   0.000000  -0.078238
   44  O  3 XX   -0.008396   0.000000  -0.006039   0.014576   0.000000
   45  O  3 YY    0.004755   0.000000   0.000525  -0.007591   0.000000
   46  O  3 ZZ    0.003641   0.000000   0.005514  -0.006985   0.000000
   47  O  3 XY    0.002663   0.000000   0.002250  -0.006489   0.000000
   48  O  3 XZ    0.000000  -0.001482   0.000000   0.000000  -0.027245
   49  O  3 YZ    0.000000  -0.001740   0.000000   0.000000   0.005079

                     21         22         23         24         25
                    0.2179     0.2967     0.5200     0.5223     0.5243
                     A          A          A          A          A   
    1  S  1  S    0.005256  -0.068518   0.000000   0.005542   0.000000
    2  S  1  S   -0.038515   0.493840   0.000000  -0.041772  -0.000000
    3  S  1  S    0.128521  -1.684284   0.000000   0.148079   0.000004
    4  S  1  S   -0.053276   2.254107   0.000000   0.057228   0.000004
    5  S  1  X   -0.000000  -0.000001   0.000000  -0.000003  -0.227900
    6  S  1  Y    0.254839   0.006635   0.000000   0.005671  -0.000000
    7  S  1  Z    0.000000   0.000000   0.014508   0.000000   0.000000
    8  S  1  X    0.000002   0.000010   0.000000   0.000010   0.807955
    9  S  1  Y   -0.987476   0.019926   0.000000  -0.019037   0.000002
   10  S  1  Z    0.000000   0.000000  -0.062548   0.000000   0.000000
   11  S  1  X    0.000000   0.000003   0.000000  -0.000006  -0.588730
   12  S  1  Y    1.258465   0.103425   0.000000   0.122232  -0.000001
   13  S  1  Z    0.000000   0.000000   0.121799   0.000000   0.000000
   14  S  1 XX    0.134881   0.350903   0.000000  -0.004141   0.000002
   15  S  1 YY   -0.112413  -0.147041   0.000000   0.849555  -0.000010
   16  S  1 ZZ   -0.022468  -0.203862   0.000000  -0.845414   0.000008
   17  S  1 XY    0.000000   0.000001   0.000000  -0.000007  -0.724570
   18  S  1 XZ    0.000000   0.000000  -0.000000   0.000000   0.000000
   19  S  1 YZ    0.000000   0.000000   0.980424   0.000000   0.000000
   20  O  2  S    0.000584   0.009587   0.000000   0.008781   0.020519
   21  O  2  S    0.019331   0.035993   0.000000  -0.035166  -0.126453
   22  O  2  S   -0.131717  -0.620574   0.000000  -0.063900   0.181987
   23  O  2  X   -0.062328  -0.240095   0.000000   0.045214   0.257501
   24  O  2  Y   -0.002622  -0.050946   0.000000  -0.136133   0.250759
   25  O  2  Z    0.000000   0.000000  -0.138115   0.000000   0.000000
   26  O  2  X   -0.001681   0.175916   0.000000   0.082603  -0.089146
   27  O  2  Y   -0.050840   0.083029   0.000000   0.005760   0.164944
   28  O  2  Z    0.000000   0.000000  -0.014454   0.000000   0.000000
   29  O  2 XX   -0.019172  -0.052539   0.000000   0.004280   0.016817
   30  O  2 YY    0.013494   0.023390   0.000000   0.037702   0.008577
   31  O  2 ZZ    0.005679   0.029149   0.000000  -0.041981  -0.025395
   32  O  2 XY    0.019645  -0.028330   0.000000  -0.022277   0.046746
   33  O  2 XZ    0.000000   0.000000  -0.020003   0.000000   0.000000
   34  O  2 YZ    0.000000   0.000000   0.046720   0.000000   0.000000
   35  O  3  S    0.000584   0.009587   0.000000   0.008780  -0.020519
   36  O  3  S    0.019329   0.035987   0.000000  -0.035164   0.126455
   37  O  3  S   -0.131714  -0.620555   0.000000  -0.063901  -0.181994
   38  O  3  X    0.062327   0.240092   0.000000  -0.045209   0.257504
   39  O  3  Y   -0.002622  -0.050947   0.000000  -0.136138  -0.250756
   40  O  3  Z    0.000000   0.000000  -0.138115   0.000000   0.000000
   41  O  3  X    0.001684  -0.175901   0.000000  -0.082602  -0.089155
   42  O  3  Y   -0.050841   0.083026   0.000000   0.005756  -0.164942
   43  O  3  Z    0.000000   0.000000  -0.014454   0.000000   0.000000
   44  O  3 XX   -0.019172  -0.052539   0.000000   0.004279  -0.016818
   45  O  3 YY    0.013494   0.023390   0.000000   0.037701  -0.008578
   46  O  3 ZZ    0.005679   0.029149   0.000000  -0.041981   0.025396
   47  O  3 XY   -0.019646   0.028330   0.000000   0.022278   0.046745
   48  O  3 XZ    0.000000   0.000000   0.020003   0.000000   0.000000
   49  O  3 YZ    0.000000   0.000000   0.046720   0.000000   0.000000

                     26         27         28         29         30
                    0.6026     0.6506     0.6706     0.7157     0.7515
                     A          A          A          A          A   
    1  S  1  S    0.035898  -0.000000   0.000000   0.000000  -0.000000
    2  S  1  S   -0.290508   0.000001   0.000000   0.000000   0.000000
    3  S  1  S    1.581932  -0.000011   0.000000   0.000000   0.000002
    4  S  1  S    0.747940  -0.000016   0.000000   0.000000   0.000003
    5  S  1  X   -0.000002  -0.253025   0.000000   0.000000   0.071118
    6  S  1  Y   -0.064425   0.000000   0.000000   0.000000  -0.000000
    7  S  1  Z    0.000000   0.000000   0.000000  -0.000000   0.000000
    8  S  1  X    0.000016   1.519227   0.000000   0.000000  -0.406178
    9  S  1  Y    0.408160  -0.000003   0.000000   0.000000   0.000000
   10  S  1  Z    0.000000   0.000000  -0.000000  -0.000000   0.000000
   11  S  1  X    0.000005  -0.240745   0.000000   0.000000   0.264305
   12  S  1  Y   -0.001541  -0.000002   0.000000   0.000000   0.000000
   13  S  1  Z    0.000000   0.000000  -0.000000   0.000000   0.000000
   14  S  1 XX    0.466677  -0.000002   0.000000   0.000000  -0.000000
   15  S  1 YY   -0.254925   0.000001   0.000000   0.000000   0.000000
   16  S  1 ZZ   -0.211752   0.000002   0.000000   0.000000   0.000000
   17  S  1 XY    0.000002   0.160122   0.000000   0.000000  -0.248782
   18  S  1 XZ    0.000000   0.000000   1.009669  -0.272266   0.000000
   19  S  1 YZ    0.000000   0.000000   0.000000   0.000000   0.000000
   20  O  2  S    0.062972   0.053965   0.000000   0.000000   0.002307
   21  O  2  S   -0.121031  -0.080570   0.000000   0.000000  -0.092374
   22  O  2  S   -0.789713  -0.659354   0.000000   0.000000   0.228809
   23  O  2  X   -0.283931  -0.187120   0.000000   0.000000   0.120328
   24  O  2  Y   -0.003973  -0.177305   0.000000   0.000000  -0.583383
   25  O  2  Z    0.000000   0.000000  -0.299318  -0.594795   0.000000
   26  O  2  X    1.252451   1.200741   0.000000   0.000000  -0.495843
   27  O  2  Y    0.291748   0.455548   0.000000   0.000000   0.714512
   28  O  2  Z    0.000000   0.000000  -0.177022   0.826890   0.000000
   29  O  2 XX   -0.004269   0.031243   0.000000   0.000000  -0.022498
   30  O  2 YY   -0.002181  -0.010524   0.000000   0.000000   0.014496
   31  O  2 ZZ    0.006451  -0.020718   0.000000   0.000000   0.008002
   32  O  2 XY   -0.009865   0.027365   0.000000   0.000000   0.014935
   33  O  2 XZ    0.000000   0.000000  -0.068167   0.024193   0.000000
   34  O  2 YZ    0.000000   0.000000  -0.035280   0.007142   0.000000
   35  O  3  S    0.062970  -0.053967   0.000000   0.000000  -0.002307
   36  O  3  S   -0.121033   0.080573   0.000000   0.000000   0.092371
   37  O  3  S   -0.789686   0.659372   0.000000   0.000000  -0.228808
   38  O  3  X    0.283918  -0.187133   0.000000   0.000000   0.120334
   39  O  3  Y   -0.003973   0.177308   0.000000   0.000000   0.583381
   40  O  3  Z    0.000000   0.000000   0.299317   0.594795   0.000000
   41  O  3  X   -1.252414   1.200773   0.000000   0.000000  -0.495852
   42  O  3  Y    0.291741  -0.455554   0.000000   0.000000  -0.714510
   43  O  3  Z    0.000000   0.000000   0.177022  -0.826890   0.000000
   44  O  3 XX   -0.004270  -0.031243   0.000000   0.000000   0.022498
   45  O  3 YY   -0.002181   0.010524   0.000000   0.000000  -0.014496
   46  O  3 ZZ    0.006451   0.020718   0.000000   0.000000  -0.008002
   47  O  3 XY    0.009865   0.027365   0.000000   0.000000   0.014934
   48  O  3 XZ    0.000000   0.000000  -0.068167   0.024193   0.000000
   49  O  3 YZ    0.000000   0.000000   0.035280  -0.007142   0.000000

                     31         32         33         34         35
                    0.8494     0.8781     1.0675     1.3522     1.4985
                     A          A          A          A          A   
    1  S  1  S    0.006966   0.000000  -0.000000  -0.024575   0.000001
    2  S  1  S   -0.057777   0.000000   0.000001   0.193474  -0.000008
    3  S  1  S    0.301328   0.000000  -0.000004  -0.543110  -0.000027
    4  S  1  S    0.049178   0.000000  -0.000015  -1.805644  -0.000111
    5  S  1  X    0.000000   0.000000  -0.246844   0.000003  -0.072064
    6  S  1  Y   -0.004441   0.000000   0.000000   0.080387  -0.000003
    7  S  1  Z    0.000000   0.006740   0.000000   0.000000   0.000000
    8  S  1  X   -0.000001   0.000000   0.923317  -0.000015   0.672635
    9  S  1  Y   -0.045485   0.000000  -0.000003  -0.448666   0.000001
   10  S  1  Z    0.000000  -0.123034   0.000000   0.000000   0.000000
   11  S  1  X    0.000001   0.000000   0.079041  -0.000023   1.343282
   12  S  1  Y   -0.724842   0.000000  -0.000005  -0.359430  -0.000037
   13  S  1  Z    0.000000  -0.761327   0.000000   0.000000   0.000000
   14  S  1 XX    0.212795   0.000000  -0.000005  -0.999795   0.000058
   15  S  1 YY   -0.241773   0.000000   0.000002   0.421303  -0.000028
   16  S  1 ZZ    0.028978   0.000000   0.000003   0.578492  -0.000029
   17  S  1 XY   -0.000001   0.000000   0.757048  -0.000007   0.091858
   18  S  1 XZ    0.000000  -0.000000   0.000000   0.000000   0.000000
   19  S  1 YZ    0.000000  -0.160508   0.000000   0.000000   0.000000
   20  O  2  S   -0.010648   0.000000   0.050805   0.018243  -0.069665
   21  O  2  S    0.124760   0.000000  -0.306975  -0.668243   1.276625
   22  O  2  S   -0.197439   0.000000  -0.303917   1.971622  -2.361133
   23  O  2  X    0.201669   0.000000   0.632283  -0.443902   0.147300
   24  O  2  Y   -0.564697   0.000000  -0.009158  -0.282380  -0.050551
   25  O  2  Z    0.000000  -0.620059   0.000000   0.000000   0.000000
   26  O  2  X   -0.099627   0.000000  -0.131339  -0.490273   0.244115
   27  O  2  Y    1.009728   0.000000  -0.064579   0.091221   0.298679
   28  O  2  Z    0.000000   1.038261   0.000000   0.000000   0.000000
   29  O  2 XX   -0.012946   0.000000   0.085825  -0.083720   0.097999
   30  O  2 YY    0.009084   0.000000  -0.083864   0.008927  -0.025838
   31  O  2 ZZ    0.003862   0.000000  -0.001961   0.074793  -0.072161
   32  O  2 XY    0.038655   0.000000  -0.064993  -0.072162   0.115932
   33  O  2 XZ    0.000000   0.049391   0.000000   0.000000   0.000000
   34  O  2 YZ    0.000000   0.003642   0.000000   0.000000   0.000000
   35  O  3  S   -0.010648   0.000000  -0.050803   0.018242   0.069682
   36  O  3  S    0.124759   0.000000   0.306951  -0.668213  -1.276872
   37  O  3  S   -0.197439   0.000000   0.303959   1.971552   2.361441
   38  O  3  X   -0.201670   0.000000   0.632289   0.443887   0.147230
   39  O  3  Y   -0.564697   0.000000   0.009152  -0.282383   0.050572
   40  O  3  Z    0.000000  -0.620059   0.000000   0.000000   0.000000
   41  O  3  X    0.099627   0.000000  -0.131333   0.490275   0.244240
   42  O  3  Y    1.009727   0.000000   0.064584   0.091230  -0.298673
   43  O  3  Z    0.000000   1.038261   0.000000   0.000000   0.000000
   44  O  3 XX   -0.012946   0.000000  -0.085825  -0.083718  -0.098027
   45  O  3 YY    0.009084   0.000000   0.083864   0.008925   0.025863
   46  O  3 ZZ    0.003862   0.000000   0.001961   0.074792   0.072164
   47  O  3 XY   -0.038655   0.000000  -0.064993   0.072162   0.115910
   48  O  3 XZ    0.000000  -0.049391   0.000000   0.000000   0.000000
   49  O  3 YZ    0.000000   0.003642   0.000000   0.000000   0.000000

                     36         37         38         39         40
                    1.5347     2.0134     2.0137     2.0651     2.0835
                     A          A          A          A          A   
    1  S  1  S    0.014034   0.000000  -0.000000   0.000000  -0.001134
    2  S  1  S   -0.089373   0.000000   0.000000   0.000000   0.003965
    3  S  1  S   -0.229010   0.000000  -0.000000   0.000000   0.067817
    4  S  1  S   -0.807037   0.000000   0.000000   0.000000  -0.005075
    5  S  1  X    0.000008   0.000000  -0.001747   0.000000   0.000000
    6  S  1  Y   -0.041514   0.000000   0.000000   0.000000  -0.004669
    7  S  1  Z    0.000000   0.000000   0.000000  -0.034667   0.000000
    8  S  1  X   -0.000070   0.000000  -0.007323   0.000000  -0.000000
    9  S  1  Y    0.074211   0.000000  -0.000000   0.000000   0.037451
   10  S  1  Z    0.000000  -0.000000   0.000000   0.162045   0.000000
   11  S  1  X   -0.000142   0.000000   0.019055   0.000000   0.000001
   12  S  1  Y   -0.304248   0.000000   0.000000   0.000000  -0.010418
   13  S  1  Z    0.000000  -0.000000   0.000000  -0.013607   0.000000
   14  S  1 XX    0.672312   0.000000   0.000000   0.000000  -0.114266
   15  S  1 YY   -0.315590   0.000000   0.000000   0.000000  -0.114473
   16  S  1 ZZ   -0.356722   0.000000  -0.000000   0.000000   0.228739
   17  S  1 XY   -0.000012   0.000000  -0.032236   0.000000   0.000000
   18  S  1 XZ    0.000000   0.030637   0.000000  -0.000000   0.000000
   19  S  1 YZ    0.000000  -0.000000   0.000000  -0.135359   0.000000
   20  O  2  S    0.079140   0.000000  -0.000393   0.000000  -0.006658
   21  O  2  S   -1.105481   0.000000   0.005778   0.000000   0.092236
   22  O  2  S    1.241819   0.000000  -0.004554   0.000000  -0.061353
   23  O  2  X    0.385576   0.000000   0.006482   0.000000  -0.059701
   24  O  2  Y    0.133107   0.000000  -0.011173   0.000000  -0.013625
   25  O  2  Z    0.000000   0.008241   0.000000   0.029597   0.000000
   26  O  2  X   -0.538958   0.000000  -0.021265   0.000000   0.056007
   27  O  2  Y    0.013300   0.000000   0.018351   0.000000   0.007662
   28  O  2  Z    0.000000  -0.016331   0.000000  -0.053000   0.000000
   29  O  2 XX   -0.124583   0.000000   0.103590   0.000000  -0.016625
   30  O  2 YY    0.129407   0.000000   0.510491   0.000000   0.610935
   31  O  2 ZZ   -0.004824   0.000000  -0.614081   0.000000  -0.594310
   32  O  2 XY    0.136086   0.000000  -0.261535   0.000000  -0.136205
   33  O  2 XZ    0.000000   0.278965   0.000000   0.085042   0.000000
   34  O  2 YZ    0.000000  -0.650184   0.000000   0.707199   0.000000
   35  O  3  S    0.079126   0.000000   0.000393   0.000000  -0.006658
   36  O  3  S   -1.105224   0.000000  -0.005778   0.000000   0.092234
   37  O  3  S    1.241333   0.000000   0.004554   0.000000  -0.061350
   38  O  3  X   -0.385609   0.000000   0.006482   0.000000   0.059701
   39  O  3  Y    0.133096   0.000000   0.011173   0.000000  -0.013625
   40  O  3  Z    0.000000  -0.008241   0.000000   0.029597   0.000000
   41  O  3  X    0.538910   0.000000  -0.021266   0.000000  -0.056008
   42  O  3  Y    0.013361   0.000000  -0.018351   0.000000   0.007661
   43  O  3  Z    0.000000   0.016331   0.000000  -0.053000   0.000000
   44  O  3 XX   -0.124557   0.000000  -0.103590   0.000000  -0.016626
   45  O  3 YY    0.129398   0.000000  -0.510492   0.000000   0.610935
   46  O  3 ZZ   -0.004841   0.000000   0.614081   0.000000  -0.594309
   47  O  3 XY   -0.136111   0.000000  -0.261535   0.000000   0.136206
   48  O  3 XZ    0.000000   0.278965   0.000000  -0.085042   0.000000
   49  O  3 YZ    0.000000   0.650184   0.000000   0.707199   0.000000

                     41         42         43         44         45
                    2.2172     2.4116     2.4985     2.5804     2.8893
                     A          A          A          A          A   
    1  S  1  S    0.000000  -0.001290  -0.000000   0.000000   0.046792
    2  S  1  S    0.000000   0.034165   0.000001   0.000000  -0.458774
    3  S  1  S    0.000000  -0.431826  -0.000006   0.000000   2.116384
    4  S  1  S    0.000000  -0.283271  -0.000001   0.000000   1.049982
    5  S  1  X    0.000000  -0.000001   0.030041   0.000000  -0.000005
    6  S  1  Y    0.000000   0.094653   0.000000   0.000000  -0.051103
    7  S  1  Z    0.092762   0.000000   0.000000  -0.000000   0.000000
    8  S  1  X    0.000000   0.000006  -0.370635   0.000000   0.000037
    9  S  1  Y    0.000000  -0.530081  -0.000001   0.000000   0.507045
   10  S  1  Z   -0.436944   0.000000   0.000000   0.000000   0.000000
   11  S  1  X    0.000000  -0.000004  -0.091181   0.000000   0.000003
   12  S  1  Y    0.000000  -0.135505   0.000000   0.000000   0.027987
   13  S  1  Z   -0.047140   0.000000   0.000000  -0.000000   0.000000
   14  S  1 XX    0.000000   0.418226  -0.000002   0.000000   1.136993
   15  S  1 YY    0.000000  -0.385107   0.000001   0.000000  -0.552892
   16  S  1 ZZ    0.000000  -0.033119   0.000001   0.000000  -0.584101
   17  S  1 XY    0.000000   0.000001   0.701479   0.000000   0.000013
   18  S  1 XZ    0.000000   0.000000   0.000000   0.798506   0.000000
   19  S  1 YZ   -0.246651   0.000000   0.000000   0.000000   0.000000
   20  O  2  S    0.000000   0.019667   0.012658   0.000000   0.021912
   21  O  2  S    0.000000  -0.427967  -0.303922   0.000000   0.327962
   22  O  2  S    0.000000   0.570280   0.422478   0.000000  -1.712326
   23  O  2  X    0.000000   0.169833   0.109937   0.000000   0.304983
   24  O  2  Y    0.000000  -0.003781   0.023892   0.000000   0.112717
   25  O  2  Z   -0.072244   0.000000   0.000000  -0.027023   0.000000
   26  O  2  X    0.000000  -0.385745  -0.157416   0.000000   0.921784
   27  O  2  Y    0.000000   0.202268  -0.305446   0.000000   0.305942
   28  O  2  Z    0.224325   0.000000   0.000000  -0.266654   0.000000
   29  O  2 XX    0.000000   0.475965  -0.203876   0.000000  -0.738434
   30  O  2 YY    0.000000  -0.311677   0.361550   0.000000   0.263726
   31  O  2 ZZ    0.000000  -0.164288  -0.157673   0.000000   0.474708
   32  O  2 XY    0.000000  -0.569485   0.699443   0.000000  -0.581527
   33  O  2 XZ   -0.743983   0.000000   0.000000   0.762553   0.000000
   34  O  2 YZ    0.075265   0.000000   0.000000   0.310539   0.000000
   35  O  3  S    0.000000   0.019667  -0.012658   0.000000   0.021912
   36  O  3  S    0.000000  -0.427966   0.303920   0.000000   0.327953
   37  O  3  S    0.000000   0.570281  -0.422471   0.000000  -1.712274
   38  O  3  X    0.000000  -0.169833   0.109938   0.000000  -0.304974
   39  O  3  Y    0.000000  -0.003781  -0.023892   0.000000   0.112716
   40  O  3  Z   -0.072244   0.000000   0.000000   0.027023   0.000000
   41  O  3  X    0.000000   0.385751  -0.157411   0.000000  -0.921754
   42  O  3  Y    0.000000   0.202267   0.305444   0.000000   0.305937
   43  O  3  Z    0.224325   0.000000   0.000000   0.266654   0.000000
   44  O  3 XX    0.000000   0.475972   0.203882   0.000000  -0.738402
   45  O  3 YY    0.000000  -0.311680  -0.361552   0.000000   0.263708
   46  O  3 ZZ    0.000000  -0.164292   0.157670   0.000000   0.474694
   47  O  3 XY    0.000000   0.569481   0.699441   0.000000   0.581522
   48  O  3 XZ    0.743983   0.000000   0.000000   0.762553   0.000000
   49  O  3 YZ    0.075265   0.000000   0.000000  -0.310539   0.000000

                     46
                    2.9586
                     A   
    1  S  1  S   -0.000001
    2  S  1  S    0.000008
    3  S  1  S   -0.000034
    4  S  1  S   -0.000018
    5  S  1  X   -0.261338
    6  S  1  Y    0.000001
    7  S  1  Z    0.000000
    8  S  1  X    2.232867
    9  S  1  Y   -0.000007
   10  S  1  Z    0.000000
   11  S  1  X    0.153713
   12  S  1  Y    0.000000
   13  S  1  Z    0.000000
   14  S  1 XX   -0.000024
   15  S  1 YY    0.000012
   16  S  1 ZZ    0.000012
   17  S  1 XY    0.590470
   18  S  1 XZ    0.000000
   19  S  1 YZ    0.000000
   20  O  2  S    0.018507
   21  O  2  S    0.416186
   22  O  2  S   -1.712998
   23  O  2  X    0.211368
   24  O  2  Y    0.018432
   25  O  2  Z    0.000000
   26  O  2  X    0.991184
   27  O  2  Y    0.228225
   28  O  2  Z    0.000000
   29  O  2 XX   -0.884730
   30  O  2 YY    0.467613
   31  O  2 ZZ    0.417116
   32  O  2 XY   -0.240686
   33  O  2 XZ    0.000000
   34  O  2 YZ    0.000000
   35  O  3  S   -0.018508
   36  O  3  S   -0.416189
   37  O  3  S    1.713051
   38  O  3  X    0.211382
   39  O  3  Y   -0.018437
   40  O  3  Z    0.000000
   41  O  3  X    0.991211
   42  O  3  Y   -0.228237
   43  O  3  Z    0.000000
   44  O  3 XX    0.884752
   45  O  3 YY   -0.467620
   46  O  3 ZZ   -0.417132
   47  O  3 XY   -0.240710
   48  O  3 XZ    0.000000
   49  O  3 YZ    0.000000
 ...... END OF RHF CALCULATION ......
 STEP CPU TIME =     2.30 TOTAL CPU TIME =          2.4 (      0.0 MIN)
 TOTAL WALL CLOCK TIME=          2.5 SECONDS, CPU UTILIZATION IS    97.98%

     ---------------------------------------------------------------------
     PROPERTIES FOR THE PBE      DFT FUNCTIONAL (RHF  TYPE) DENSITY MATRIX
     ---------------------------------------------------------------------

          -----------------
          ENERGY COMPONENTS
          -----------------

         WAVEFUNCTION NORMALIZATION =       1.0000000000

                ONE ELECTRON ENERGY =    -988.5511018680
                TWO ELECTRON ENERGY =     322.7639379020
           NUCLEAR REPULSION ENERGY =     117.6926177298
                                      ------------------
                       TOTAL ENERGY =    -548.0945462362

 ELECTRON-ELECTRON POTENTIAL ENERGY =     322.7639379020
  NUCLEUS-ELECTRON POTENTIAL ENERGY =   -1537.3412943302
   NUCLEUS-NUCLEUS POTENTIAL ENERGY =     117.6926177298
                                      ------------------
             TOTAL POTENTIAL ENERGY =   -1096.8847386984
               TOTAL KINETIC ENERGY =     548.7901924622
                 VIRIAL RATIO (V/T) =       1.9987324004

          ---------------------------------------
          MULLIKEN AND LOWDIN POPULATION ANALYSES
          ---------------------------------------

     ATOMIC MULLIKEN POPULATION IN EACH MOLECULAR ORBITAL

                      1          2          3          4          5

                  2.000000   2.000000   2.000000   2.000000   2.000000

    1             1.999796   0.000716   0.001068   2.001127   1.999478
    2             0.000102   1.001407   0.997701  -0.000564   0.000261
    3             0.000102   0.997877   1.001231  -0.000564   0.000261

                      6          7          8          9         10

                  2.000000   2.000000   2.000000   2.000000   2.000000

    1             2.000012   1.999971   0.782965   0.617604   0.495667
    2            -0.000006   0.000015   0.608514   0.691202   0.752164
    3            -0.000006   0.000015   0.608521   0.691194   0.752169

                     11         12         13         14         15

                  2.000000   2.000000   2.000000   2.000000   2.000000

    1             0.910435   0.877907   0.286458   0.188430   0.188098
    2             0.544783   0.561047   0.856773   0.905785   0.905951
    3             0.544783   0.561047   0.856769   0.905785   0.905951

                     16

                  2.000000

    1             1.392428
    2             0.303786
    3             0.303786

               ----- POPULATIONS IN EACH AO -----
                             MULLIKEN      LOWDIN
              1  S  1  S      1.99977     1.99920
              2  S  1  S      1.99175     1.87718
              3  S  1  S      1.19236     0.57065
              4  S  1  S      0.88460     0.61127
              5  S  1  X      1.99512     1.96105
              6  S  1  Y      1.99493     1.96572
              7  S  1  Z      1.99381     1.95915
              8  S  1  X      0.87454     0.65187
              9  S  1  Y      0.97826     0.87844
             10  S  1  Z      0.80390     0.69539
             11  S  1  X      0.02094     0.19566
             12  S  1  Y      0.11111     0.24005
             13  S  1  Z      0.10160     0.21652
             14  S  1 XX      0.09499     0.44642
             15  S  1 YY      0.30282     0.33743
             16  S  1 ZZ      0.20210     0.32497
             17  S  1 XY      0.18843     0.24249
             18  S  1 XZ      0.01113     0.23416
             19  S  1 YZ      0.00000     0.01072
             20  O  2  S      1.99547     1.97237
             21  O  2  S      0.94446     0.68160
             22  O  2  S      0.79180     0.48347
             23  O  2  X      1.00466     0.97402
             24  O  2  Y      1.04836     1.00779
             25  O  2  Z      0.89980     0.85019
             26  O  2  X      0.30968     0.50682
             27  O  2  Y      0.56266     0.61140
             28  O  2  Z      0.54016     0.57737
             29  O  2 XX      0.00275     0.21661
             30  O  2 YY      0.00908     0.18823
             31  O  2 ZZ      0.00944     0.19023
             32  O  2 XY      0.01012     0.01627
             33  O  2 XZ      0.00048     0.01377
             34  O  2 YZ      0.00000     0.00070
             35  O  3  S      1.99547     1.97237
             36  O  3  S      0.94446     0.68160
             37  O  3  S      0.79180     0.48347
             38  O  3  X      1.00466     0.97402
             39  O  3  Y      1.04836     1.00779
             40  O  3  Z      0.89980     0.85019
             41  O  3  X      0.30968     0.50682
             42  O  3  Y      0.56266     0.61140
             43  O  3  Z      0.54016     0.57737
             44  O  3 XX      0.00275     0.21661
             45  O  3 YY      0.00908     0.18823
             46  O  3 ZZ      0.00944     0.19023
             47  O  3 XY      0.01012     0.01627
             48  O  3 XZ      0.00048     0.01377
             49  O  3 YZ      0.00000     0.00070

          ----- MULLIKEN ATOMIC OVERLAP POPULATIONS -----
          (OFF-DIAGONAL ELEMENTS NEED TO BE MULTIPLIED BY 2)

             1           2           3

    1   15.2117069
    2    0.2652280   7.8401382
    3    0.2652254   0.0235536   7.8401407

          TOTAL MULLIKEN AND LOWDIN ATOMIC POPULATIONS
       ATOM         MULL.POP.    CHARGE          LOW.POP.     CHARGE
    1 S            15.742160    0.257840        15.418346    0.581654
    2 O             8.128920   -0.128920         8.290827   -0.290827
    3 O             8.128920   -0.128920         8.290827   -0.290827

          MULLIKEN SPHERICAL HARMONIC POPULATIONS
       ATOM           S       P       D      F      G      H      I    TOTAL
    1 S             6.07    8.87    0.80   0.00   0.00   0.00   0.00   15.74
    2 O             3.73    4.37    0.03   0.00   0.00   0.00   0.00    8.13
    3 O             3.73    4.37    0.03   0.00   0.00   0.00   0.00    8.13

          -------------------------------
          BOND ORDER AND VALENCE ANALYSIS     BOND ORDER THRESHOLD=0.050
          -------------------------------

                   BOND                       BOND                       BOND
  ATOM PAIR DIST  ORDER      ATOM PAIR DIST  ORDER      ATOM PAIR DIST  ORDER
    1   2  1.300  2.071        1   3  1.300  2.071        2   3  2.511  0.161

                       TOTAL       BONDED        FREE
      ATOM            VALENCE     VALENCE     VALENCE
    1 S                 4.141       4.141      -0.000
    2 O                 2.231       2.231      -0.000
    3 O                 2.231       2.231       0.000

          ---------------------
          ELECTROSTATIC MOMENTS
          ---------------------

 POINT   1           X           Y           Z (BOHR)    CHARGE
                 0.000000   -0.000000    0.000000       -0.00 (A.U.)
         DX          DY          DZ         /D/  (DEBYE)
     0.000004    0.250324    0.000000    0.250324
 ...... END OF PROPERTY EVALUATION ......
 STEP CPU TIME =     0.01 TOTAL CPU TIME =          2.4 (      0.0 MIN)
 TOTAL WALL CLOCK TIME=          2.5 SECONDS, CPU UTILIZATION IS    98.39%
                580000  WORDS OF DYNAMIC MEMORY USED
 EXECUTION OF GAMESS TERMINATED NORMALLY Sun Sep 29 10:43:49 2019
 DDI: 263640 bytes (0.3 MB / 0 MWords) used by master data server.

 ----------------------------------------
 CPU timing information for all processes
 ========================================
 0: 2.371 + 0.80 = 2.452
 ----------------------------------------
 ddikick.x: exited gracefully.
----- accounting info -----
Files used on the master node crcfe02.crc.nd.edu were:
-rw-r--r-- 1 cdrisko campus     208 Sep 29 10:43 /afs/crc.nd.edu/user/c/cdrisko/SO2.F05
-rw-r--r-- 1 cdrisko campus   37566 Sep 29 10:43 /afs/crc.nd.edu/user/c/cdrisko/SO2.F07
-rw-r--r-- 1 cdrisko campus 4320384 Sep 29 10:43 /afs/crc.nd.edu/user/c/cdrisko/SO2.F08
-rw-r--r-- 1 cdrisko campus 1766880 Sep 29 10:43 /afs/crc.nd.edu/user/c/cdrisko/SO2.F10
Sun Sep 29 10:43:52 EDT 2019
0.442u 0.256s 0:06.14 11.2%	0+0k 0+24io 0pf+0w
