   4   4   0   0
  0.1697933E+02  0.4080000E-09  0.4080000E-09  0.4080000E-09  0.5000000E-15
  1.000000000000000E-004
  CAR 
 unknown system                          
     39.58409870     -2.25748302  301      9.44299596      1.00000000
     -2.257  0.0000E+00  0.0000E+00
     -2.118  0.0000E+00  0.0000E+00
     -1.979  0.0000E+00  0.0000E+00
     -1.839  0.0000E+00  0.0000E+00
     -1.700  0.0000E+00  0.0000E+00
     -1.560  0.0000E+00  0.0000E+00
     -1.421  0.0000E+00  0.0000E+00
     -1.281 -0.1862E-37 -0.2597E-38
     -1.142 -0.3691E-27 -0.5148E-28
     -1.002 -0.1448E-18 -0.2020E-19
     -0.863 -0.1065E-11 -0.1485E-12
     -0.723 -0.1484E-06 -0.2070E-07
     -0.584 -0.3321E-03 -0.4635E-04
     -0.444 -0.7210E-03 -0.1469E-03
     -0.305  0.1013E+00  0.1398E-01
     -0.165  0.1542E-01  0.1614E-01
     -0.026 -0.2433E-01  0.1274E-01
      0.114  0.4041E+00  0.6910E-01
      0.253  0.3276E+00  0.1148E+00
      0.392 -0.5904E-01  0.1066E+00
      0.532  0.6256E+00  0.1938E+00
      0.671  0.8361E+00  0.3104E+00
      0.811 -0.7186E-01  0.3004E+00
      0.950  0.7424E+00  0.4039E+00
      1.090  0.2159E+00  0.4341E+00
      1.229 -0.3839E-01  0.4287E+00
      1.369  0.4148E+00  0.4866E+00
      1.508  0.2987E+00  0.5282E+00
      1.648  0.1443E+00  0.5483E+00
      1.787  0.2445E+01  0.8893E+00
      1.927  0.2291E+01  0.1209E+01
      2.066  0.6394E+00  0.1298E+01
      2.206  0.4986E+00  0.1367E+01
      2.345  0.1796E+01  0.1618E+01
      2.485  0.3724E+01  0.2137E+01
      2.624  0.2722E+01  0.2517E+01
      2.764  0.1366E+01  0.2707E+01
      2.903  0.9522E+01  0.4035E+01
      3.042  0.1170E+02  0.5667E+01
      3.182  0.4109E+01  0.6240E+01
      3.321  0.1862E+01  0.6500E+01
      3.461  0.9702E+01  0.7853E+01
      3.600  0.8551E+01  0.9046E+01
      3.740  0.5529E+01  0.9817E+01
      3.879  0.2024E+01  0.1010E+02
      4.019  0.6160E+01  0.1096E+02
      4.158  0.1265E+02  0.1272E+02
      4.298  0.1961E+01  0.1300E+02
      4.437  0.7926E+01  0.1410E+02
      4.577  0.9848E+01  0.1547E+02
      4.716  0.6605E+01  0.1640E+02
      4.856  0.2836E+01  0.1679E+02
      4.995  0.1373E+02  0.1871E+02
      5.135  0.2141E+02  0.2169E+02
      5.274  0.9841E+01  0.2306E+02
      5.413  0.2201E+01  0.2337E+02
      5.553  0.8033E+01  0.2449E+02
      5.692  0.8905E+01  0.2573E+02
      5.832  0.4876E+01  0.2641E+02
      5.971  0.4581E+01  0.2705E+02
      6.111  0.1169E+02  0.2868E+02
      6.250  0.4960E+01  0.2938E+02
      6.390  0.5523E+01  0.3015E+02
      6.529  0.1157E+02  0.3176E+02
      6.669  0.1401E+02  0.3371E+02
      6.808  0.2944E+01  0.3412E+02
      6.948  0.4128E+01  0.3470E+02
      7.087  0.4746E+01  0.3536E+02
      7.227  0.5941E+01  0.3619E+02
      7.366  0.8170E+01  0.3733E+02
      7.506  0.1353E+02  0.3922E+02
      7.645  0.1013E+02  0.4063E+02
      7.784  0.3932E+01  0.4118E+02
      7.924  0.5678E+01  0.4197E+02
      8.063  0.4397E+01  0.4258E+02
      8.203  0.2079E+01  0.4287E+02
      8.342  0.4800E+00  0.4294E+02
      8.482  0.1623E+00  0.4296E+02
      8.621 -0.1155E-01  0.4296E+02
      8.761 -0.2959E-04  0.4296E+02
      8.900 -0.1341E-07  0.4296E+02
      9.040 -0.2592E-03  0.4296E+02
      9.179 -0.8578E-01  0.4295E+02
      9.319  0.1053E+01  0.4309E+02
      9.458  0.6914E+01  0.4406E+02
      9.598  0.1627E+01  0.4429E+02
      9.737  0.1502E+01  0.4450E+02
      9.877  0.1673E+01  0.4473E+02
     10.016  0.1156E+01  0.4489E+02
     10.156 -0.7305E-01  0.4488E+02
     10.295 -0.7081E-03  0.4488E+02
     10.434 -0.1656E-01  0.4488E+02
     10.574  0.1803E+00  0.4490E+02
     10.713  0.2344E+01  0.4523E+02
     10.853  0.1484E+01  0.4544E+02
     10.992  0.4244E+00  0.4550E+02
     11.132  0.1604E+01  0.4572E+02
     11.271  0.1287E+01  0.4590E+02
     11.411 -0.1609E+00  0.4588E+02
     11.550  0.1327E+01  0.4606E+02
     11.690  0.1600E+01  0.4628E+02
     11.829 -0.9284E-01  0.4627E+02
     11.969 -0.1277E+00  0.4625E+02
     12.108  0.1992E+01  0.4653E+02
     12.248  0.5185E+01  0.4726E+02
     12.387 -0.1561E+00  0.4723E+02
     12.527 -0.1095E-01  0.4723E+02
     12.666 -0.4944E-01  0.4723E+02
     12.805  0.6973E+00  0.4732E+02
     12.945  0.2502E+01  0.4767E+02
     13.084  0.2330E+01  0.4800E+02
     13.224  0.6973E+00  0.4809E+02
     13.363  0.6814E+00  0.4819E+02
     13.503  0.1041E+01  0.4833E+02
     13.642  0.1749E+01  0.4858E+02
     13.782  0.4684E+01  0.4923E+02
     13.921  0.8733E+00  0.4935E+02
     14.061 -0.5465E-01  0.4934E+02
     14.200  0.1219E+01  0.4951E+02
     14.340  0.4947E+00  0.4958E+02
     14.479  0.1027E+01  0.4973E+02
     14.619  0.9228E+00  0.4986E+02
     14.758  0.4534E+00  0.4992E+02
     14.898  0.5224E+00  0.4999E+02
     15.037  0.1846E+01  0.5025E+02
     15.177 -0.1094E+00  0.5023E+02
     15.316  0.4218E+00  0.5029E+02
     15.455  0.6044E+01  0.5114E+02
     15.595  0.2209E+01  0.5144E+02
     15.734  0.1266E+01  0.5162E+02
     15.874  0.1550E+01  0.5184E+02
     16.013 -0.9042E-01  0.5182E+02
     16.153 -0.9578E-03  0.5182E+02
     16.292 -0.1265E-03  0.5182E+02
     16.432 -0.4953E-01  0.5182E+02
     16.571  0.5949E+00  0.5190E+02
     16.711  0.4117E+01  0.5247E+02
     16.850  0.8812E+00  0.5260E+02
     16.990  0.1284E+01  0.5278E+02
     17.129  0.1447E+01  0.5298E+02
     17.269 -0.3644E-01  0.5297E+02
     17.408  0.1939E+00  0.5300E+02
     17.548  0.4045E+01  0.5356E+02
     17.687  0.3993E+01  0.5412E+02
     17.826  0.4950E+00  0.5419E+02
     17.966  0.4849E+01  0.5487E+02
     18.105  0.1347E+01  0.5505E+02
     18.245  0.1699E+01  0.5529E+02
     18.384  0.1576E+00  0.5531E+02
     18.524  0.4750E+00  0.5538E+02
     18.663 -0.3059E-01  0.5538E+02
     18.803  0.3623E-01  0.5538E+02
     18.942  0.1239E+01  0.5555E+02
     19.082  0.1276E+01  0.5573E+02
     19.221  0.2330E+00  0.5576E+02
     19.361  0.1221E+01  0.5593E+02
     19.500  0.1969E+00  0.5596E+02
     19.640  0.4990E+00  0.5603E+02
     19.779  0.1837E+01  0.5629E+02
     19.919  0.5363E+01  0.5704E+02
     20.058  0.1380E+01  0.5723E+02
     20.197  0.3534E+01  0.5772E+02
     20.337  0.6014E+01  0.5856E+02
     20.476  0.3192E+01  0.5900E+02
     20.616  0.3680E+01  0.5952E+02
     20.755 -0.1858E+00  0.5949E+02
     20.895  0.1747E+01  0.5974E+02
     21.034  0.1165E+01  0.5990E+02
     21.174 -0.2126E+00  0.5987E+02
     21.313  0.2977E+01  0.6028E+02
     21.453  0.1338E+01  0.6047E+02
     21.592  0.6118E+00  0.6056E+02
     21.732  0.2153E+01  0.6086E+02
     21.871  0.8865E-01  0.6087E+02
     22.011  0.5460E+01  0.6163E+02
     22.150  0.6556E+01  0.6254E+02
     22.290  0.2719E+00  0.6258E+02
     22.429 -0.5064E-01  0.6257E+02
     22.569 -0.2879E-01  0.6257E+02
     22.708  0.2715E+01  0.6295E+02
     22.847  0.4411E+01  0.6356E+02
     22.987  0.3613E+01  0.6407E+02
     23.126 -0.1410E+00  0.6405E+02
     23.266 -0.6702E-02  0.6405E+02
     23.405 -0.2311E-01  0.6404E+02
     23.545  0.4864E+00  0.6411E+02
     23.684  0.3842E+00  0.6417E+02
     23.824  0.2573E+01  0.6452E+02
     23.963  0.6917E+01  0.6549E+02
     24.103  0.2460E+01  0.6583E+02
     24.242  0.7358E+01  0.6686E+02
     24.382  0.3727E+01  0.6738E+02
     24.521  0.1655E+01  0.6761E+02
     24.661  0.1565E+01  0.6783E+02
     24.800  0.1953E+01  0.6810E+02
     24.940  0.9450E+00  0.6823E+02
     25.079 -0.1120E+00  0.6822E+02
     25.218  0.7352E+00  0.6832E+02
     25.358  0.2992E+01  0.6874E+02
     25.497  0.5125E+01  0.6945E+02
     25.637  0.1781E+01  0.6970E+02
     25.776  0.2440E+01  0.7004E+02
     25.916  0.2548E+01  0.7040E+02
     26.055  0.5078E+01  0.7110E+02
     26.195  0.2450E+01  0.7145E+02
     26.334  0.4606E+00  0.7151E+02
     26.474  0.2395E+01  0.7184E+02
     26.613  0.1131E+01  0.7200E+02
     26.753  0.9688E+00  0.7214E+02
     26.892  0.3672E+01  0.7265E+02
     27.032  0.2484E+01  0.7299E+02
     27.171  0.6414E+00  0.7308E+02
     27.311  0.4036E+01  0.7365E+02
     27.450  0.5069E+01  0.7435E+02
     27.590  0.4757E+01  0.7502E+02
     27.729  0.4411E+01  0.7563E+02
     27.868  0.5264E+01  0.7637E+02
     28.008 -0.1976E+00  0.7634E+02
     28.147  0.3035E+00  0.7638E+02
     28.287 -0.8238E-01  0.7637E+02
     28.426  0.2227E+01  0.7668E+02
     28.566  0.4083E+01  0.7725E+02
     28.705  0.4421E+01  0.7787E+02
     28.845  0.4499E+01  0.7849E+02
     28.984  0.4469E+00  0.7856E+02
     29.124  0.5815E+00  0.7864E+02
     29.263  0.2402E+01  0.7897E+02
     29.403  0.3237E+01  0.7942E+02
     29.542  0.6246E+01  0.8030E+02
     29.682  0.2814E+00  0.8033E+02
     29.821  0.7958E+00  0.8045E+02
     29.961  0.1667E+01  0.8068E+02
     30.100  0.3230E+00  0.8072E+02
     30.239 -0.2883E-01  0.8072E+02
     30.379 -0.1274E+00  0.8070E+02
     30.518  0.2809E+01  0.8109E+02
     30.658  0.3256E+01  0.8155E+02
     30.797  0.1020E+01  0.8169E+02
     30.937 -0.1519E+00  0.8167E+02
     31.076  0.1212E+01  0.8184E+02
     31.216  0.2698E+01  0.8221E+02
     31.355  0.5001E+01  0.8291E+02
     31.495  0.3189E+01  0.8336E+02
     31.634  0.2161E+01  0.8366E+02
     31.774  0.4399E+00  0.8372E+02
     31.913  0.1495E+01  0.8393E+02
     32.053  0.3678E+01  0.8444E+02
     32.192  0.1872E+01  0.8470E+02
     32.332 -0.9919E-01  0.8469E+02
     32.471 -0.1544E-01  0.8469E+02
     32.611  0.1207E+01  0.8485E+02
     32.750  0.1588E+00  0.8488E+02
     32.889  0.4214E+00  0.8493E+02
     33.029  0.5050E+01  0.8564E+02
     33.168  0.2438E+01  0.8598E+02
     33.308  0.1665E+01  0.8621E+02
     33.447  0.6359E+01  0.8710E+02
     33.587  0.5495E+01  0.8786E+02
     33.726  0.2529E+01  0.8822E+02
     33.866  0.3144E+01  0.8866E+02
     34.005  0.1418E+01  0.8885E+02
     34.145  0.2421E+01  0.8919E+02
     34.284  0.3171E+01  0.8963E+02
     34.424  0.7148E+00  0.8973E+02
     34.563  0.3877E+01  0.9027E+02
     34.703  0.4295E+00  0.9033E+02
     34.842  0.3767E+00  0.9039E+02
     34.982  0.8000E+01  0.9150E+02
     35.121  0.5212E+01  0.9223E+02
     35.260  0.5466E+01  0.9299E+02
     35.400  0.2681E+01  0.9337E+02
     35.539  0.2636E+01  0.9373E+02
     35.679  0.4366E+01  0.9434E+02
     35.818 -0.1198E+00  0.9433E+02
     35.958  0.4005E+01  0.9488E+02
     36.097  0.5224E+01  0.9561E+02
     36.237  0.2474E+01  0.9596E+02
     36.376 -0.1565E+00  0.9594E+02
     36.516 -0.1342E-02  0.9594E+02
     36.655 -0.4486E-06  0.9594E+02
     36.795 -0.7992E-03  0.9594E+02
     36.934 -0.5423E-02  0.9594E+02
     37.074  0.2963E+00  0.9598E+02
     37.213  0.5848E-01  0.9598E+02
     37.353 -0.4362E-02  0.9598E+02
     37.492 -0.1249E-02  0.9598E+02
     37.631  0.1570E-01  0.9599E+02
     37.771  0.1013E+00  0.9600E+02
     37.910 -0.7210E-03  0.9600E+02
     38.050 -0.3321E-03  0.9600E+02
     38.189 -0.1484E-06  0.9600E+02
     38.329 -0.1065E-11  0.9600E+02
     38.468  0.0000E+00  0.9600E+02
     38.608  0.0000E+00  0.9600E+02
     38.747  0.0000E+00  0.9600E+02
     38.887  0.0000E+00  0.9600E+02
     39.026  0.0000E+00  0.9600E+02
     39.166  0.0000E+00  0.9600E+02
     39.305  0.0000E+00  0.9600E+02
     39.445  0.0000E+00  0.9600E+02
     39.584  0.0000E+00  0.9600E+02
