    4    4    1    1
  0.1697933E+02  0.4080000E-09  0.4080000E-09  0.4080000E-09  0.5000000E-15
  1.000000000000000E-004
  CAR 
 unknown system                          
     44     10     48
 
  0.0000000E+00  0.0000000E+00  0.0000000E+00  0.8000000E-02
    1       -0.355593   1.000000
    2        2.451401   1.000000
    3        2.451401   1.000000
    4        2.451401   1.000000
    5        2.770707   1.000000
    6        2.770707   1.000000
    7        2.770707   1.000000
    8        4.845187   1.000000
    9        4.845187   1.000000
   10        4.845187   1.000000
   11        6.373693   1.000000
   12        6.373693   1.000000
   13        7.538700   1.000000
   14        7.538700   1.000000
   15        7.538700   1.000000
   16        7.907372   1.000000
   17        7.907372   1.000000
   18        7.907372   1.000000
   19        7.907372   1.000000
   20        7.907372   1.000000
   21        7.907372   1.000000
   22       10.551309  -0.000000
   23       10.551309  -0.000000
   24       10.551309  -0.000000
   25       15.353483   0.000000
   26       15.353483   0.000000
   27       15.353483   0.000000
   28       19.559964   0.000000
   29       19.559964   0.000000
   30       19.559964   0.000000
   31       19.559964   0.000000
   32       19.559964   0.000000
   33       19.559964   0.000000
   34       24.056936   0.000000
   35       26.795628   0.000000
   36       26.795628   0.000000
   37       26.795628   0.000000
   38       28.076212   0.000000
   39       28.076212   0.000000
   40       28.076212   0.000000
   41       29.415468   0.000000
   42       29.415468   0.000000
   43       29.415468   0.000000
   44       32.991326   0.000000
   45       37.028354   0.000000
   46       37.028365   0.000000
   47       37.028415   0.000000
   48       37.682209   0.000000
 
  0.2000000E+00  0.0000000E+00  0.0000000E+00  0.4800000E-01
    1        0.107247   1.000000
    2        2.590030   1.000000
    3        2.753410   1.000000
    4        2.753410   1.000000
    5        2.939299   1.000000
    6        3.030491   1.000000
    7        3.030491   1.000000
    8        4.609485   1.000000
    9        5.054954   1.000000
   10        5.054954   1.000000
   11        6.123755   1.000000
   12        6.476251   1.000000
   13        6.680972   1.000000
   14        6.680972   1.000000
   15        7.174432   1.000000
   16        7.174432   1.000000
   17        7.417515   1.000000
   18        7.479623   1.000000
   19        7.479623   1.000000
   20        7.907986   1.000000
   21        7.907986   1.000000
   22        8.307806   1.000000
   23       12.094417  -0.000000
   24       12.094417  -0.000000
   25       14.931511   0.000000
   26       14.931511   0.000000
   27       18.403252   0.000000
   28       18.877684   0.000000
   29       18.877684   0.000000
   30       19.303032   0.000000
   31       19.303032   0.000000
   32       20.507628   0.000000
   33       20.507628   0.000000
   34       24.619127   0.000000
   35       26.466823   0.000000
   36       26.894606   0.000000
   37       27.724578   0.000000
   38       27.724578   0.000000
   39       28.610211   0.000000
   40       28.610211   0.000000
   41       28.966159   0.000000
   42       29.808736   0.000000
   43       29.808736   0.000000
   44       35.068680   0.000000
   45       35.068681   0.000000
   46       35.081273   0.000000
   47       36.086626   0.000000
   48       36.096663   0.000000
 
  0.4000000E+00  0.0000000E+00  0.0000000E+00  0.4800000E-01
    1        1.360691   1.000000
    2        2.559522   1.000000
    3        3.404857   1.000000
    4        3.407917   1.000000
    5        3.407917   1.000000
    6        3.802195   1.000000
    7        3.802195   1.000000
    8        4.037982   1.000000
    9        5.054569   1.000000
   10        5.054569   1.000000
   11        5.611600   1.000000
   12        5.659388   1.000000
   13        5.659388   1.000000
   14        5.923338   1.000000
   15        6.393949   1.000000
   16        6.393949   1.000000
   17        6.557246   1.000000
   18        6.557246   1.000000
   19        6.752490   1.000000
   20        7.111358   1.000000
   21        7.909130   1.000000
   22        7.909130   1.000000
   23       14.371971   0.000000
   24       14.371971   0.000000
   25       14.598715   0.000000
   26       14.598715   0.000000
   27       17.045570   0.000000
   28       17.045570   0.000000
   29       19.036043   0.000000
   30       19.036043   0.000000
   31       22.904664   0.000000
   32       22.904664   0.000000
   33       23.520286   0.000000
   34       25.816204   0.000000
   35       25.816204   0.000000
   36       25.835177   0.000000
   37       25.990051   0.000000
   38       26.047005   0.000000
   39       27.715404   0.000000
   40       29.509147   0.000000
   41       31.163737   0.000000
   42       31.163737   0.000000
   43       32.561423   0.000000
   44       32.561423   0.000000
   45       33.507253   0.000000
   46       33.507253   0.000000
   47       34.518143   0.000000
   48       34.518143   0.000000
 
  0.2000000E+00  0.2000000E+00  0.0000000E+00  0.9600000E-01
    1        0.540724   1.000000
    2        2.893281   1.000000
    3        2.910520   1.000000
    4        2.910520   1.000000
    5        3.179741   1.000000
    6        3.179741   1.000000
    7        3.375528   1.000000
    8        4.545462   1.000000
    9        5.129048   1.000000
   10        5.142390   1.000000
   11        6.002481   1.000000
   12        6.002481   1.000000
   13        6.086274   1.000000
   14        6.177392   1.000000
   15        6.514788   1.000000
   16        6.916351   1.000000
   17        7.187591   1.000000
   18        7.187591   1.000000
   19        7.474876   1.000000
   20        7.474876   1.000000
   21        7.612890   1.000000
   22        9.863893  -0.000000
   23        9.863893  -0.000000
   24       13.226204   0.000000
   25       14.142736   0.000000
   26       17.441634   0.000000
   27       17.538470   0.000000
   28       17.538470   0.000000
   29       19.766299   0.000000
   30       19.766299   0.000000
   31       20.525083   0.000000
   32       20.525083   0.000000
   33       21.296888   0.000000
   34       24.741185   0.000000
   35       24.807902   0.000000
   36       27.470494   0.000000
   37       27.548320   0.000000
   38       28.393708   0.000000
   39       28.393708   0.000000
   40       29.488207   0.000000
   41       29.488207   0.000000
   42       29.928461   0.000000
   43       31.312631   0.000000
   44       31.928518   0.000000
   45       35.154688   0.000000
   46       36.003182   0.000000
   47       36.075913   0.000000
   48       36.080421   0.000000
 
  0.4000000E+00  0.2000000E+00  0.0000000E+00  0.1920000E+00
    1        1.713869   1.000000
    2        2.897294   1.000000
    3        3.435901   1.000000
    4        3.587391   1.000000
    5        3.640161   1.000000
    6        3.884599   1.000000
    7        4.000564   1.000000
    8        4.124796   1.000000
    9        4.585403   1.000000
   10        4.979451   1.000000
   11        5.050629   1.000000
   12        5.155620   1.000000
   13        5.663945   1.000000
   14        5.979874   1.000000
   15        6.331811   1.000000
   16        6.495660   1.000000
   17        6.549085   1.000000
   18        6.643946   1.000000
   19        7.017705   1.000000
   20        7.465542   1.000000
   21        7.476096   1.000000
   22        7.918269   1.000000
   23       11.555863  -0.000000
   24       12.837296   0.000000
   25       15.487056   0.000000
   26       16.604731   0.000000
   27       16.690852   0.000000
   28       17.876054   0.000000
   29       20.414074   0.000000
   30       20.882637   0.000000
   31       21.625109   0.000000
   32       21.924016   0.000000
   33       22.680844   0.000000
   34       23.926815   0.000000
   35       24.180693   0.000000
   36       27.456520   0.000000
   37       27.600015   0.000000
   38       28.497469   0.000000
   39       28.599907   0.000000
   40       28.734570   0.000000
   41       30.486223   0.000000
   42       31.086226   0.000000
   43       31.337312   0.000000
   44       33.126953   0.000000
   45       33.677448   0.000000
   46       34.908549   0.000000
   47       35.224259   0.000000
   48       35.305051   0.000000
 
  0.4000000E+00  0.4000000E+00  0.0000000E+00  0.9600000E-01
    1        2.612455   1.000000
    2        3.552508   1.000000
    3        3.596799   1.000000
    4        3.596799   1.000000
    5        4.078845   1.000000
    6        4.078845   1.000000
    7        4.211227   1.000000
    8        4.384458   1.000000
    9        4.384458   1.000000
   10        4.423376   1.000000
   11        4.653825   1.000000
   12        4.943981   1.000000
   13        5.732038   1.000000
   14        5.884770   1.000000
   15        6.000218   1.000000
   16        6.137875   1.000000
   17        6.137875   1.000000
   18        6.578407   1.000000
   19        6.578407   1.000000
   20        6.837328   1.000000
   21        7.976267   1.000000
   22        9.340695   1.027354
   23        9.340695   1.027354
   24       10.838573  -0.000000
   25       16.941475   0.000000
   26       17.510045   0.000000
   27       18.117054   0.000000
   28       18.117054   0.000000
   29       19.846635   0.000000
   30       19.846635   0.000000
   31       20.096940   0.000000
   32       22.127452   0.000000
   33       24.502201   0.000000
   34       24.502201   0.000000
   35       25.418694   0.000000
   36       26.191378   0.000000
   37       26.741220   0.000000
   38       29.175942   0.000000
   39       29.175942   0.000000
   40       29.325084   0.000000
   41       30.518279   0.000000
   42       30.643367   0.000000
   43       30.643367   0.000000
   44       33.253115   0.000000
   45       35.103909   0.000000
   46       35.137950   0.000000
   47       35.621308   0.000000
   48       36.109968   0.000000
 
  0.2000000E+00  0.2000000E+00  0.2000000E+00  0.6400000E-01
    1        0.914819   1.000000
    2        2.982021   1.000000
    3        2.982021   1.000000
    4        2.982021   1.000000
    5        3.560954   1.000000
    6        3.560954   1.000000
    7        3.560954   1.000000
    8        4.602405   1.000000
    9        5.131335   1.000000
   10        5.131335   1.000000
   11        5.656791   1.000000
   12        5.656791   1.000000
   13        5.656791   1.000000
   14        6.369480   1.000000
   15        6.369480   1.000000
   16        6.475423   1.000000
   17        6.475423   1.000000
   18        6.475423   1.000000
   19        7.705488   1.000000
   20        7.705488   1.000000
   21        7.705488   1.000000
   22       10.674906  -0.000000
   23       10.674906  -0.000000
   24       10.674906  -0.000000
   25       15.738067   0.000000
   26       15.738067   0.000000
   27       15.738067   0.000000
   28       19.908439   0.000000
   29       19.908439   0.000000
   30       19.908439   0.000000
   31       21.988986   0.000000
   32       21.988986   0.000000
   33       21.988986   0.000000
   34       22.632656   0.000000
   35       25.253901   0.000000
   36       27.006743   0.000000
   37       27.006743   0.000000
   38       27.006743   0.000000
   39       29.405646   0.000000
   40       29.405646   0.000000
   41       31.412740   0.000000
   42       31.930478   0.000000
   43       31.930478   0.000000
   44       31.930478   0.000000
   45       33.365892   0.000000
   46       33.365892   0.000000
   47       35.903540   0.000000
   48       35.903540   0.000000
 
  0.4000000E+00  0.2000000E+00  0.2000000E+00  0.1920000E+00
    1        1.892995   1.000000
    2        2.850049   1.000000
    3        3.380055   1.000000
    4        3.380055   1.000000
    5        4.048593   1.000000
    6        4.048593   1.000000
    7        4.050755   1.000000
    8        4.432961   1.000000
    9        4.889562   1.000000
   10        4.957387   1.000000
   11        4.957387   1.000000
   12        5.070015   1.000000
   13        5.319018   1.000000
   14        5.802715   1.000000
   15        6.071728   1.000000
   16        6.071728   1.000000
   17        6.573748   1.000000
   18        6.958312   1.000000
   19        7.496935   1.000000
   20        7.496935   1.000000
   21        7.497432   1.000000
   22        8.101669   1.000000
   23       12.148860  -0.000000
   24       12.148860  -0.000000
   25       13.734944   0.000000
   26       13.734944   0.000000
   27       17.901535   0.000000
   28       20.209887   0.000000
   29       20.209887   0.000000
   30       20.263560   0.000000
   31       22.051442   0.000000
   32       22.051442   0.000000
   33       23.923449   0.000000
   34       23.955111   0.000000
   35       25.260003   0.000000
   36       26.448923   0.000000
   37       26.821578   0.000000
   38       27.763403   0.000000
   39       27.763403   0.000000
   40       28.771779   0.000000
   41       31.593340   0.000000
   42       32.076686   0.000000
   43       33.423835   0.000000
   44       33.456951   0.000000
   45       33.456951   0.000000
   46       34.199499   0.000000
   47       34.917170   0.000000
   48       35.916294   0.000000
 
  0.4000000E+00  0.4000000E+00  0.2000000E+00  0.1920000E+00
    1        2.340984   1.000000
    2        2.912572   1.000000
    3        2.912572   1.000000
    4        3.081494   1.000000
    5        4.337654   1.000000
    6        4.481743   1.000000
    7        4.481743   1.000000
    8        4.845540   1.000000
    9        5.078452   1.000000
   10        5.078452   1.000000
   11        5.164766   1.000000
   12        5.178135   1.000000
   13        5.451891   1.000000
   14        5.523287   1.000000
   15        5.533122   1.000000
   16        5.533122   1.000000
   17        6.633761   1.000000
   18        7.252867   1.000000
   19        7.252867   1.000000
   20        7.280445   1.000000
   21        7.792820   1.000000
   22        9.396275   0.851560
   23        9.396275   0.851560
   24       11.124534  -0.000000
   25       13.517980   0.000000
   26       15.379429   0.000000
   27       15.379429   0.000000
   28       17.616637   0.000000
   29       21.287365   0.000000
   30       22.837189   0.000000
   31       22.837189   0.000000
   32       24.182295   0.000000
   33       24.251126   0.000000
   34       24.251126   0.000000
   35       25.473220   0.000000
   36       25.476910   0.000000
   37       26.047890   0.000000
   38       27.284513   0.000000
   39       27.284513   0.000000
   40       29.424724   0.000000
   41       31.342086   0.000000
   42       32.950995   0.000000
   43       32.950995   0.000000
   44       33.777118   0.000000
   45       34.113865   0.000000
   46       34.980996   0.000000
   47       35.543466   0.000000
   48       35.544074   0.000000
 
  0.4000000E+00  0.4000000E+00  0.4000000E+00  0.6400000E-01
    1        2.185976   1.000000
    2        2.453268   1.000000
    3        2.453268   1.000000
    4        2.453268   1.000000
    5        4.649288   1.000000
    6        4.649288   1.000000
    7        4.649288   1.000000
    8        4.883789   1.000000
    9        4.883789   1.000000
   10        5.021282   1.000000
   11        5.021282   1.000000
   12        5.021282   1.000000
   13        6.393179   1.000000
   14        6.393179   1.000000
   15        6.393179   1.000000
   16        6.905131   1.000000
   17        7.340940   1.000000
   18        7.340940   1.000000
   19        7.598762   1.000000
   20        7.598762   1.000000
   21        7.598762   1.000000
   22        9.605003  -0.022140
   23        9.605003  -0.022140
   24        9.605003  -0.022140
   25       12.998203   0.000000
   26       12.998203   0.000000
   27       12.998203   0.000000
   28       14.933467   0.000000
   29       23.748173   0.000000
   30       23.748173   0.000000
   31       23.748173   0.000000
   32       23.847611   0.000000
   33       25.739648   0.000000
   34       25.739648   0.000000
   35       25.739648   0.000000
   36       25.975579   0.000000
   37       25.975579   0.000000
   38       25.975579   0.000000
   39       27.378473   0.000000
   40       27.378473   0.000000
   41       33.910629   0.000000
   42       33.910629   0.000000
   43       34.387008   0.000000
   44       34.504489   0.000000
   45       34.504489   0.000000
   46       34.504523   0.000000
   47       34.891007   0.000000
   48       34.891007   0.000000
