       N       E                     dE             d eps       ncg     rms          rms(c)
DAV:   1     0.185666511630E+03    0.18567E+03   -0.18908E+04  1008   0.716E+02
DAV:   2    -0.110411069955E+02   -0.19671E+03   -0.18475E+03  1248   0.181E+02
DAV:   3    -0.136464947933E+02   -0.26054E+01   -0.26016E+01  1224   0.206E+01
DAV:   4    -0.136572276082E+02   -0.10733E-01   -0.10733E-01  1416   0.150E+00
DAV:   5    -0.136573241042E+02   -0.96496E-04   -0.96496E-04  1176   0.141E-01    0.192E+01
DAV:   6    -0.126916811491E+02    0.96564E+00   -0.17522E+00  1224   0.655E+00    0.124E+01
DAV:   7    -0.126260142787E+02    0.65667E-01   -0.16469E-01  1320   0.199E+00    0.506E+00
DAV:   8    -0.126182483316E+02    0.77659E-02   -0.70264E-03  1176   0.365E-01    0.304E-01
DAV:   9    -0.126182056981E+02    0.42633E-04   -0.32113E-04  1344   0.853E-02
   1 F= -.12618206E+02 E0= -.12617819E+02  d E =-.115965E-02
