 vasp.5.4.1 05Feb16 (build Feb 08 2018 09:21:51) complex                        
  
 executed on             LinuxIFC date 2019.11.21  13:19:15
 running on   24 total cores
 distrk:  each k-point on   24 cores,    1 groups
 distr:  one band on NCORES_PER_BAND=   1 cores,   24 groups


--------------------------------------------------------------------------------------------------------


 INCAR:
 POTCAR:    PAW_PBE Au 04Oct2007                  

 ----------------------------------------------------------------------------- 
|                                                                             |
|           W    W    AA    RRRRR   N    N  II  N    N   GGGG   !!!           |
|           W    W   A  A   R    R  NN   N  II  NN   N  G    G  !!!           |
|           W    W  A    A  R    R  N N  N  II  N N  N  G       !!!           |
|           W WW W  AAAAAA  RRRRR   N  N N  II  N  N N  G  GGG   !            |
|           WW  WW  A    A  R   R   N   NN  II  N   NN  G    G                |
|           W    W  A    A  R    R  N    N  II  N    N   GGGG   !!!           |
|                                                                             |
|      For optimal performance we recommend to set                            |
|        NCORE= 4 - approx SQRT( number of cores)                             |
|      NCORE specifies how many cores store one orbital (NPAR=cpu/NCORE).     |
|      This setting can  greatly improve the performance of VASP for DFT.     |
|      The default, NPAR=number of cores might be grossly inefficient         |
|      on modern multi-core architectures or massively parallel machines.     |
|      Do your own testing !!!!                                               |
|      Unfortunately you need to use the default for GW and RPA calculations. |
|      (for HF NCORE is supported but not extensively tested yet)             |
|                                                                             |
 ----------------------------------------------------------------------------- 

 POTCAR:    PAW_PBE Au 04Oct2007                  
   VRHFIN =Au: s1d10                                                            
   LEXCH  = PE                                                                  
   EATOM  =   926.0867 eV,   68.0654 Ry                                         
                                                                                
   TITEL  = PAW_PBE Au 04Oct2007                                                
   LULTRA =        F    use ultrasoft PP ?                                      
   IUNSCR =        1    unscreen: 0-lin 1-nonlin 2-no                           
   RPACOR =    2.330    partial core radius                                     
   POMASS =  196.966; ZVAL   =   11.000    mass and valenz                      
   RCORE  =    2.500    outmost cutoff radius                                   
   RWIGS  =    2.840; RWIGS  =    1.503    wigner-seitz radius (au A)           
   ENMAX  =  229.943; ENMIN  =  172.457 eV                                      
   ICORE  =        3    local potential                                         
   LCOR   =        T    correct aug charges                                     
   LPAW   =        T    paw PP                                                  
   EAUG   =  356.670                                                            
   DEXC   =    0.000                                                            
   RMAX   =    2.562    core radius for proj-oper                               
   RAUG   =    1.300    factor for augmentation sphere                          
   RDEP   =    2.598    radius for radial grids                                 
   RDEPT  =    2.193    core radius for aug-charge                              
                                                                                
   Atomic configuration                                                         
   16 entries                                                                   
     n  l   j            E        occ.                                          
     1  0  0.50    -80748.5001   2.0000                                         
     2  0  0.50    -14244.7466   2.0000                                         
     2  1  1.50    -12310.9591   6.0000                                         
     3  0  0.50     -3362.1768   2.0000                                         
     3  1  1.50     -2801.5463   6.0000                                         
     3  2  2.50     -2203.8206  10.0000                                         
     4  0  0.50      -729.8168   2.0000                                         
     4  1  1.50      -546.0527   6.0000                                         
     4  2  2.50      -325.7302  10.0000                                         
     4  3  3.50       -81.1472  14.0000                                         
     5  0  0.50      -108.3201   2.0000                                         
     5  1  1.50       -59.7479   6.0000                                         
     5  2  2.50        -6.8783  10.0000                                         
     6  0  0.50        -5.7602   1.0000                                         
     6  1  1.50        -6.8029   0.0000                                         
     5  3  2.50        -1.3606   0.0000                                         
   Description                                                                  
     l       E           TYP  RCUT    TYP  RCUT                                 
     2     -6.8782861     23  2.500                                             
     2     -8.2388687     23  2.500                                             
     0     -5.7601759     23  2.500                                             
     0     -0.8493231     23  2.500                                             
     1     -2.7211652     23  2.500                                             
     1     27.2116520     23  2.500                                             
     3     -1.3605826     23  2.500                                             
  local pseudopotential read in
  partial core-charges read in
  partial kinetic energy density read in
  atomic valenz-charges read in
  non local Contribution for L=           2  read in
    real space projection operators read in
  non local Contribution for L=           2  read in
    real space projection operators read in
  non local Contribution for L=           0  read in
    real space projection operators read in
  non local Contribution for L=           0  read in
    real space projection operators read in
  non local Contribution for L=           1  read in
    real space projection operators read in
  non local Contribution for L=           1  read in
    real space projection operators read in
    PAW grid and wavefunctions read in
 
   number of l-projection  operators is LMAX  =           6
   number of lm-projection operators is LMMAX =          18
 
  PAW_PBE Au 04Oct2007                  :
 energy of atom  1       EATOM= -926.0867
 kinetic energy error for atom=    0.0062 (will be added to EATOM!!)
 
 
 POSCAR: Au                                      
  positions in cartesian coordinates
  No initial velocities read in
 exchange correlation table for  LEXCH =        8
   RHO(1)=    0.500       N(1)  =     2000
   RHO(2)=  100.500       N(2)  =     4000
 


--------------------------------------------------------------------------------------------------------


 ion  position               nearest neighbor table
   1  0.000  0.000  0.000-   2 2.88   3 2.88   4 2.88   2 2.88   3 2.88   2 2.88   4 2.88   2 2.88
                             3 2.88   4 2.88   3 2.88   4 2.88
   2  0.000  0.500  0.500-   1 2.88   3 2.88   4 2.88   1 2.88   4 2.88   1 2.88   3 2.88   1 2.88
                             3 2.88   4 2.88   4 2.88   3 2.88
   3  0.500  0.000  0.500-   1 2.88   2 2.88   4 2.88   1 2.88   4 2.88   2 2.88   4 2.88   4 2.88
                             1 2.88   2 2.88   1 2.88   2 2.88
   4  0.500  0.500  0.000-   1 2.88   2 2.88   3 2.88   2 2.88   3 2.88   1 2.88   3 2.88   3 2.88
                             1 2.88   2 2.88   2 2.88   1 2.88
 
  LATTYP: Found a simple cubic cell.
 ALAT       =     4.0800000000
  
  Lattice vectors:
  
 A1 = (   4.0800000000,   0.0000000000,   0.0000000000)
 A2 = (   0.0000000000,   4.0800000000,   0.0000000000)
 A3 = (   0.0000000000,   0.0000000000,   4.0800000000)


Analysis of symmetry for initial positions (statically):
=====================================================================
 Subroutine PRICEL returns following result:
 
  LATTYP: Found a face centered cubic cell.
 ALAT       =     4.0800000000
  
  Lattice vectors:
  
 A1 = (   2.0400000000,   2.0400000000,   0.0000000000)
 A2 = (   2.0400000000,   0.0000000000,  -2.0400000000)
 A3 = (   0.0000000000,   2.0400000000,  -2.0400000000)
 
   4 primitive cells build up your supercell.
 

 Routine SETGRP: Setting up the symmetry group for a 
 simple cubic supercell.


 Subroutine GETGRP returns: Found 48 space group operations
 (whereof 48 operations were pure point group operations)
 out of a pool of 48 trial point group operations.


The static configuration has the point symmetry O_h .


Analysis of symmetry for dynamics (positions and initial velocities):
=====================================================================
 Subroutine PRICEL returns following result:
 
  LATTYP: Found a face centered cubic cell.
 ALAT       =     4.0800000000
  
  Lattice vectors:
  
 A1 = (   2.0400000000,   2.0400000000,   0.0000000000)
 A2 = (   2.0400000000,   0.0000000000,  -2.0400000000)
 A3 = (   0.0000000000,   2.0400000000,  -2.0400000000)
 
   4 primitive cells build up your supercell.
 

 Routine SETGRP: Setting up the symmetry group for a 
 simple cubic supercell.


 Subroutine GETGRP returns: Found 48 space group operations
 (whereof 48 operations were pure point group operations)
 out of a pool of 48 trial point group operations.


The dynamic configuration has the point symmetry O_h .


 Subroutine INISYM returns: Found 48 space group operations
 (whereof 48 operations are pure point group operations),
 and found     4 'primitive' translations

 
 
 KPOINTS: KPOINTS created by Atomic Simulation Env

Automatic generation of k-mesh.
Space group operators:
 irot       det(A)        alpha          n_x          n_y          n_z        tau_x        tau_y        tau_z
    1     1.000000     0.000001     1.000000     0.000000     0.000000     0.000000     0.000000     0.000000
    2    -1.000000     0.000001     1.000000     0.000000     0.000000     0.000000     0.000000     0.000000
    3     1.000000   120.000000    -0.577350    -0.577350    -0.577350     0.000000     0.000000     0.000000
    4    -1.000000   120.000000    -0.577350    -0.577350    -0.577350     0.000000     0.000000     0.000000
    5     1.000000   120.000000     0.577350     0.577350     0.577350     0.000000     0.000000     0.000000
    6    -1.000000   120.000000     0.577350     0.577350     0.577350     0.000000     0.000000     0.000000
    7     1.000000    90.000000     0.000000     0.000000    -1.000000     0.000000     0.000000     0.000000
    8    -1.000000    90.000000     0.000000     0.000000    -1.000000     0.000000     0.000000     0.000000
    9     1.000000   180.000000     0.000000     0.707107     0.707107     0.000000     0.000000     0.000000
   10    -1.000000   180.000000     0.000000     0.707107     0.707107     0.000000     0.000000     0.000000
   11     1.000000    90.000000     0.000000     1.000000     0.000000     0.000000     0.000000     0.000000
   12    -1.000000    90.000000     0.000000     1.000000     0.000000     0.000000     0.000000     0.000000
   13     1.000000   180.000000     0.000000     0.000000     1.000000     0.000000     0.000000     0.000000
   14    -1.000000   180.000000     0.000000     0.000000     1.000000     0.000000     0.000000     0.000000
   15     1.000000   120.000000    -0.577350     0.577350     0.577350     0.000000     0.000000     0.000000
   16    -1.000000   120.000000    -0.577350     0.577350     0.577350     0.000000     0.000000     0.000000
   17     1.000000   120.000000    -0.577350     0.577350    -0.577350     0.000000     0.000000     0.000000
   18    -1.000000   120.000000    -0.577350     0.577350    -0.577350     0.000000     0.000000     0.000000
   19     1.000000    90.000000     0.000000     0.000000     1.000000     0.000000     0.000000     0.000000
   20    -1.000000    90.000000     0.000000     0.000000     1.000000     0.000000     0.000000     0.000000
   21     1.000000    90.000000    -1.000000     0.000000     0.000000     0.000000     0.000000     0.000000
   22    -1.000000    90.000000    -1.000000     0.000000     0.000000     0.000000     0.000000     0.000000
   23     1.000000   180.000000     0.707107     0.000000     0.707107     0.000000     0.000000     0.000000
   24    -1.000000   180.000000     0.707107     0.000000     0.707107     0.000000     0.000000     0.000000
   25     1.000000   120.000000     0.577350    -0.577350     0.577350     0.000000     0.000000     0.000000
   26    -1.000000   120.000000     0.577350    -0.577350     0.577350     0.000000     0.000000     0.000000
   27     1.000000   120.000000    -0.577350    -0.577350     0.577350     0.000000     0.000000     0.000000
   28    -1.000000   120.000000    -0.577350    -0.577350     0.577350     0.000000     0.000000     0.000000
   29     1.000000   180.000000     1.000000     0.000000     0.000000     0.000000     0.000000     0.000000
   30    -1.000000   180.000000     1.000000     0.000000     0.000000     0.000000     0.000000     0.000000
   31     1.000000    90.000000     0.000000    -1.000000     0.000000     0.000000     0.000000     0.000000
   32    -1.000000    90.000000     0.000000    -1.000000     0.000000     0.000000     0.000000     0.000000
   33     1.000000   180.000000     0.707107     0.707107     0.000000     0.000000     0.000000     0.000000
   34    -1.000000   180.000000     0.707107     0.707107     0.000000     0.000000     0.000000     0.000000
   35     1.000000    90.000000     1.000000     0.000000     0.000000     0.000000     0.000000     0.000000
   36    -1.000000    90.000000     1.000000     0.000000     0.000000     0.000000     0.000000     0.000000
   37     1.000000   120.000000     0.577350    -0.577350    -0.577350     0.000000     0.000000     0.000000
   38    -1.000000   120.000000     0.577350    -0.577350    -0.577350     0.000000     0.000000     0.000000
   39     1.000000   180.000000     0.000000     1.000000     0.000000     0.000000     0.000000     0.000000
   40    -1.000000   180.000000     0.000000     1.000000     0.000000     0.000000     0.000000     0.000000
   41     1.000000   120.000000     0.577350     0.577350    -0.577350     0.000000     0.000000     0.000000
   42    -1.000000   120.000000     0.577350     0.577350    -0.577350     0.000000     0.000000     0.000000
   43     1.000000   180.000000     0.000000    -0.707107     0.707107     0.000000     0.000000     0.000000
   44    -1.000000   180.000000     0.000000    -0.707107     0.707107     0.000000     0.000000     0.000000
   45     1.000000   180.000000     0.707107    -0.707107     0.000000     0.000000     0.000000     0.000000
   46    -1.000000   180.000000     0.707107    -0.707107     0.000000     0.000000     0.000000     0.000000
   47     1.000000   180.000000     0.707107     0.000000    -0.707107     0.000000     0.000000     0.000000
   48    -1.000000   180.000000     0.707107     0.000000    -0.707107     0.000000     0.000000     0.000000
 
 Subroutine IBZKPT returns following result:
 ===========================================
 
 Found     10 irreducible k-points:
 
 Following reciprocal coordinates:
            Coordinates               Weight
  0.000000  0.000000  0.000000      1.000000
  0.200000  0.000000  0.000000      6.000000
  0.400000  0.000000  0.000000      6.000000
  0.200000  0.200000  0.000000     12.000000
  0.400000  0.200000  0.000000     24.000000
  0.400000  0.400000  0.000000     12.000000
  0.200000  0.200000  0.200000      8.000000
  0.400000  0.200000  0.200000     24.000000
  0.400000  0.400000  0.200000     24.000000
  0.400000  0.400000  0.400000      8.000000
 
 Following cartesian coordinates:
            Coordinates               Weight
  0.000000  0.000000  0.000000      1.000000
  0.049020  0.000000  0.000000      6.000000
  0.098039  0.000000  0.000000      6.000000
  0.049020  0.049020  0.000000     12.000000
  0.098039  0.049020  0.000000     24.000000
  0.098039  0.098039  0.000000     12.000000
  0.049020  0.049020  0.049020      8.000000
  0.098039  0.049020  0.049020     24.000000
  0.098039  0.098039  0.049020     24.000000
  0.098039  0.098039  0.098039      8.000000
 


--------------------------------------------------------------------------------------------------------




 Dimension of arrays:
   k-points           NKPTS =     10   k-points in BZ     NKDIM =     10   number of bands    NBANDS=     48
   number of dos      NEDOS =    301   number of ions     NIONS =      4
   non local maximal  LDIM  =      6   non local SUM 2l+1 LMDIM =     18
   total plane-waves  NPLWV =   8000
   max r-space proj   IRMAX =      1   max aug-charges    IRDMAX=   7402
   dimension x,y,z NGX =    20 NGY =   20 NGZ =   20
   dimension x,y,z NGXF=    40 NGYF=   40 NGZF=   40
   support grid    NGXF=    40 NGYF=   40 NGZF=   40
   ions per type =               4
 NGX,Y,Z   is equivalent  to a cutoff of   8.15,  8.15,  8.15 a.u.
 NGXF,Y,Z  is equivalent  to a cutoff of  16.30, 16.30, 16.30 a.u.


 I would recommend the setting:
   dimension x,y,z NGX =    20 NGY =   20 NGZ =   20
 SYSTEM =  unknown system                          
 POSCAR =  Au                                      

 Startparameter for this run:
   NWRITE =      2    write-flag & timer
   PREC   = normal    normal or accurate (medium, high low for compatibility)
   ISTART =      0    job   : 0-new  1-cont  2-samecut
   ICHARG =      2    charge: 1-file 2-atom 10-const
   ISPIN  =      1    spin polarized calculation?
   LNONCOLLINEAR =      F non collinear calculations
   LSORBIT =      F    spin-orbit coupling
   INIWAV =      1    electr: 0-lowe 1-rand  2-diag
   LASPH  =      F    aspherical Exc in radial PAW
   METAGGA=      F    non-selfconsistent MetaGGA calc.

 Electronic Relaxation 1
   ENCUT  =  400.0 eV  29.40 Ry    5.42 a.u.   6.65  6.65  6.65*2*pi/ulx,y,z
   ENINI  =  400.0     initial cutoff
   ENAUG  =  356.7 eV  augmentation charge cutoff
   NELM   =     60;   NELMIN=  2; NELMDL= -5     # of ELM steps 
   EDIFF  = 0.1E-03   stopping-criterion for ELM
   LREAL  =      F    real-space projection
   NLSPLINE    = F    spline interpolate recip. space projectors
   LCOMPAT=      F    compatible to vasp.4.4
   GGA_COMPAT  = T    GGA compatible to vasp.4.4-vasp.4.6
   LMAXPAW     = -100 max onsite density
   LMAXMIX     =    2 max onsite mixed and CHGCAR
   VOSKOWN=      0    Vosko Wilk Nusair interpolation
   ROPT   =    0.00000
 Ionic relaxation
   EDIFFG = 0.1E-02   stopping-criterion for IOM
   NSW    =      0    number of steps for IOM
   NBLOCK =      1;   KBLOCK =      1    inner block; outer block 
   IBRION =     -1    ionic relax: 0-MD 1-quasi-New 2-CG
   NFREE  =      0    steps in history (QN), initial steepest desc. (CG)
   ISIF   =      2    stress and relaxation
   IWAVPR =     10    prediction:  0-non 1-charg 2-wave 3-comb
   ISYM   =      2    0-nonsym 1-usesym 2-fastsym
   LCORR  =      T    Harris-Foulkes like correction to forces

   POTIM  = 0.5000    time-step for ionic-motion
   TEIN   =    0.0    initial temperature
   TEBEG  =    0.0;   TEEND  =   0.0 temperature during run
   SMASS  =  -3.00    Nose mass-parameter (am)
   estimated Nose-frequenzy (Omega)   =  0.10E-29 period in steps =****** mass=  -0.380E-27a.u.
   SCALEE = 1.0000    scale energy and forces
   NPACO  =    256;   APACO  = 16.0  distance and # of slots for P.C.
   PSTRESS=    0.0 pullay stress

  Mass of Ions in am
   POMASS = 196.97
  Ionic Valenz
   ZVAL   =  11.00
  Atomic Wigner-Seitz radii
   RWIGS  =  -1.00
  virtual crystal weights 
   VCA    =   1.00
   NELECT =      44.0000    total number of electrons
   NUPDOWN=      -1.0000    fix difference up-down

 DOS related values:
   EMIN   =  10.00;   EMAX   =-10.00  energy-range for DOS
   EFERMI =   0.00
   ISMEAR =     1;   SIGMA  =   0.10  broadening in eV -4-tet -1-fermi 0-gaus

 Electronic relaxation 2 (details)
   IALGO  =     38    algorithm
   LDIAG  =      T    sub-space diagonalisation (order eigenvalues)
   LSUBROT=      F    optimize rotation matrix (better conditioning)
   TURBO    =      0    0=normal 1=particle mesh
   IRESTART =      0    0=no restart 2=restart with 2 vectors
   NREBOOT  =      0    no. of reboots
   NMIN     =      0    reboot dimension
   EREF     =   0.00    reference energy to select bands
   IMIX   =      4    mixing-type and parameters
     AMIX     =   0.40;   BMIX     =  1.00
     AMIX_MAG =   1.60;   BMIX_MAG =  1.00
     AMIN     =   0.10
     WC   =   100.;   INIMIX=   1;  MIXPRE=   1;  MAXMIX= -45

 Intra band minimization:
   WEIMIN = 0.0000     energy-eigenvalue tresh-hold
   EBREAK =  0.52E-06  absolut break condition
   DEPER  =   0.30     relativ break condition  

   TIME   =   0.40     timestep for ELM

  volume/ion in A,a.u.               =      16.98       114.58
  Fermi-wavevector in a.u.,A,eV,Ry     =   1.416551  2.676893 27.301680  2.006617
  Thomas-Fermi vector in A             =   2.537874
 
 Write flags
   LWAVE  =      F    write WAVECAR
   LCHARG =      F    write CHGCAR
   LVTOT  =      F    write LOCPOT, total local potential
   LVHAR  =      F    write LOCPOT, Hartree potential only
   LELF   =      F    write electronic localiz. function (ELF)
   LORBIT =      0    0 simple, 1 ext, 2 COOP (PROOUT)


 Dipole corrections
   LMONO  =      F    monopole corrections only (constant potential shift)
   LDIPOL =      F    correct potential (dipole corrections)
   IDIPOL =      0    1-x, 2-y, 3-z, 4-all directions 
   EPSILON=  1.0000000 bulk dielectric constant

 Exchange correlation treatment:
   GGA     =    --    GGA type
   LEXCH   =     8    internal setting for exchange type
   VOSKOWN=      0    Vosko Wilk Nusair interpolation
   LHFCALC =     F    Hartree Fock is set to
   LHFONE  =     F    Hartree Fock one center treatment
   AEXX    =    0.0000 exact exchange contribution

 Linear response parameters
   LEPSILON=     F    determine dielectric tensor
   LRPA    =     F    only Hartree local field effects (RPA)
   LNABLA  =     F    use nabla operator in PAW spheres
   LVEL    =     F    velocity operator in full k-point grid
   LINTERFAST=   F  fast interpolation
   KINTER  =     0    interpolate to denser k-point grid
   CSHIFT  =0.1000    complex shift for real part using Kramers Kronig
   OMEGAMAX=  -1.0    maximum frequency
   DEG_THRESHOLD= 0.2000000E-02 threshold for treating states as degnerate
   RTIME   =    0.100 relaxation time in fs

 Orbital magnetization related:
   ORBITALMAG=     F  switch on orbital magnetization
   LCHIMAG   =     F  perturbation theory with respect to B field
   DQ        =  0.001000  dq finite difference perturbation B field



--------------------------------------------------------------------------------------------------------


 Static calculation
 charge density and potential will be updated during run
 non-spin polarized calculation
 Variant of blocked Davidson
 Davidson routine will perform the subspace rotation
 perform sub-space diagonalisation
    after iterative eigenvector-optimisation
 modified Broyden-mixing scheme, WC =      100.0
 initial mixing is a Kerker type mixing with AMIX =  0.4000 and BMIX =      1.0000
 Hartree-type preconditioning will be used
 using additional bands           26
 reciprocal scheme for non local part
 use partial core corrections
 calculate Harris-corrections to forces 
   (improved forces if not selfconsistent)
 use gradient corrections 
 use of overlap-Matrix (Vanderbilt PP)
 Methfessel and Paxton  Order N= 1 SIGMA  =   0.10


--------------------------------------------------------------------------------------------------------


  energy-cutoff  :      400.00
  volume of cell :       67.92
      direct lattice vectors                 reciprocal lattice vectors
     4.080000000  0.000000000  0.000000000     0.245098039  0.000000000  0.000000000
     0.000000000  4.080000000  0.000000000     0.000000000  0.245098039  0.000000000
     0.000000000  0.000000000  4.080000000     0.000000000  0.000000000  0.245098039

  length of vectors
     4.080000000  4.080000000  4.080000000     0.245098039  0.245098039  0.245098039


 
 k-points in units of 2pi/SCALE and weight: KPOINTS created by Atomic Simulation Env
   0.00000000  0.00000000  0.00000000       0.008
   0.04901961  0.00000000  0.00000000       0.048
   0.09803922  0.00000000  0.00000000       0.048
   0.04901961  0.04901961  0.00000000       0.096
   0.09803922  0.04901961  0.00000000       0.192
   0.09803922  0.09803922  0.00000000       0.096
   0.04901961  0.04901961  0.04901961       0.064
   0.09803922  0.04901961  0.04901961       0.192
   0.09803922  0.09803922  0.04901961       0.192
   0.09803922  0.09803922  0.09803922       0.064
 
 k-points in reciprocal lattice and weights: KPOINTS created by Atomic Simulation Env
   0.00000000  0.00000000  0.00000000       0.008
   0.20000000  0.00000000  0.00000000       0.048
   0.40000000  0.00000000  0.00000000       0.048
   0.20000000  0.20000000  0.00000000       0.096
   0.40000000  0.20000000  0.00000000       0.192
   0.40000000  0.40000000  0.00000000       0.096
   0.20000000  0.20000000  0.20000000       0.064
   0.40000000  0.20000000  0.20000000       0.192
   0.40000000  0.40000000  0.20000000       0.192
   0.40000000  0.40000000  0.40000000       0.064
 
 position of ions in fractional coordinates (direct lattice) 
   0.00000000  0.00000000  0.00000000
   0.00000000  0.50000000  0.50000000
   0.50000000  0.00000000  0.50000000
   0.50000000  0.50000000  0.00000000
 
 position of ions in cartesian coordinates  (Angst):
   0.00000000  0.00000000  0.00000000
   0.00000000  2.04000000  2.04000000
   2.04000000  0.00000000  2.04000000
   2.04000000  2.04000000  0.00000000
 


--------------------------------------------------------------------------------------------------------


 k-point  1 :   0.0000 0.0000 0.0000  plane waves:    1237
 k-point  2 :   0.2000 0.0000 0.0000  plane waves:    1261
 k-point  3 :   0.4000 0.0000 0.0000  plane waves:    1218
 k-point  4 :   0.2000 0.2000 0.0000  plane waves:    1245
 k-point  5 :   0.4000 0.2000 0.0000  plane waves:    1228
 k-point  6 :   0.4000 0.4000 0.0000  plane waves:    1228
 k-point  7 :   0.2000 0.2000 0.2000  plane waves:    1232
 k-point  8 :   0.4000 0.2000 0.2000  plane waves:    1246
 k-point  9 :   0.4000 0.4000 0.2000  plane waves:    1224
 k-point 10 :   0.4000 0.4000 0.4000  plane waves:    1235

 maximum and minimum number of plane-waves per node :      1261     1218

 maximum number of plane-waves:      1261
 maximum index in each direction: 
   IXMAX=    6   IYMAX=    6   IZMAX=    6
   IXMIN=   -7   IYMIN=   -7   IZMIN=   -7

 WARNING: aliasing errors must be expected set NGX to  28 to avoid them
 WARNING: aliasing errors must be expected set NGY to  28 to avoid them
 WARNING: aliasing errors must be expected set NGZ to  28 to avoid them
 aliasing errors are usually negligible using standard VASP settings
 and one can safely disregard these warnings

 serial   3D FFT for wavefunctions
 parallel 3D FFT for charge:
    minimum data exchange during FFTs selected (reduces bandwidth)


 total amount of memory used by VASP on root node    33037. kBytes
========================================================================

   base      :      30000. kBytes
   nonl-proj :       1913. kBytes
   fftplans  :        147. kBytes
   grid      :        485. kBytes
   one-center:         62. kBytes
   wavefun   :        430. kBytes
 
     INWAV:  cpu time    0.0000: real time    0.0001
 Broyden mixing: mesh for mixing (old mesh)
   NGX = 13   NGY = 13   NGZ = 13
  (NGX  = 40   NGY  = 40   NGZ  = 40)
  gives a total of   2197 points

 initial charge density was supplied:
 charge density of overlapping atoms calculated
 number of electron      44.0000000 magnetization 
 keeping initial charge density in first step


--------------------------------------------------------------------------------------------------------


 Maximum index for augmentation-charges          437 (set IRDMAX)


--------------------------------------------------------------------------------------------------------


 First call to EWALD:  gamma=   0.434
 Maximum number of real-space cells 3x 3x 3
 Maximum number of reciprocal cells 3x 3x 3

 FEWALD executed in parallel
    FEWALD:  cpu time    0.0025: real time    0.0025


----------------------------------------- Iteration    1(   1)  ---------------------------------------


    POTLOK:  cpu time    0.0079: real time    0.0079
    SETDIJ:  cpu time    0.0033: real time    0.0033
     EDDAV:  cpu time    0.1663: real time    0.1666
       DOS:  cpu time    0.0009: real time    0.0009
    --------------------------------------------
      LOOP:  cpu time    0.1798: real time    0.1876

 eigenvalue-minimisations  :  1008
 total energy-change (2. order) : 0.1856665E+03  (-0.1890839E+04)
 number of electron      44.0000000 magnetization 
 augmentation part       44.0000000 magnetization 

 Free energy of the ion-electron system (eV)
  ---------------------------------------------------
  alpha Z        PSCENC =       274.40333328
  Ewald energy   TEWEN  =     -3915.95376942
  -Hartree energ DENC   =      -494.00614683
  -exchange      EXHF   =         0.00000000
  -V(xc)+E(xc)   XCENC  =        62.70648169
  PAW double counting   =      3496.39001341    -3404.04053930
  entropy T*S    EENTRO =        -0.00338518
  eigenvalues    EBANDS =       461.84844891
  atomic energy  EATOM  =      3704.32207507
  Solvation  Ediel_sol  =         0.00000000
  ---------------------------------------------------
  free energy    TOTEN  =       185.66651163 eV

  energy without entropy =      185.66989681  energy(sigma->0) =      185.66764002


--------------------------------------------------------------------------------------------------------




----------------------------------------- Iteration    1(   2)  ---------------------------------------


     EDDAV:  cpu time    0.2000: real time    0.2003
       DOS:  cpu time    0.0009: real time    0.0009
    --------------------------------------------
      LOOP:  cpu time    0.2022: real time    0.2035

 eigenvalue-minimisations  :  1248
 total energy-change (2. order) :-0.1967076E+03  (-0.1847478E+03)
 number of electron      44.0000000 magnetization 
 augmentation part       44.0000000 magnetization 

 Free energy of the ion-electron system (eV)
  ---------------------------------------------------
  alpha Z        PSCENC =       274.40333328
  Ewald energy   TEWEN  =     -3915.95376942
  -Hartree energ DENC   =      -494.00614683
  -exchange      EXHF   =         0.00000000
  -V(xc)+E(xc)   XCENC  =        62.70648169
  PAW double counting   =      3496.39001341    -3404.04053930
  entropy T*S    EENTRO =        -0.01767944
  eigenvalues    EBANDS =       265.15512454
  atomic energy  EATOM  =      3704.32207507
  Solvation  Ediel_sol  =         0.00000000
  ---------------------------------------------------
  free energy    TOTEN  =       -11.04110700 eV

  energy without entropy =      -11.02342756  energy(sigma->0) =      -11.03521385


--------------------------------------------------------------------------------------------------------




----------------------------------------- Iteration    1(   3)  ---------------------------------------


     EDDAV:  cpu time    0.1884: real time    0.1886
       DOS:  cpu time    0.0005: real time    0.0005
    --------------------------------------------
      LOOP:  cpu time    0.1897: real time    0.1916

 eigenvalue-minimisations  :  1224
 total energy-change (2. order) :-0.2605388E+01  (-0.2601601E+01)
 number of electron      44.0000000 magnetization 
 augmentation part       44.0000000 magnetization 

 Free energy of the ion-electron system (eV)
  ---------------------------------------------------
  alpha Z        PSCENC =       274.40333328
  Ewald energy   TEWEN  =     -3915.95376942
  -Hartree energ DENC   =      -494.00614683
  -exchange      EXHF   =         0.00000000
  -V(xc)+E(xc)   XCENC  =        62.70648169
  PAW double counting   =      3496.39001341    -3404.04053930
  entropy T*S    EENTRO =        -0.01868985
  eigenvalues    EBANDS =       262.55074716
  atomic energy  EATOM  =      3704.32207507
  Solvation  Ediel_sol  =         0.00000000
  ---------------------------------------------------
  free energy    TOTEN  =       -13.64649479 eV

  energy without entropy =      -13.62780494  energy(sigma->0) =      -13.64026484


--------------------------------------------------------------------------------------------------------




----------------------------------------- Iteration    1(   4)  ---------------------------------------


     EDDAV:  cpu time    0.2427: real time    0.2431
       DOS:  cpu time    0.0010: real time    0.0010
    --------------------------------------------
      LOOP:  cpu time    0.2447: real time    0.2519

 eigenvalue-minimisations  :  1416
 total energy-change (2. order) :-0.1073281E-01  (-0.1073261E-01)
 number of electron      44.0000000 magnetization 
 augmentation part       44.0000000 magnetization 

 Free energy of the ion-electron system (eV)
  ---------------------------------------------------
  alpha Z        PSCENC =       274.40333328
  Ewald energy   TEWEN  =     -3915.95376942
  -Hartree energ DENC   =      -494.00614683
  -exchange      EXHF   =         0.00000000
  -V(xc)+E(xc)   XCENC  =        62.70648169
  PAW double counting   =      3496.39001341    -3404.04053930
  entropy T*S    EENTRO =        -0.01869007
  eigenvalues    EBANDS =       262.54001456
  atomic energy  EATOM  =      3704.32207507
  Solvation  Ediel_sol  =         0.00000000
  ---------------------------------------------------
  free energy    TOTEN  =       -13.65722761 eV

  energy without entropy =      -13.63853754  energy(sigma->0) =      -13.65099759


--------------------------------------------------------------------------------------------------------




----------------------------------------- Iteration    1(   5)  ---------------------------------------


     EDDAV:  cpu time    0.1823: real time    0.1825
       DOS:  cpu time    0.0006: real time    0.0006
    CHARGE:  cpu time    0.0084: real time    0.0084
    MIXING:  cpu time    0.0005: real time    0.0005
    --------------------------------------------
      LOOP:  cpu time    0.1929: real time    0.1946

 eigenvalue-minimisations  :  1176
 total energy-change (2. order) :-0.9649603E-04  (-0.9649646E-04)
 number of electron      43.9999811 magnetization 
 augmentation part       15.4308732 magnetization 

 Broyden mixing:
  rms(total) = 0.19157E+01    rms(broyden)= 0.19157E+01
  rms(prec ) = 0.23776E+01
  weight for this iteration     100.00

 Free energy of the ion-electron system (eV)
  ---------------------------------------------------
  alpha Z        PSCENC =       274.40333328
  Ewald energy   TEWEN  =     -3915.95376942
  -Hartree energ DENC   =      -494.00614683
  -exchange      EXHF   =         0.00000000
  -V(xc)+E(xc)   XCENC  =        62.70648169
  PAW double counting   =      3496.39001341    -3404.04053930
  entropy T*S    EENTRO =        -0.01869006
  eigenvalues    EBANDS =       262.53991806
  atomic energy  EATOM  =      3704.32207507
  Solvation  Ediel_sol  =         0.00000000
  ---------------------------------------------------
  free energy    TOTEN  =       -13.65732410 eV

  energy without entropy =      -13.63863404  energy(sigma->0) =      -13.65109408


--------------------------------------------------------------------------------------------------------




----------------------------------------- Iteration    1(   6)  ---------------------------------------


    POTLOK:  cpu time    0.0064: real time    0.0064
    SETDIJ:  cpu time    0.0023: real time    0.0023
     EDDAV:  cpu time    0.1945: real time    0.1949
       DOS:  cpu time    0.0006: real time    0.0006
    CHARGE:  cpu time    0.0064: real time    0.0064
    MIXING:  cpu time    0.0004: real time    0.0005
    --------------------------------------------
      LOOP:  cpu time    0.2116: real time    0.2260

 eigenvalue-minimisations  :  1224
 total energy-change (2. order) : 0.9656430E+00  (-0.1752249E+00)
 number of electron      43.9999806 magnetization 
 augmentation part       15.9412956 magnetization 

 Broyden mixing:
  rms(total) = 0.12366E+01    rms(broyden)= 0.12366E+01
  rms(prec ) = 0.12824E+01
  weight for this iteration     100.00

 eigenvalues of (default mixing * dielectric matrix)
  average eigenvalue GAMMA=   2.2168
  2.2168

 Free energy of the ion-electron system (eV)
  ---------------------------------------------------
  alpha Z        PSCENC =       274.40333328
  Ewald energy   TEWEN  =     -3915.95376942
  -Hartree energ DENC   =      -463.16863789
  -exchange      EXHF   =         0.00000000
  -V(xc)+E(xc)   XCENC  =        61.34943615
  PAW double counting   =      3783.73637187    -3696.59823077
  entropy T*S    EENTRO =        -0.00051801
  eigenvalues    EBANDS =       239.21825858
  atomic energy  EATOM  =      3704.32207507
  Solvation  Ediel_sol  =         0.00000000
  ---------------------------------------------------
  free energy    TOTEN  =       -12.69168115 eV

  energy without entropy =      -12.69116314  energy(sigma->0) =      -12.69150848


--------------------------------------------------------------------------------------------------------




----------------------------------------- Iteration    1(   7)  ---------------------------------------


    POTLOK:  cpu time    0.0152: real time    0.0152
    SETDIJ:  cpu time    0.0022: real time    0.0022
     EDDAV:  cpu time    0.2150: real time    0.2152
       DOS:  cpu time    0.0004: real time    0.0004
    CHARGE:  cpu time    0.0090: real time    0.0090
    MIXING:  cpu time    0.0002: real time    0.0002
    --------------------------------------------
      LOOP:  cpu time    0.2432: real time    0.2576

 eigenvalue-minimisations  :  1320
 total energy-change (2. order) : 0.6566687E-01  (-0.1646852E-01)
 number of electron      43.9999805 magnetization 
 augmentation part       16.0850132 magnetization 

 Broyden mixing:
  rms(total) = 0.50621E+00    rms(broyden)= 0.50621E+00
  rms(prec ) = 0.50823E+00
  weight for this iteration     100.00

 eigenvalues of (default mixing * dielectric matrix)
  average eigenvalue GAMMA=   1.9109
  1.2034  2.6185

 Free energy of the ion-electron system (eV)
  ---------------------------------------------------
  alpha Z        PSCENC =       274.40333328
  Ewald energy   TEWEN  =     -3915.95376942
  -Hartree energ DENC   =      -451.64980917
  -exchange      EXHF   =         0.00000000
  -V(xc)+E(xc)   XCENC  =        60.83511923
  PAW double counting   =      4077.09691236    -3993.83917308
  entropy T*S    EENTRO =        -0.00144658
  eigenvalues    EBANDS =       232.16074404
  atomic energy  EATOM  =      3704.32207507
  Solvation  Ediel_sol  =         0.00000000
  ---------------------------------------------------
  free energy    TOTEN  =       -12.62601428 eV

  energy without entropy =      -12.62456769  energy(sigma->0) =      -12.62553208


--------------------------------------------------------------------------------------------------------




----------------------------------------- Iteration    1(   8)  ---------------------------------------


    POTLOK:  cpu time    0.0047: real time    0.0047
    SETDIJ:  cpu time    0.0020: real time    0.0020
     EDDAV:  cpu time    0.1832: real time    0.1834
       DOS:  cpu time    0.0005: real time    0.0005
    CHARGE:  cpu time    0.0067: real time    0.0067
    MIXING:  cpu time    0.0002: real time    0.0002
    --------------------------------------------
      LOOP:  cpu time    0.1983: real time    0.2008

 eigenvalue-minimisations  :  1176
 total energy-change (2. order) : 0.7765947E-02  (-0.7026366E-03)
 number of electron      43.9999805 magnetization 
 augmentation part       16.0689948 magnetization 

 Broyden mixing:
  rms(total) = 0.30387E-01    rms(broyden)= 0.30386E-01
  rms(prec ) = 0.33208E-01
  weight for this iteration     100.00

 eigenvalues of (default mixing * dielectric matrix)
  average eigenvalue GAMMA=   1.6158
  2.4785  1.0658  1.3032

 Free energy of the ion-electron system (eV)
  ---------------------------------------------------
  alpha Z        PSCENC =       274.40333328
  Ewald energy   TEWEN  =     -3915.95376942
  -Hartree energ DENC   =      -450.26483995
  -exchange      EXHF   =         0.00000000
  -V(xc)+E(xc)   XCENC  =        60.76106756
  PAW double counting   =      4253.51656439    -4172.23224779
  entropy T*S    EENTRO =        -0.00124159
  eigenvalues    EBANDS =       232.83081012
  atomic energy  EATOM  =      3704.32207507
  Solvation  Ediel_sol  =         0.00000000
  ---------------------------------------------------
  free energy    TOTEN  =       -12.61824833 eV

  energy without entropy =      -12.61700674  energy(sigma->0) =      -12.61783447


--------------------------------------------------------------------------------------------------------




----------------------------------------- Iteration    1(   9)  ---------------------------------------


    POTLOK:  cpu time    0.0039: real time    0.0039
    SETDIJ:  cpu time    0.0021: real time    0.0021
     EDDAV:  cpu time    0.2236: real time    0.2238
       DOS:  cpu time    0.0004: real time    0.0004
    --------------------------------------------
      LOOP:  cpu time    0.2310: real time    0.2328

 eigenvalue-minimisations  :  1344
 total energy-change (2. order) : 0.4263346E-04  (-0.3211291E-04)
 number of electron      43.9999805 magnetization 
 augmentation part       16.0689948 magnetization 

 Free energy of the ion-electron system (eV)
  ---------------------------------------------------
  alpha Z        PSCENC =       274.40333328
  Ewald energy   TEWEN  =     -3915.95376942
  -Hartree energ DENC   =      -450.76748510
  -exchange      EXHF   =         0.00000000
  -V(xc)+E(xc)   XCENC  =        60.78251933
  PAW double counting   =      4241.85572657    -4160.36164729
  entropy T*S    EENTRO =        -0.00115965
  eigenvalues    EBANDS =       233.10220151
  atomic energy  EATOM  =      3704.32207507
  Solvation  Ediel_sol  =         0.00000000
  ---------------------------------------------------
  free energy    TOTEN  =       -12.61820570 eV

  energy without entropy =      -12.61704605  energy(sigma->0) =      -12.61781915


--------------------------------------------------------------------------------------------------------




 average (electrostatic) potential at core
  the test charge radii are     1.2098
  (the norm of the test charge is              1.0000)
       1 -64.0528       2 -64.0528       3 -64.0528       4 -64.0528
 
 
 
 E-fermi :   9.4430     XC(G=0): -12.7328     alpha+bet :-13.9847


 k-point     1 :       0.0000    0.0000    0.0000
  band No.  band energies     occupation 
      1      -0.3556      2.00000
      2       2.4514      2.00000
      3       2.4514      2.00000
      4       2.4514      2.00000
      5       2.7707      2.00000
      6       2.7707      2.00000
      7       2.7707      2.00000
      8       4.8452      2.00000
      9       4.8452      2.00000
     10       4.8452      2.00000
     11       6.3737      2.00000
     12       6.3737      2.00000
     13       7.5387      2.00000
     14       7.5387      2.00000
     15       7.5387      2.00000
     16       7.9074      2.00000
     17       7.9074      2.00000
     18       7.9074      2.00000
     19       7.9074      2.00000
     20       7.9074      2.00000
     21       7.9074      2.00000
     22      10.5513     -0.00000
     23      10.5513     -0.00000
     24      10.5513     -0.00000
     25      15.3535      0.00000
     26      15.3535      0.00000
     27      15.3535      0.00000
     28      19.5600      0.00000
     29      19.5600      0.00000
     30      19.5600      0.00000
     31      19.5600      0.00000
     32      19.5600      0.00000
     33      19.5600      0.00000
     34      24.0569      0.00000
     35      26.7956      0.00000
     36      26.7956      0.00000
     37      26.7956      0.00000
     38      28.0762      0.00000
     39      28.0762      0.00000
     40      28.0762      0.00000
     41      29.4155      0.00000
     42      29.4155      0.00000
     43      29.4155      0.00000
     44      32.9913      0.00000
     45      37.0284      0.00000
     46      37.0284      0.00000
     47      37.0284      0.00000
     48      37.6822      0.00000

 k-point     2 :       0.2000    0.0000    0.0000
  band No.  band energies     occupation 
      1       0.1072      2.00000
      2       2.5900      2.00000
      3       2.7534      2.00000
      4       2.7534      2.00000
      5       2.9393      2.00000
      6       3.0305      2.00000
      7       3.0305      2.00000
      8       4.6095      2.00000
      9       5.0550      2.00000
     10       5.0550      2.00000
     11       6.1238      2.00000
     12       6.4763      2.00000
     13       6.6810      2.00000
     14       6.6810      2.00000
     15       7.1744      2.00000
     16       7.1744      2.00000
     17       7.4175      2.00000
     18       7.4796      2.00000
     19       7.4796      2.00000
     20       7.9080      2.00000
     21       7.9080      2.00000
     22       8.3078      2.00000
     23      12.0944     -0.00000
     24      12.0944     -0.00000
     25      14.9315      0.00000
     26      14.9315      0.00000
     27      18.4033      0.00000
     28      18.8777      0.00000
     29      18.8777      0.00000
     30      19.3030      0.00000
     31      19.3030      0.00000
     32      20.5076      0.00000
     33      20.5076      0.00000
     34      24.6191      0.00000
     35      26.4668      0.00000
     36      26.8946      0.00000
     37      27.7246      0.00000
     38      27.7246      0.00000
     39      28.6102      0.00000
     40      28.6102      0.00000
     41      28.9662      0.00000
     42      29.8087      0.00000
     43      29.8087      0.00000
     44      35.0687      0.00000
     45      35.0687      0.00000
     46      35.0813      0.00000
     47      36.0866      0.00000
     48      36.0967      0.00000

 k-point     3 :       0.4000    0.0000    0.0000
  band No.  band energies     occupation 
      1       1.3607      2.00000
      2       2.5595      2.00000
      3       3.4049      2.00000
      4       3.4079      2.00000
      5       3.4079      2.00000
      6       3.8022      2.00000
      7       3.8022      2.00000
      8       4.0380      2.00000
      9       5.0546      2.00000
     10       5.0546      2.00000
     11       5.6116      2.00000
     12       5.6594      2.00000
     13       5.6594      2.00000
     14       5.9233      2.00000
     15       6.3939      2.00000
     16       6.3939      2.00000
     17       6.5572      2.00000
     18       6.5572      2.00000
     19       6.7525      2.00000
     20       7.1114      2.00000
     21       7.9091      2.00000
     22       7.9091      2.00000
     23      14.3720      0.00000
     24      14.3720      0.00000
     25      14.5987      0.00000
     26      14.5987      0.00000
     27      17.0456      0.00000
     28      17.0456      0.00000
     29      19.0360      0.00000
     30      19.0360      0.00000
     31      22.9047      0.00000
     32      22.9047      0.00000
     33      23.5203      0.00000
     34      25.8162      0.00000
     35      25.8162      0.00000
     36      25.8352      0.00000
     37      25.9901      0.00000
     38      26.0470      0.00000
     39      27.7154      0.00000
     40      29.5091      0.00000
     41      31.1637      0.00000
     42      31.1637      0.00000
     43      32.5614      0.00000
     44      32.5614      0.00000
     45      33.5073      0.00000
     46      33.5073      0.00000
     47      34.5181      0.00000
     48      34.5181      0.00000

 k-point     4 :       0.2000    0.2000    0.0000
  band No.  band energies     occupation 
      1       0.5407      2.00000
      2       2.8933      2.00000
      3       2.9105      2.00000
      4       2.9105      2.00000
      5       3.1797      2.00000
      6       3.1797      2.00000
      7       3.3755      2.00000
      8       4.5455      2.00000
      9       5.1290      2.00000
     10       5.1424      2.00000
     11       6.0025      2.00000
     12       6.0025      2.00000
     13       6.0863      2.00000
     14       6.1774      2.00000
     15       6.5148      2.00000
     16       6.9164      2.00000
     17       7.1876      2.00000
     18       7.1876      2.00000
     19       7.4749      2.00000
     20       7.4749      2.00000
     21       7.6129      2.00000
     22       9.8639     -0.00000
     23       9.8639     -0.00000
     24      13.2262      0.00000
     25      14.1427      0.00000
     26      17.4416      0.00000
     27      17.5385      0.00000
     28      17.5385      0.00000
     29      19.7663      0.00000
     30      19.7663      0.00000
     31      20.5251      0.00000
     32      20.5251      0.00000
     33      21.2969      0.00000
     34      24.7412      0.00000
     35      24.8079      0.00000
     36      27.4705      0.00000
     37      27.5483      0.00000
     38      28.3937      0.00000
     39      28.3937      0.00000
     40      29.4882      0.00000
     41      29.4882      0.00000
     42      29.9285      0.00000
     43      31.3126      0.00000
     44      31.9285      0.00000
     45      35.1547      0.00000
     46      36.0032      0.00000
     47      36.0759      0.00000
     48      36.0804      0.00000

 k-point     5 :       0.4000    0.2000    0.0000
  band No.  band energies     occupation 
      1       1.7139      2.00000
      2       2.8973      2.00000
      3       3.4359      2.00000
      4       3.5874      2.00000
      5       3.6402      2.00000
      6       3.8846      2.00000
      7       4.0006      2.00000
      8       4.1248      2.00000
      9       4.5854      2.00000
     10       4.9795      2.00000
     11       5.0506      2.00000
     12       5.1556      2.00000
     13       5.6639      2.00000
     14       5.9799      2.00000
     15       6.3318      2.00000
     16       6.4957      2.00000
     17       6.5491      2.00000
     18       6.6439      2.00000
     19       7.0177      2.00000
     20       7.4655      2.00000
     21       7.4761      2.00000
     22       7.9183      2.00000
     23      11.5559     -0.00000
     24      12.8373      0.00000
     25      15.4871      0.00000
     26      16.6047      0.00000
     27      16.6909      0.00000
     28      17.8761      0.00000
     29      20.4141      0.00000
     30      20.8826      0.00000
     31      21.6251      0.00000
     32      21.9240      0.00000
     33      22.6808      0.00000
     34      23.9268      0.00000
     35      24.1807      0.00000
     36      27.4565      0.00000
     37      27.6000      0.00000
     38      28.4975      0.00000
     39      28.5999      0.00000
     40      28.7346      0.00000
     41      30.4862      0.00000
     42      31.0862      0.00000
     43      31.3373      0.00000
     44      33.1270      0.00000
     45      33.6774      0.00000
     46      34.9085      0.00000
     47      35.2243      0.00000
     48      35.3051      0.00000

 k-point     6 :       0.4000    0.4000    0.0000
  band No.  band energies     occupation 
      1       2.6125      2.00000
      2       3.5525      2.00000
      3       3.5968      2.00000
      4       3.5968      2.00000
      5       4.0788      2.00000
      6       4.0788      2.00000
      7       4.2112      2.00000
      8       4.3845      2.00000
      9       4.3845      2.00000
     10       4.4234      2.00000
     11       4.6538      2.00000
     12       4.9440      2.00000
     13       5.7320      2.00000
     14       5.8848      2.00000
     15       6.0002      2.00000
     16       6.1379      2.00000
     17       6.1379      2.00000
     18       6.5784      2.00000
     19       6.5784      2.00000
     20       6.8373      2.00000
     21       7.9763      2.00000
     22       9.3407      2.05471
     23       9.3407      2.05471
     24      10.8386     -0.00000
     25      16.9415      0.00000
     26      17.5100      0.00000
     27      18.1171      0.00000
     28      18.1171      0.00000
     29      19.8466      0.00000
     30      19.8466      0.00000
     31      20.0969      0.00000
     32      22.1275      0.00000
     33      24.5022      0.00000
     34      24.5022      0.00000
     35      25.4187      0.00000
     36      26.1914      0.00000
     37      26.7412      0.00000
     38      29.1759      0.00000
     39      29.1759      0.00000
     40      29.3251      0.00000
     41      30.5183      0.00000
     42      30.6434      0.00000
     43      30.6434      0.00000
     44      33.2531      0.00000
     45      35.1039      0.00000
     46      35.1380      0.00000
     47      35.6213      0.00000
     48      36.1100      0.00000

 k-point     7 :       0.2000    0.2000    0.2000
  band No.  band energies     occupation 
      1       0.9148      2.00000
      2       2.9820      2.00000
      3       2.9820      2.00000
      4       2.9820      2.00000
      5       3.5610      2.00000
      6       3.5610      2.00000
      7       3.5610      2.00000
      8       4.6024      2.00000
      9       5.1313      2.00000
     10       5.1313      2.00000
     11       5.6568      2.00000
     12       5.6568      2.00000
     13       5.6568      2.00000
     14       6.3695      2.00000
     15       6.3695      2.00000
     16       6.4754      2.00000
     17       6.4754      2.00000
     18       6.4754      2.00000
     19       7.7055      2.00000
     20       7.7055      2.00000
     21       7.7055      2.00000
     22      10.6749     -0.00000
     23      10.6749     -0.00000
     24      10.6749     -0.00000
     25      15.7381      0.00000
     26      15.7381      0.00000
     27      15.7381      0.00000
     28      19.9084      0.00000
     29      19.9084      0.00000
     30      19.9084      0.00000
     31      21.9890      0.00000
     32      21.9890      0.00000
     33      21.9890      0.00000
     34      22.6327      0.00000
     35      25.2539      0.00000
     36      27.0067      0.00000
     37      27.0067      0.00000
     38      27.0067      0.00000
     39      29.4056      0.00000
     40      29.4056      0.00000
     41      31.4127      0.00000
     42      31.9305      0.00000
     43      31.9305      0.00000
     44      31.9305      0.00000
     45      33.3659      0.00000
     46      33.3659      0.00000
     47      35.9035      0.00000
     48      35.9035      0.00000

 k-point     8 :       0.4000    0.2000    0.2000
  band No.  band energies     occupation 
      1       1.8930      2.00000
      2       2.8500      2.00000
      3       3.3801      2.00000
      4       3.3801      2.00000
      5       4.0486      2.00000
      6       4.0486      2.00000
      7       4.0508      2.00000
      8       4.4330      2.00000
      9       4.8896      2.00000
     10       4.9574      2.00000
     11       4.9574      2.00000
     12       5.0700      2.00000
     13       5.3190      2.00000
     14       5.8027      2.00000
     15       6.0717      2.00000
     16       6.0717      2.00000
     17       6.5737      2.00000
     18       6.9583      2.00000
     19       7.4969      2.00000
     20       7.4969      2.00000
     21       7.4974      2.00000
     22       8.1017      2.00000
     23      12.1489     -0.00000
     24      12.1489     -0.00000
     25      13.7349      0.00000
     26      13.7349      0.00000
     27      17.9015      0.00000
     28      20.2099      0.00000
     29      20.2099      0.00000
     30      20.2636      0.00000
     31      22.0514      0.00000
     32      22.0514      0.00000
     33      23.9234      0.00000
     34      23.9551      0.00000
     35      25.2600      0.00000
     36      26.4489      0.00000
     37      26.8216      0.00000
     38      27.7634      0.00000
     39      27.7634      0.00000
     40      28.7718      0.00000
     41      31.5933      0.00000
     42      32.0767      0.00000
     43      33.4238      0.00000
     44      33.4570      0.00000
     45      33.4570      0.00000
     46      34.1995      0.00000
     47      34.9172      0.00000
     48      35.9163      0.00000

 k-point     9 :       0.4000    0.4000    0.2000
  band No.  band energies     occupation 
      1       2.3410      2.00000
      2       2.9126      2.00000
      3       2.9126      2.00000
      4       3.0815      2.00000
      5       4.3377      2.00000
      6       4.4817      2.00000
      7       4.4817      2.00000
      8       4.8455      2.00000
      9       5.0785      2.00000
     10       5.0785      2.00000
     11       5.1648      2.00000
     12       5.1781      2.00000
     13       5.4519      2.00000
     14       5.5233      2.00000
     15       5.5331      2.00000
     16       5.5331      2.00000
     17       6.6338      2.00000
     18       7.2529      2.00000
     19       7.2529      2.00000
     20       7.2804      2.00000
     21       7.7928      2.00000
     22       9.3963      1.70312
     23       9.3963      1.70312
     24      11.1245     -0.00000
     25      13.5180      0.00000
     26      15.3794      0.00000
     27      15.3794      0.00000
     28      17.6166      0.00000
     29      21.2874      0.00000
     30      22.8372      0.00000
     31      22.8372      0.00000
     32      24.1823      0.00000
     33      24.2511      0.00000
     34      24.2511      0.00000
     35      25.4732      0.00000
     36      25.4769      0.00000
     37      26.0479      0.00000
     38      27.2845      0.00000
     39      27.2845      0.00000
     40      29.4247      0.00000
     41      31.3421      0.00000
     42      32.9510      0.00000
     43      32.9510      0.00000
     44      33.7771      0.00000
     45      34.1139      0.00000
     46      34.9810      0.00000
     47      35.5435      0.00000
     48      35.5441      0.00000

 k-point    10 :       0.4000    0.4000    0.4000
  band No.  band energies     occupation 
      1       2.1860      2.00000
      2       2.4533      2.00000
      3       2.4533      2.00000
      4       2.4533      2.00000
      5       4.6493      2.00000
      6       4.6493      2.00000
      7       4.6493      2.00000
      8       4.8838      2.00000
      9       4.8838      2.00000
     10       5.0213      2.00000
     11       5.0213      2.00000
     12       5.0213      2.00000
     13       6.3932      2.00000
     14       6.3932      2.00000
     15       6.3932      2.00000
     16       6.9051      2.00000
     17       7.3409      2.00000
     18       7.3409      2.00000
     19       7.5988      2.00000
     20       7.5988      2.00000
     21       7.5988      2.00000
     22       9.6050     -0.04428
     23       9.6050     -0.04428
     24       9.6050     -0.04428
     25      12.9982      0.00000
     26      12.9982      0.00000
     27      12.9982      0.00000
     28      14.9335      0.00000
     29      23.7482      0.00000
     30      23.7482      0.00000
     31      23.7482      0.00000
     32      23.8476      0.00000
     33      25.7396      0.00000
     34      25.7396      0.00000
     35      25.7396      0.00000
     36      25.9756      0.00000
     37      25.9756      0.00000
     38      25.9756      0.00000
     39      27.3785      0.00000
     40      27.3785      0.00000
     41      33.9106      0.00000
     42      33.9106      0.00000
     43      34.3870      0.00000
     44      34.5045      0.00000
     45      34.5045      0.00000
     46      34.5045      0.00000
     47      34.8910      0.00000
     48      34.8910      0.00000


--------------------------------------------------------------------------------------------------------


 soft charge-density along one line, spin component           1
         0         1         2         3         4         5         6         7         8         9
 total charge-density along one line
 
 pseudopotential strength for first ion, spin component:           1
 -3.708   0.000  -0.000   0.000  -0.000  -3.951   0.000  -0.000
  0.000  -3.708   0.000  -0.000  -0.000   0.000  -3.951   0.000
 -0.000   0.000  -3.693   0.000  -0.000  -0.000   0.000  -3.937
  0.000  -0.000   0.000  -3.708  -0.000   0.000  -0.000   0.000
 -0.000  -0.000   0.000  -0.000  -3.693  -0.000  -0.000   0.000
 -3.951   0.000  -0.000   0.000  -0.000  -4.176   0.000  -0.000
  0.000  -3.951   0.000  -0.000  -0.000   0.000  -4.176   0.000
 -0.000   0.000  -3.937   0.000   0.000  -0.000   0.000  -4.162
  0.000  -0.000   0.000  -3.951  -0.000   0.000  -0.000   0.000
 -0.000  -0.000  -0.000  -0.000  -3.937  -0.000  -0.000   0.000
  0.000  -0.000   0.000  -0.000  -0.000   0.000  -0.000   0.000
  0.000  -0.000   0.000  -0.000  -0.000   0.000  -0.000   0.000
  0.000   0.000   0.000  -0.000   0.000   0.000   0.000   0.000
 -0.000  -0.000   0.000   0.000   0.000  -0.000  -0.000   0.000
 -0.000  -0.000  -0.000   0.000  -0.000  -0.000  -0.000  -0.000
  0.000   0.000   0.000  -0.000   0.000   0.000   0.000   0.000
 -0.000  -0.000   0.000   0.000   0.000  -0.000  -0.000   0.000
 -0.000  -0.000  -0.000   0.000   0.000  -0.000  -0.000  -0.000
 total augmentation occupancy for first ion, spin component:           1
  5.107  -0.000  -0.000   0.000   0.000  -3.104   0.000  -0.000   0.000   0.000  -0.000  -0.000  -0.000   0.000  -0.000   0.000
 -0.000   5.107   0.000  -0.000  -0.000  -0.000  -3.104   0.000   0.000   0.000  -0.000   0.000  -0.000  -0.000   0.000  -0.000
 -0.000   0.000   4.806  -0.000  -0.000   0.000  -0.000  -2.600  -0.000  -0.000  -0.000  -0.000   0.000  -0.000   0.000   0.000
 -0.000  -0.000   0.000   5.107   0.000   0.000   0.000   0.000  -3.104  -0.000   0.000  -0.000  -0.000   0.000  -0.000  -0.000
 -0.000  -0.000  -0.000   0.000   4.806  -0.000  -0.000  -0.000  -0.000  -2.600  -0.000  -0.000  -0.000   0.000   0.000   0.000
 -3.104  -0.000   0.000   0.000   0.000   3.015  -0.000  -0.000   0.000  -0.000  -0.000  -0.000  -0.000   0.000  -0.000  -0.000
 -0.000  -3.104  -0.000   0.000  -0.000   0.000   3.015   0.000  -0.000   0.000  -0.000  -0.000   0.000   0.000   0.000  -0.000
 -0.000   0.000  -2.600   0.000  -0.000  -0.000   0.000   2.360   0.000  -0.000   0.000  -0.000   0.000  -0.000   0.000   0.000
  0.000  -0.000  -0.000  -3.104  -0.000   0.000  -0.000   0.000   3.015  -0.000   0.000   0.000  -0.000  -0.000   0.000   0.000
  0.000   0.000  -0.000  -0.000  -2.600   0.000  -0.000   0.000  -0.000   2.360  -0.000  -0.000   0.000   0.000   0.000  -0.000
 -0.000  -0.000  -0.000   0.000  -0.000   0.000  -0.000   0.000  -0.000  -0.000   2.696  -0.719  -0.000   0.000   0.000   0.000
 -0.000   0.000   0.000  -0.000  -0.000  -0.000  -0.000   0.000   0.000  -0.000  -0.719   0.246   0.000   0.000   0.000   0.000
 -0.000  -0.000   0.000  -0.000   0.000  -0.000   0.000  -0.000   0.000   0.000   0.000   0.000   0.186  -0.000  -0.000  -0.007
  0.000  -0.000  -0.000   0.000   0.000   0.000   0.000  -0.000  -0.000   0.000   0.000   0.000  -0.000   0.186  -0.000  -0.000
 -0.000   0.000  -0.000  -0.000  -0.000  -0.000   0.000  -0.000   0.000   0.000   0.000   0.000  -0.000  -0.000   0.186  -0.000
  0.000   0.000  -0.000   0.000  -0.000  -0.000   0.000  -0.000  -0.000   0.000   0.000  -0.000  -0.007   0.000   0.000   0.000
 -0.000   0.000   0.000   0.000   0.000   0.000  -0.000  -0.000   0.000   0.000   0.000   0.000  -0.000  -0.007  -0.000   0.000
  0.000  -0.000   0.000   0.000   0.000   0.000  -0.000   0.000  -0.000   0.000   0.000   0.000   0.000   0.000  -0.007  -0.000


------------------------ aborting loop because EDIFF is reached ----------------------------------------


    CHARGE:  cpu time    0.0135: real time    0.0135
    FORLOC:  cpu time    0.0001: real time    0.0001
    FORNL :  cpu time    0.0245: real time    0.0245
    STRESS:  cpu time    0.0734: real time    0.0734
    FORCOR:  cpu time    0.0030: real time    0.0031
    FORHAR:  cpu time    0.0007: real time    0.0008
    MIXING:  cpu time    0.0002: real time    0.0002
    OFIELD:  cpu time    0.0000: real time    0.0000

  FORCE on cell =-STRESS in cart. coord.  units (eV):
  Direction    XX          YY          ZZ          XY          YZ          ZX
  --------------------------------------------------------------------------------------
  Alpha Z   274.40333   274.40333   274.40333
  Ewald   -1305.31850 -1305.31850 -1305.31850     0.00000     0.00000     0.00000
  Hartree   150.21308   150.21308   150.21308    -0.00000    -0.00000    -0.00000
  E(xc)    -199.04293  -199.04293  -199.04293    -0.00000    -0.00000    -0.00000
  Local     195.40835   195.40835   195.40835    -0.00000     0.00000    -0.00000
  n-local    19.91652    -0.34337    -9.86795     0.58897     6.13442     3.73635
  augment   270.56275   270.56275   270.56275     0.00000    -0.00000    -0.00000
  Kinetic   618.35605   616.65173   609.78550    -7.19382    -2.42049    -2.67940
  Fock        0.00000     0.00000     0.00000     0.00000     0.00000     0.00000
  -------------------------------------------------------------------------------------
  Total       4.39224     4.39224     4.39224     0.00000     0.00000     0.00000
  in kB     103.61350   103.61350   103.61350     0.00000     0.00000     0.00000
  external pressure =      103.61 kB  Pullay stress =        0.00 kB


 VOLUME and BASIS-vectors are now :
 -----------------------------------------------------------------------------
  energy-cutoff  :      400.00
  volume of cell :       67.92
      direct lattice vectors                 reciprocal lattice vectors
     4.080000000  0.000000000  0.000000000     0.245098039  0.000000000  0.000000000
     0.000000000  4.080000000  0.000000000     0.000000000  0.245098039  0.000000000
     0.000000000  0.000000000  4.080000000     0.000000000  0.000000000  0.245098039

  length of vectors
     4.080000000  4.080000000  4.080000000     0.245098039  0.245098039  0.245098039


 FORCES acting on ions
    electron-ion (+dipol)            ewald-force                    non-local-force                 convergence-correction
 -----------------------------------------------------------------------------------------------
   0.174E-13 0.348E-13 -.807E-15   0.688E-15 0.184E-14 -.914E-14   0.000E+00 0.331E-22 -.827E-24   -.736E-14 0.880E-14 0.603E-14
   0.170E-13 -.302E-13 -.639E-13   0.177E-16 -.398E-14 0.423E-14   0.000E+00 -.248E-23 0.000E+00   -.890E-14 0.174E-13 -.162E-13
   -.483E-13 0.378E-13 0.455E-12   -.282E-15 0.227E-14 0.435E-14   0.000E+00 -.620E-22 -.265E-22   0.687E-14 -.117E-13 -.423E-13
   -.504E-13 -.108E-13 -.423E-12   -.952E-15 -.355E-14 0.484E-16   0.132E-22 0.000E+00 -.620E-24   0.100E-13 0.163E-13 0.298E-13
 -----------------------------------------------------------------------------------------------
   -.643E-13 0.317E-13 -.328E-13   -.528E-15 -.343E-14 -.507E-15   0.132E-22 -.314E-22 -.279E-22   0.618E-15 0.308E-13 -.226E-13
 
 
 POSITION                                       TOTAL-FORCE (eV/Angst)
 -----------------------------------------------------------------------------------
      0.00000      0.00000      0.00000        -0.000000      0.000000      0.000000
      0.00000      2.04000      2.04000         0.000000     -0.000000     -0.000000
      2.04000      0.00000      2.04000        -0.000000     -0.000000      0.000000
      2.04000      2.04000      0.00000        -0.000000     -0.000000      0.000000
 -----------------------------------------------------------------------------------
    total drift:                               -0.000000      0.000000     -0.000000


--------------------------------------------------------------------------------------------------------



  FREE ENERGIE OF THE ION-ELECTRON SYSTEM (eV)
  ---------------------------------------------------
  free  energy   TOTEN  =       -12.61820570 eV

  energy  without entropy=      -12.61704605  energy(sigma->0) =      -12.61781915
 


--------------------------------------------------------------------------------------------------------


    POTLOK:  cpu time    0.0053: real time    0.0053


--------------------------------------------------------------------------------------------------------


     LOOP+:  cpu time    2.0235: real time    2.0828
    4ORBIT:  cpu time    0.0000: real time    0.0000

 total amount of memory used by VASP on root node    33037. kBytes
========================================================================

   base      :      30000. kBytes
   nonl-proj :       1913. kBytes
   fftplans  :        147. kBytes
   grid      :        485. kBytes
   one-center:         62. kBytes
   wavefun   :        430. kBytes
 
  
  
 General timing and accounting informations for this job:
 ========================================================
  
                  Total CPU time used (sec):       20.465
                            User time (sec):       20.319
                          System time (sec):        0.146
                         Elapsed time (sec):       20.911
  
                   Maximum memory used (kb):       47476.
                   Average memory used (kb):           0.
  
                          Minor page faults:        13368
                          Major page faults:           10
                 Voluntary context switches:         1511
