<?xml version="1.0" encoding="ISO-8859-1"?>
<modeling>
 <generator>
  <i name="program" type="string">vasp </i>
  <i name="version" type="string">5.4.1  </i>
  <i name="subversion" type="string">05Feb16 (build Feb 08 2018 09:21:51) complex                          parallel </i>
  <i name="platform" type="string">LinuxIFC </i>
  <i name="date" type="string">2019 11 21 </i>
  <i name="time" type="string">13:19:15 </i>
 </generator>
 <incar>
  <i type="string" name="PREC">normal</i>
  <i name="ENCUT">    400.00000000</i>
  <i type="int" name="ISMEAR">     1</i>
  <i name="SIGMA">      0.10000000</i>
  <i type="logical" name="LWAVE"> F  </i>
  <i type="logical" name="LCHARG"> F  </i>
  <v type="int" name="KPOINT_BSE">    -1     0     0     0</v>
 </incar>
 <kpoints>
  <generation param="Monkhorst-Pack">
   <v type="int" name="divisions">       5        5        5 </v>
   <v name="usershift">      0.00000000       0.00000000       0.00000000 </v>
   <v name="genvec1">      0.20000000       0.00000000       0.00000000 </v>
   <v name="genvec2">      0.00000000       0.20000000       0.00000000 </v>
   <v name="genvec3">      0.00000000       0.00000000       0.20000000 </v>
   <v name="shift">      0.00000000       0.00000000       0.00000000 </v>
  </generation>
  <varray name="kpointlist" >
   <v>       0.00000000       0.00000000       0.00000000 </v>
   <v>       0.20000000       0.00000000       0.00000000 </v>
   <v>       0.40000000       0.00000000       0.00000000 </v>
   <v>       0.20000000       0.20000000       0.00000000 </v>
   <v>       0.40000000       0.20000000       0.00000000 </v>
   <v>       0.40000000       0.40000000       0.00000000 </v>
   <v>       0.20000000       0.20000000       0.20000000 </v>
   <v>       0.40000000       0.20000000       0.20000000 </v>
   <v>       0.40000000       0.40000000       0.20000000 </v>
   <v>       0.40000000       0.40000000       0.40000000 </v>
  </varray>
  <varray name="weights" >
   <v>       0.00800000 </v>
   <v>       0.04800000 </v>
   <v>       0.04800000 </v>
   <v>       0.09600000 </v>
   <v>       0.19200000 </v>
   <v>       0.09600000 </v>
   <v>       0.06400000 </v>
   <v>       0.19200000 </v>
   <v>       0.19200000 </v>
   <v>       0.06400000 </v>
  </varray>
 </kpoints>
 <parameters>
  <separator name="general" >
   <i type="string" name="SYSTEM">unknown system</i>
   <i type="logical" name="LCOMPAT"> F  </i>
  </separator>
  <separator name="electronic" >
   <i type="string" name="PREC">normal</i>
   <i name="ENMAX">    400.00000000</i>
   <i name="ENAUG">    356.67000000</i>
   <i name="EDIFF">      0.00010000</i>
   <i type="int" name="IALGO">    38</i>
   <i type="int" name="IWAVPR">    10</i>
   <i type="int" name="NBANDS">    48</i>
   <i name="NELECT">     44.00000000</i>
   <i type="int" name="TURBO">     0</i>
   <i type="int" name="IRESTART">     0</i>
   <i type="int" name="NREBOOT">     0</i>
   <i type="int" name="NMIN">     0</i>
   <i name="EREF">      0.00000000</i>
   <separator name="electronic smearing" >
    <i type="int" name="ISMEAR">     1</i>
    <i name="SIGMA">      0.10000000</i>
    <i name="KSPACING">      0.50000000</i>
    <i type="logical" name="KGAMMA"> T  </i>
   </separator>
   <separator name="electronic projectors" >
    <i type="logical" name="LREAL"> F  </i>
    <v name="ROPT">      0.00000000</v>
    <i type="int" name="LMAXPAW">  -100</i>
    <i type="int" name="LMAXMIX">     2</i>
    <i type="logical" name="NLSPLINE"> F  </i>
   </separator>
   <separator name="electronic startup" >
    <i type="int" name="ISTART">     0</i>
    <i type="int" name="ICHARG">     2</i>
    <i type="int" name="INIWAV">     1</i>
   </separator>
   <separator name="electronic spin" >
    <i type="int" name="ISPIN">     1</i>
    <i type="logical" name="LNONCOLLINEAR"> F  </i>
    <v name="MAGMOM">      1.00000000      1.00000000      1.00000000      1.00000000</v>
    <i name="NUPDOWN">     -1.00000000</i>
    <i type="logical" name="LSORBIT"> F  </i>
    <v name="SAXIS">      0.00000000      0.00000000      1.00000000</v>
    <i type="logical" name="LSPIRAL"> F  </i>
    <v name="QSPIRAL">      0.00000000      0.00000000      0.00000000</v>
    <i type="logical" name="LZEROZ"> F  </i>
   </separator>
   <separator name="electronic exchange-correlation" >
    <i type="logical" name="LASPH"> F  </i>
    <i type="logical" name="LMETAGGA"> F  </i>
   </separator>
   <separator name="electronic convergence" >
    <i type="int" name="NELM">    60</i>
    <i type="int" name="NELMDL">    -5</i>
    <i type="int" name="NELMIN">     2</i>
    <i name="ENINI">    400.00000000</i>
    <separator name="electronic convergence detail" >
     <i type="logical" name="LDIAG"> T  </i>
     <i type="logical" name="LSUBROT"> F  </i>
     <i name="WEIMIN">      0.00000000</i>
     <i name="EBREAK">      0.00000052</i>
     <i name="DEPER">      0.30000000</i>
     <i type="int" name="NRMM">     4</i>
     <i name="TIME">      0.40000000</i>
    </separator>
   </separator>
   <separator name="electronic mixer" >
    <i name="AMIX">      0.40000000</i>
    <i name="BMIX">      1.00000000</i>
    <i name="AMIN">      0.10000000</i>
    <i name="AMIX_MAG">      1.60000000</i>
    <i name="BMIX_MAG">      1.00000000</i>
    <separator name="electronic mixer details" >
     <i type="int" name="IMIX">     4</i>
     <i type="logical" name="MIXFIRST"> F  </i>
     <i type="int" name="MAXMIX">   -45</i>
     <i name="WC">    100.00000000</i>
     <i type="int" name="INIMIX">     1</i>
     <i type="int" name="MIXPRE">     1</i>
     <i type="int" name="MREMOVE">     5</i>
    </separator>
   </separator>
   <separator name="electronic dipolcorrection" >
    <i type="logical" name="LDIPOL"> F  </i>
    <i type="logical" name="LMONO"> F  </i>
    <i type="int" name="IDIPOL">     0</i>
    <i name="EPSILON">      1.00000000</i>
    <v name="DIPOL">   -100.00000000   -100.00000000   -100.00000000</v>
    <i name="EFIELD">      0.00000000</i>
   </separator>
  </separator>
  <separator name="grids" >
   <i type="int" name="NGX">    20</i>
   <i type="int" name="NGY">    20</i>
   <i type="int" name="NGZ">    20</i>
   <i type="int" name="NGXF">    40</i>
   <i type="int" name="NGYF">    40</i>
   <i type="int" name="NGZF">    40</i>
   <i type="logical" name="ADDGRID"> F  </i>
  </separator>
  <separator name="ionic" >
   <i type="int" name="NSW">     0</i>
   <i type="int" name="IBRION">    -1</i>
   <i type="int" name="ISIF">     2</i>
   <i name="PSTRESS">      0.00000000</i>
   <i name="EDIFFG">      0.00100000</i>
   <i type="int" name="NFREE">     0</i>
   <i name="POTIM">      0.50000000</i>
   <i name="SMASS">     -3.00000000</i>
   <i name="SCALEE">      1.00000000</i>
  </separator>
  <separator name="ionic md" >
   <i name="TEBEG">      0.00010000</i>
   <i name="TEEND">      0.00010000</i>
   <i type="int" name="NBLOCK">     1</i>
   <i type="int" name="KBLOCK">     1</i>
   <i type="int" name="NPACO">   256</i>
   <i name="APACO">     16.00000000</i>
  </separator>
  <separator name="symmetry" >
   <i type="int" name="ISYM">     2</i>
   <i name="SYMPREC">      0.00001000</i>
  </separator>
  <separator name="dos" >
   <i type="logical" name="LORBIT"> F  </i>
   <v name="RWIGS">     -1.00000000</v>
   <i type="int" name="NEDOS">   301</i>
   <i name="EMIN">     10.00000000</i>
   <i name="EMAX">    -10.00000000</i>
   <i name="EFERMI">      0.00000000</i>
  </separator>
  <separator name="writing" >
   <i type="int" name="NWRITE">     2</i>
   <i type="logical" name="LWAVE"> F  </i>
   <i type="logical" name="LCHARG"> F  </i>
   <i type="logical" name="LPARD"> F  </i>
   <i type="logical" name="LVTOT"> F  </i>
   <i type="logical" name="LVHAR"> F  </i>
   <i type="logical" name="LELF"> F  </i>
   <i type="logical" name="LOPTICS"> F  </i>
   <v name="STM">      0.00000000      0.00000000      0.00000000      0.00000000      0.00000000      0.00000000      0.00000000</v>
  </separator>
  <separator name="performance" >
   <i type="int" name="NPAR">    24</i>
   <i type="int" name="NSIM">     4</i>
   <i type="int" name="NBLK">    -1</i>
   <i type="logical" name="LPLANE"> T  </i>
   <i type="logical" name="LSCALAPACK"> F  </i>
   <i type="logical" name="LSCAAWARE"> F  </i>
   <i type="logical" name="LSCALU"> F  </i>
   <i type="logical" name="LASYNC"> F  </i>
   <i type="logical" name="LORBITALREAL"> F  </i>
  </separator>
  <separator name="miscellaneous" >
   <i type="int" name="IDIOT">     3</i>
   <i type="logical" name="LMUSIC"> F  </i>
   <v name="POMASS">    196.96600000</v>
   <v name="DARWINR">      0.00000000</v>
   <v name="DARWINV">      1.00000000</v>
   <i type="logical" name="LCORR"> T  </i>
  </separator>
  <i type="logical" name="GGA_COMPAT"> T  </i>
  <i type="logical" name="LBERRY"> F  </i>
  <i type="int" name="ICORELEVEL">     0</i>
  <i type="logical" name="LDAU"> F  </i>
  <i type="int" name="I_CONSTRAINED_M">     0</i>
  <separator name="electronic exchange-correlation" >
   <i type="string" name="GGA">--</i>
   <i type="int" name="VOSKOWN">     0</i>
   <i type="logical" name="LHFCALC"> F  </i>
   <i type="string" name="PRECFOCK"></i>
   <i type="logical" name="LSYMGRAD"> F  </i>
   <i type="logical" name="LHFONE"> F  </i>
   <i type="logical" name="LRHFCALC"> F  </i>
   <i type="logical" name="LTHOMAS"> F  </i>
   <i type="logical" name="LMODELHF"> F  </i>
   <i name="ENCUT4O">     -1.00000000</i>
   <i type="int" name="EXXOEP">     0</i>
   <i type="int" name="FOURORBIT">     0</i>
   <i name="AEXX">      0.00000000</i>
   <i name="HFALPHA">      0.00000000</i>
   <i name="MCALPHA">      0.00000000</i>
   <i name="ALDAX">      1.00000000</i>
   <i name="AGGAX">      1.00000000</i>
   <i name="ALDAC">      1.00000000</i>
   <i name="AGGAC">      1.00000000</i>
   <i type="int" name="NKREDX">     1</i>
   <i type="int" name="NKREDY">     1</i>
   <i type="int" name="NKREDZ">     1</i>
   <i type="logical" name="SHIFTRED"> F  </i>
   <i type="logical" name="ODDONLY"> F  </i>
   <i type="logical" name="EVENONLY"> F  </i>
   <i type="int" name="LMAXFOCK">     0</i>
   <i type="int" name="NMAXFOCKAE">     0</i>
   <i type="logical" name="LFOCKAEDFT"> F  </i>
   <i name="HFSCREEN">      0.00000000</i>
   <i name="HFSCREENC">      0.00000000</i>
   <i type="int" name="NBANDSGWLOW">     0</i>
  </separator>
  <separator name="vdW DFT" >
   <i type="logical" name="LUSE_VDW"> F  </i>
   <i name="Zab_VDW">     -0.84910000</i>
   <i name="PARAM1">      0.12340000</i>
   <i name="PARAM2">      1.00000000</i>
   <i name="PARAM3">      0.00000000</i>
  </separator>
  <separator name="model GW" >
   <i type="int" name="MODEL_GW">     0</i>
   <i name="MODEL_EPS0">     10.18759680</i>
   <i name="MODEL_ALPHA">      1.00000000</i>
  </separator>
  <separator name="linear response parameters" >
   <i type="logical" name="LEPSILON"> F  </i>
   <i type="logical" name="LRPA"> F  </i>
   <i type="logical" name="LNABLA"> F  </i>
   <i type="logical" name="LVEL"> F  </i>
   <i type="int" name="KINTER">     0</i>
   <i name="CSHIFT">      0.10000000</i>
   <i name="OMEGAMAX">     -1.00000000</i>
   <i name="DEG_THRESHOLD">      0.00200000</i>
  </separator>
  <separator name="orbital magnetization" >
   <i type="logical" name="NUCIND"> F  </i>
   <v name="MAGPOS">      0.00000000      0.00000000      0.00000000</v>
   <i type="logical" name="LNICSALL"> T  </i>
   <i type="logical" name="ORBITALMAG"> F  </i>
   <i type="logical" name="LMAGBLOCH"> F  </i>
   <i type="logical" name="LCHIMAG"> F  </i>
   <i type="logical" name="LGAUGE"> T  </i>
   <i type="int" name="MAGATOM">     0</i>
   <v name="MAGDIPOL">      0.00000000      0.00000000      0.00000000</v>
   <v name="AVECCONST">      0.00000000      0.00000000      0.00000000</v>
  </separator>
  <separator name="response functions" >
   <i type="logical" name="LADDER"> F  </i>
   <i type="logical" name="LFXC"> F  </i>
   <i type="logical" name="LHARTREE"> T  </i>
   <i type="int" name="IBSE">     0</i>
   <v type="int" name="KPOINT">    -1     0     0     0</v>
   <i type="logical" name="LTCTE"> F  </i>
   <i type="logical" name="LTETE"> F  </i>
   <i type="logical" name="LTRIPLET"> F  </i>
   <i type="logical" name="LFXCEPS"> F  </i>
   <i type="logical" name="LFXHEG"> F  </i>
   <i type="int" name="NATURALO">     0</i>
   <i type="logical" name="L2ORDER"> F  </i>
   <i type="logical" name="LUSEW"> F  </i>
   <i name="ENCUTGW">     -2.00000000</i>
   <i name="ENCUTGWSOFT">     -2.00000000</i>
   <i name="ENCUTLF">     -1.00000000</i>
   <i type="int" name="LMAXMP2">    -1</i>
   <i name="SCISSOR">      0.00000000</i>
   <i type="int" name="NOMEGA">     0</i>
   <i type="int" name="NOMEGAR">     0</i>
   <i type="int" name="NBANDSGW">    -1</i>
   <i type="int" name="NBANDSO">    -1</i>
   <i type="int" name="NBANDSV">    -1</i>
   <i type="int" name="NELM">     1</i>
   <i type="int" name="NELMHF">     1</i>
   <i type="int" name="DIM">     3</i>
   <i type="int" name="ANTIRES">     0</i>
   <i name="OMEGAMAX">    -30.00000000</i>
   <i name="OMEGAMIN">    -30.00000000</i>
   <i name="OMEGATL">   -200.00000000</i>
   <i type="int" name="OMEGAGRID">     0</i>
   <i name="CSHIFT">     -0.10000000</i>
   <i type="logical" name="SELFENERGY"> F  </i>
   <i type="logical" name="LSPECTRAL"> F  </i>
   <i type="logical" name="LSPECTRALGW"> F  </i>
   <i type="logical" name="LSINGLES"> F  </i>
   <i type="logical" name="LFERMIGW"> F  </i>
   <i type="logical" name="ODDONLYGW"> F  </i>
   <i type="logical" name="EVENONLYGW"> F  </i>
   <i type="int" name="NKREDLFX">     1</i>
   <i type="int" name="NKREDLFY">     1</i>
   <i type="int" name="NKREDLFZ">     1</i>
   <i type="int" name="MAXMEM">  1800</i>
   <i type="int" name="TELESCOPE">     0</i>
   <i type="int" name="TAUPAR">     1</i>
   <i type="int" name="OMEGAPAR">    -1</i>
   <i name="LAMBDA">      1.00000000</i>
  </separator>
  <separator name="External order field" >
   <i name="OFIELD_KAPPA">      0.00000000</i>
   <v name="OFIELD_K">      0.00000000      0.00000000      0.00000000</v>
   <i name="OFIELD_Q6_NEAR">      0.00000000</i>
   <i name="OFIELD_Q6_FAR">      0.00000000</i>
   <i name="OFIELD_A">      0.00000000</i>
  </separator>
 </parameters>
 <atominfo>
  <atoms>       4 </atoms>
  <types>       1 </types>
  <array name="atoms" >
   <dimension dim="1">ion</dimension>
   <field type="string">element</field>
   <field type="int">atomtype</field>
   <set>
    <rc><c>Au</c><c>   1</c></rc>
    <rc><c>Au</c><c>   1</c></rc>
    <rc><c>Au</c><c>   1</c></rc>
    <rc><c>Au</c><c>   1</c></rc>
   </set>
  </array>
  <array name="atomtypes" >
   <dimension dim="1">type</dimension>
   <field type="int">atomspertype</field>
   <field type="string">element</field>
   <field>mass</field>
   <field>valence</field>
   <field type="string">pseudopotential</field>
   <set>
    <rc><c>   4</c><c>Au</c><c>    196.96600000</c><c>     11.00000000</c><c>  PAW_PBE Au 04Oct2007                  </c></rc>
   </set>
  </array>
 </atominfo>
 <structure name="initialpos" >
  <crystal>
   <varray name="basis" >
    <v>       4.08000000       0.00000000       0.00000000 </v>
    <v>       0.00000000       4.08000000       0.00000000 </v>
    <v>       0.00000000       0.00000000       4.08000000 </v>
   </varray>
   <i name="volume">     67.91731200 </i>
   <varray name="rec_basis" >
    <v>       0.24509804       0.00000000       0.00000000 </v>
    <v>       0.00000000       0.24509804       0.00000000 </v>
    <v>       0.00000000       0.00000000       0.24509804 </v>
   </varray>
  </crystal>
  <varray name="positions" >
   <v>       0.00000000       0.00000000       0.00000000 </v>
   <v>       0.00000000       0.50000000       0.50000000 </v>
   <v>       0.50000000       0.00000000       0.50000000 </v>
   <v>       0.50000000       0.50000000       0.00000000 </v>
  </varray>
 </structure>
 <calculation>
  <scstep>
   <time name="dav">    0.17    0.17</time>
   <time name="total">    0.18    0.19</time>
   <energy>
    <i name="alphaZ">    274.40333328 </i>
    <i name="ewald">  -3915.95376942 </i>
    <i name="hartreedc">   -494.00614683 </i>
    <i name="XCdc">     62.70648169 </i>
    <i name="pawpsdc">   3496.39001341 </i>
    <i name="pawaedc">  -3404.04053930 </i>
    <i name="eentropy">     -0.00338518 </i>
    <i name="bandstr">    461.84844891 </i>
    <i name="atom">   3704.32207507 </i>
    <i name="e_fr_energy">    185.66651163 </i>
    <i name="e_wo_entrp">    185.66989681 </i>
    <i name="e_0_energy">    185.66764002 </i>
   </energy>
  </scstep>
  <scstep>
   <time name="dav">    0.20    0.20</time>
   <time name="total">    0.20    0.20</time>
   <energy>
    <i name="e_fr_energy">    -11.04110700 </i>
    <i name="e_wo_entrp">    -11.02342756 </i>
    <i name="e_0_energy">    -11.03521385 </i>
   </energy>
  </scstep>
  <scstep>
   <time name="dav">    0.19    0.19</time>
   <time name="total">    0.19    0.19</time>
   <energy>
    <i name="e_fr_energy">    -13.64649479 </i>
    <i name="e_wo_entrp">    -13.62780494 </i>
    <i name="e_0_energy">    -13.64026484 </i>
   </energy>
  </scstep>
  <scstep>
   <time name="dav">    0.24    0.24</time>
   <time name="total">    0.24    0.25</time>
   <energy>
    <i name="e_fr_energy">    -13.65722761 </i>
    <i name="e_wo_entrp">    -13.63853754 </i>
    <i name="e_0_energy">    -13.65099759 </i>
   </energy>
  </scstep>
  <scstep>
   <time name="dav">    0.18    0.18</time>
   <time name="total">    0.19    0.19</time>
   <energy>
    <i name="e_fr_energy">    -13.65732410 </i>
    <i name="e_wo_entrp">    -13.63863404 </i>
    <i name="e_0_energy">    -13.65109408 </i>
   </energy>
  </scstep>
  <scstep>
   <time name="dav">    0.19    0.19</time>
   <time name="total">    0.21    0.23</time>
   <energy>
    <i name="e_fr_energy">    -12.69168115 </i>
    <i name="e_wo_entrp">    -12.69116314 </i>
    <i name="e_0_energy">    -12.69150848 </i>
   </energy>
  </scstep>
  <scstep>
   <time name="dav">    0.22    0.22</time>
   <time name="total">    0.24    0.26</time>
   <energy>
    <i name="e_fr_energy">    -12.62601428 </i>
    <i name="e_wo_entrp">    -12.62456769 </i>
    <i name="e_0_energy">    -12.62553208 </i>
   </energy>
  </scstep>
  <scstep>
   <time name="dav">    0.18    0.18</time>
   <time name="total">    0.20    0.20</time>
   <energy>
    <i name="e_fr_energy">    -12.61824833 </i>
    <i name="e_wo_entrp">    -12.61700674 </i>
    <i name="e_0_energy">    -12.61783447 </i>
   </energy>
  </scstep>
  <scstep>
   <time name="dav">    0.22    0.22</time>
   <time name="total">    0.23    0.23</time>
   <energy>
    <i name="alphaZ">    274.40333328 </i>
    <i name="ewald">  -3915.95376942 </i>
    <i name="hartreedc">   -450.76748510 </i>
    <i name="XCdc">     60.78251933 </i>
    <i name="pawpsdc">   4241.85572657 </i>
    <i name="pawaedc">  -4160.36164729 </i>
    <i name="eentropy">     -0.00115965 </i>
    <i name="bandstr">    233.10220151 </i>
    <i name="atom">   3704.32207507 </i>
    <i name="e_fr_energy">    -12.61820570 </i>
    <i name="e_wo_entrp">    -12.61704605 </i>
    <i name="e_0_energy">    -12.61781915 </i>
   </energy>
  </scstep>
  <structure>
   <crystal>
    <varray name="basis" >
     <v>       4.08000000       0.00000000       0.00000000 </v>
     <v>       0.00000000       4.08000000       0.00000000 </v>
     <v>       0.00000000       0.00000000       4.08000000 </v>
    </varray>
    <i name="volume">     67.91731200 </i>
    <varray name="rec_basis" >
     <v>       0.24509804       0.00000000       0.00000000 </v>
     <v>       0.00000000       0.24509804       0.00000000 </v>
     <v>       0.00000000       0.00000000       0.24509804 </v>
    </varray>
   </crystal>
   <varray name="positions" >
    <v>       0.00000000       0.00000000       0.00000000 </v>
    <v>       0.00000000       0.50000000       0.50000000 </v>
    <v>       0.50000000       0.00000000       0.50000000 </v>
    <v>       0.50000000       0.50000000       0.00000000 </v>
   </varray>
  </structure>
  <varray name="forces" >
   <v>      -0.00000000       0.00000000       0.00000000 </v>
   <v>       0.00000000      -0.00000000      -0.00000000 </v>
   <v>      -0.00000000      -0.00000000       0.00000000 </v>
   <v>      -0.00000000      -0.00000000       0.00000000 </v>
  </varray>
  <varray name="stress" >
   <v>     103.61349826       0.00000000       0.00000000 </v>
   <v>       0.00000000     103.61349826       0.00000000 </v>
   <v>       0.00000000       0.00000000     103.61349826 </v>
  </varray>
  <energy>
   <i name="e_fr_energy">    -12.61820570 </i>
   <i name="e_wo_entrp">    -12.61781915 </i>
   <i name="e_0_energy">     -0.00115965 </i>
  </energy>
  <time name="totalsc">    2.02    2.08</time>
  <eigenvalues>
   <array>
    <dimension dim="1">band</dimension>
    <dimension dim="2">kpoint</dimension>
    <dimension dim="3">spin</dimension>
    <field>eigene</field>
    <field>occ</field>
    <set>
     <set comment="spin 1">
      <set comment="kpoint 1">
       <r>   -0.3556    1.0000 </r>
       <r>    2.4514    1.0000 </r>
       <r>    2.4514    1.0000 </r>
       <r>    2.4514    1.0000 </r>
       <r>    2.7707    1.0000 </r>
       <r>    2.7707    1.0000 </r>
       <r>    2.7707    1.0000 </r>
       <r>    4.8452    1.0000 </r>
       <r>    4.8452    1.0000 </r>
       <r>    4.8452    1.0000 </r>
       <r>    6.3737    1.0000 </r>
       <r>    6.3737    1.0000 </r>
       <r>    7.5387    1.0000 </r>
       <r>    7.5387    1.0000 </r>
       <r>    7.5387    1.0000 </r>
       <r>    7.9074    1.0000 </r>
       <r>    7.9074    1.0000 </r>
       <r>    7.9074    1.0000 </r>
       <r>    7.9074    1.0000 </r>
       <r>    7.9074    1.0000 </r>
       <r>    7.9074    1.0000 </r>
       <r>   10.5513   -0.0000 </r>
       <r>   10.5513   -0.0000 </r>
       <r>   10.5513   -0.0000 </r>
       <r>   15.3535    0.0000 </r>
       <r>   15.3535    0.0000 </r>
       <r>   15.3535    0.0000 </r>
       <r>   19.5600    0.0000 </r>
       <r>   19.5600    0.0000 </r>
       <r>   19.5600    0.0000 </r>
       <r>   19.5600    0.0000 </r>
       <r>   19.5600    0.0000 </r>
       <r>   19.5600    0.0000 </r>
       <r>   24.0569    0.0000 </r>
       <r>   26.7956    0.0000 </r>
       <r>   26.7956    0.0000 </r>
       <r>   26.7956    0.0000 </r>
       <r>   28.0762    0.0000 </r>
       <r>   28.0762    0.0000 </r>
       <r>   28.0762    0.0000 </r>
       <r>   29.4155    0.0000 </r>
       <r>   29.4155    0.0000 </r>
       <r>   29.4155    0.0000 </r>
       <r>   32.9913    0.0000 </r>
       <r>   37.0284    0.0000 </r>
       <r>   37.0284    0.0000 </r>
       <r>   37.0284    0.0000 </r>
       <r>   37.6822    0.0000 </r>
      </set>
      <set comment="kpoint 2">
       <r>    0.1072    1.0000 </r>
       <r>    2.5900    1.0000 </r>
       <r>    2.7534    1.0000 </r>
       <r>    2.7534    1.0000 </r>
       <r>    2.9393    1.0000 </r>
       <r>    3.0305    1.0000 </r>
       <r>    3.0305    1.0000 </r>
       <r>    4.6095    1.0000 </r>
       <r>    5.0550    1.0000 </r>
       <r>    5.0550    1.0000 </r>
       <r>    6.1238    1.0000 </r>
       <r>    6.4763    1.0000 </r>
       <r>    6.6810    1.0000 </r>
       <r>    6.6810    1.0000 </r>
       <r>    7.1744    1.0000 </r>
       <r>    7.1744    1.0000 </r>
       <r>    7.4175    1.0000 </r>
       <r>    7.4796    1.0000 </r>
       <r>    7.4796    1.0000 </r>
       <r>    7.9080    1.0000 </r>
       <r>    7.9080    1.0000 </r>
       <r>    8.3078    1.0000 </r>
       <r>   12.0944   -0.0000 </r>
       <r>   12.0944   -0.0000 </r>
       <r>   14.9315    0.0000 </r>
       <r>   14.9315    0.0000 </r>
       <r>   18.4033    0.0000 </r>
       <r>   18.8777    0.0000 </r>
       <r>   18.8777    0.0000 </r>
       <r>   19.3030    0.0000 </r>
       <r>   19.3030    0.0000 </r>
       <r>   20.5076    0.0000 </r>
       <r>   20.5076    0.0000 </r>
       <r>   24.6191    0.0000 </r>
       <r>   26.4668    0.0000 </r>
       <r>   26.8946    0.0000 </r>
       <r>   27.7246    0.0000 </r>
       <r>   27.7246    0.0000 </r>
       <r>   28.6102    0.0000 </r>
       <r>   28.6102    0.0000 </r>
       <r>   28.9662    0.0000 </r>
       <r>   29.8087    0.0000 </r>
       <r>   29.8087    0.0000 </r>
       <r>   35.0687    0.0000 </r>
       <r>   35.0687    0.0000 </r>
       <r>   35.0813    0.0000 </r>
       <r>   36.0866    0.0000 </r>
       <r>   36.0967    0.0000 </r>
      </set>
      <set comment="kpoint 3">
       <r>    1.3607    1.0000 </r>
       <r>    2.5595    1.0000 </r>
       <r>    3.4049    1.0000 </r>
       <r>    3.4079    1.0000 </r>
       <r>    3.4079    1.0000 </r>
       <r>    3.8022    1.0000 </r>
       <r>    3.8022    1.0000 </r>
       <r>    4.0380    1.0000 </r>
       <r>    5.0546    1.0000 </r>
       <r>    5.0546    1.0000 </r>
       <r>    5.6116    1.0000 </r>
       <r>    5.6594    1.0000 </r>
       <r>    5.6594    1.0000 </r>
       <r>    5.9233    1.0000 </r>
       <r>    6.3939    1.0000 </r>
       <r>    6.3939    1.0000 </r>
       <r>    6.5572    1.0000 </r>
       <r>    6.5572    1.0000 </r>
       <r>    6.7525    1.0000 </r>
       <r>    7.1114    1.0000 </r>
       <r>    7.9091    1.0000 </r>
       <r>    7.9091    1.0000 </r>
       <r>   14.3720    0.0000 </r>
       <r>   14.3720    0.0000 </r>
       <r>   14.5987    0.0000 </r>
       <r>   14.5987    0.0000 </r>
       <r>   17.0456    0.0000 </r>
       <r>   17.0456    0.0000 </r>
       <r>   19.0360    0.0000 </r>
       <r>   19.0360    0.0000 </r>
       <r>   22.9047    0.0000 </r>
       <r>   22.9047    0.0000 </r>
       <r>   23.5203    0.0000 </r>
       <r>   25.8162    0.0000 </r>
       <r>   25.8162    0.0000 </r>
       <r>   25.8352    0.0000 </r>
       <r>   25.9901    0.0000 </r>
       <r>   26.0470    0.0000 </r>
       <r>   27.7154    0.0000 </r>
       <r>   29.5091    0.0000 </r>
       <r>   31.1637    0.0000 </r>
       <r>   31.1637    0.0000 </r>
       <r>   32.5614    0.0000 </r>
       <r>   32.5614    0.0000 </r>
       <r>   33.5073    0.0000 </r>
       <r>   33.5073    0.0000 </r>
       <r>   34.5181    0.0000 </r>
       <r>   34.5181    0.0000 </r>
      </set>
      <set comment="kpoint 4">
       <r>    0.5407    1.0000 </r>
       <r>    2.8933    1.0000 </r>
       <r>    2.9105    1.0000 </r>
       <r>    2.9105    1.0000 </r>
       <r>    3.1797    1.0000 </r>
       <r>    3.1797    1.0000 </r>
       <r>    3.3755    1.0000 </r>
       <r>    4.5455    1.0000 </r>
       <r>    5.1290    1.0000 </r>
       <r>    5.1424    1.0000 </r>
       <r>    6.0025    1.0000 </r>
       <r>    6.0025    1.0000 </r>
       <r>    6.0863    1.0000 </r>
       <r>    6.1774    1.0000 </r>
       <r>    6.5148    1.0000 </r>
       <r>    6.9164    1.0000 </r>
       <r>    7.1876    1.0000 </r>
       <r>    7.1876    1.0000 </r>
       <r>    7.4749    1.0000 </r>
       <r>    7.4749    1.0000 </r>
       <r>    7.6129    1.0000 </r>
       <r>    9.8639   -0.0000 </r>
       <r>    9.8639   -0.0000 </r>
       <r>   13.2262    0.0000 </r>
       <r>   14.1427    0.0000 </r>
       <r>   17.4416    0.0000 </r>
       <r>   17.5385    0.0000 </r>
       <r>   17.5385    0.0000 </r>
       <r>   19.7663    0.0000 </r>
       <r>   19.7663    0.0000 </r>
       <r>   20.5251    0.0000 </r>
       <r>   20.5251    0.0000 </r>
       <r>   21.2969    0.0000 </r>
       <r>   24.7412    0.0000 </r>
       <r>   24.8079    0.0000 </r>
       <r>   27.4705    0.0000 </r>
       <r>   27.5483    0.0000 </r>
       <r>   28.3937    0.0000 </r>
       <r>   28.3937    0.0000 </r>
       <r>   29.4882    0.0000 </r>
       <r>   29.4882    0.0000 </r>
       <r>   29.9285    0.0000 </r>
       <r>   31.3126    0.0000 </r>
       <r>   31.9285    0.0000 </r>
       <r>   35.1547    0.0000 </r>
       <r>   36.0032    0.0000 </r>
       <r>   36.0759    0.0000 </r>
       <r>   36.0804    0.0000 </r>
      </set>
      <set comment="kpoint 5">
       <r>    1.7139    1.0000 </r>
       <r>    2.8973    1.0000 </r>
       <r>    3.4359    1.0000 </r>
       <r>    3.5874    1.0000 </r>
       <r>    3.6402    1.0000 </r>
       <r>    3.8846    1.0000 </r>
       <r>    4.0006    1.0000 </r>
       <r>    4.1248    1.0000 </r>
       <r>    4.5854    1.0000 </r>
       <r>    4.9795    1.0000 </r>
       <r>    5.0506    1.0000 </r>
       <r>    5.1556    1.0000 </r>
       <r>    5.6639    1.0000 </r>
       <r>    5.9799    1.0000 </r>
       <r>    6.3318    1.0000 </r>
       <r>    6.4957    1.0000 </r>
       <r>    6.5491    1.0000 </r>
       <r>    6.6439    1.0000 </r>
       <r>    7.0177    1.0000 </r>
       <r>    7.4655    1.0000 </r>
       <r>    7.4761    1.0000 </r>
       <r>    7.9183    1.0000 </r>
       <r>   11.5559   -0.0000 </r>
       <r>   12.8373    0.0000 </r>
       <r>   15.4871    0.0000 </r>
       <r>   16.6047    0.0000 </r>
       <r>   16.6909    0.0000 </r>
       <r>   17.8761    0.0000 </r>
       <r>   20.4141    0.0000 </r>
       <r>   20.8826    0.0000 </r>
       <r>   21.6251    0.0000 </r>
       <r>   21.9240    0.0000 </r>
       <r>   22.6808    0.0000 </r>
       <r>   23.9268    0.0000 </r>
       <r>   24.1807    0.0000 </r>
       <r>   27.4565    0.0000 </r>
       <r>   27.6000    0.0000 </r>
       <r>   28.4975    0.0000 </r>
       <r>   28.5999    0.0000 </r>
       <r>   28.7346    0.0000 </r>
       <r>   30.4862    0.0000 </r>
       <r>   31.0862    0.0000 </r>
       <r>   31.3373    0.0000 </r>
       <r>   33.1270    0.0000 </r>
       <r>   33.6774    0.0000 </r>
       <r>   34.9085    0.0000 </r>
       <r>   35.2243    0.0000 </r>
       <r>   35.3051    0.0000 </r>
      </set>
      <set comment="kpoint 6">
       <r>    2.6125    1.0000 </r>
       <r>    3.5525    1.0000 </r>
       <r>    3.5968    1.0000 </r>
       <r>    3.5968    1.0000 </r>
       <r>    4.0788    1.0000 </r>
       <r>    4.0788    1.0000 </r>
       <r>    4.2112    1.0000 </r>
       <r>    4.3845    1.0000 </r>
       <r>    4.3845    1.0000 </r>
       <r>    4.4234    1.0000 </r>
       <r>    4.6538    1.0000 </r>
       <r>    4.9440    1.0000 </r>
       <r>    5.7320    1.0000 </r>
       <r>    5.8848    1.0000 </r>
       <r>    6.0002    1.0000 </r>
       <r>    6.1379    1.0000 </r>
       <r>    6.1379    1.0000 </r>
       <r>    6.5784    1.0000 </r>
       <r>    6.5784    1.0000 </r>
       <r>    6.8373    1.0000 </r>
       <r>    7.9763    1.0000 </r>
       <r>    9.3407    1.0274 </r>
       <r>    9.3407    1.0274 </r>
       <r>   10.8386   -0.0000 </r>
       <r>   16.9415    0.0000 </r>
       <r>   17.5100    0.0000 </r>
       <r>   18.1171    0.0000 </r>
       <r>   18.1171    0.0000 </r>
       <r>   19.8466    0.0000 </r>
       <r>   19.8466    0.0000 </r>
       <r>   20.0969    0.0000 </r>
       <r>   22.1275    0.0000 </r>
       <r>   24.5022    0.0000 </r>
       <r>   24.5022    0.0000 </r>
       <r>   25.4187    0.0000 </r>
       <r>   26.1914    0.0000 </r>
       <r>   26.7412    0.0000 </r>
       <r>   29.1759    0.0000 </r>
       <r>   29.1759    0.0000 </r>
       <r>   29.3251    0.0000 </r>
       <r>   30.5183    0.0000 </r>
       <r>   30.6434    0.0000 </r>
       <r>   30.6434    0.0000 </r>
       <r>   33.2531    0.0000 </r>
       <r>   35.1039    0.0000 </r>
       <r>   35.1380    0.0000 </r>
       <r>   35.6213    0.0000 </r>
       <r>   36.1100    0.0000 </r>
      </set>
      <set comment="kpoint 7">
       <r>    0.9148    1.0000 </r>
       <r>    2.9820    1.0000 </r>
       <r>    2.9820    1.0000 </r>
       <r>    2.9820    1.0000 </r>
       <r>    3.5610    1.0000 </r>
       <r>    3.5610    1.0000 </r>
       <r>    3.5610    1.0000 </r>
       <r>    4.6024    1.0000 </r>
       <r>    5.1313    1.0000 </r>
       <r>    5.1313    1.0000 </r>
       <r>    5.6568    1.0000 </r>
       <r>    5.6568    1.0000 </r>
       <r>    5.6568    1.0000 </r>
       <r>    6.3695    1.0000 </r>
       <r>    6.3695    1.0000 </r>
       <r>    6.4754    1.0000 </r>
       <r>    6.4754    1.0000 </r>
       <r>    6.4754    1.0000 </r>
       <r>    7.7055    1.0000 </r>
       <r>    7.7055    1.0000 </r>
       <r>    7.7055    1.0000 </r>
       <r>   10.6749   -0.0000 </r>
       <r>   10.6749   -0.0000 </r>
       <r>   10.6749   -0.0000 </r>
       <r>   15.7381    0.0000 </r>
       <r>   15.7381    0.0000 </r>
       <r>   15.7381    0.0000 </r>
       <r>   19.9084    0.0000 </r>
       <r>   19.9084    0.0000 </r>
       <r>   19.9084    0.0000 </r>
       <r>   21.9890    0.0000 </r>
       <r>   21.9890    0.0000 </r>
       <r>   21.9890    0.0000 </r>
       <r>   22.6327    0.0000 </r>
       <r>   25.2539    0.0000 </r>
       <r>   27.0067    0.0000 </r>
       <r>   27.0067    0.0000 </r>
       <r>   27.0067    0.0000 </r>
       <r>   29.4056    0.0000 </r>
       <r>   29.4056    0.0000 </r>
       <r>   31.4127    0.0000 </r>
       <r>   31.9305    0.0000 </r>
       <r>   31.9305    0.0000 </r>
       <r>   31.9305    0.0000 </r>
       <r>   33.3659    0.0000 </r>
       <r>   33.3659    0.0000 </r>
       <r>   35.9035    0.0000 </r>
       <r>   35.9035    0.0000 </r>
      </set>
      <set comment="kpoint 8">
       <r>    1.8930    1.0000 </r>
       <r>    2.8500    1.0000 </r>
       <r>    3.3801    1.0000 </r>
       <r>    3.3801    1.0000 </r>
       <r>    4.0486    1.0000 </r>
       <r>    4.0486    1.0000 </r>
       <r>    4.0508    1.0000 </r>
       <r>    4.4330    1.0000 </r>
       <r>    4.8896    1.0000 </r>
       <r>    4.9574    1.0000 </r>
       <r>    4.9574    1.0000 </r>
       <r>    5.0700    1.0000 </r>
       <r>    5.3190    1.0000 </r>
       <r>    5.8027    1.0000 </r>
       <r>    6.0717    1.0000 </r>
       <r>    6.0717    1.0000 </r>
       <r>    6.5737    1.0000 </r>
       <r>    6.9583    1.0000 </r>
       <r>    7.4969    1.0000 </r>
       <r>    7.4969    1.0000 </r>
       <r>    7.4974    1.0000 </r>
       <r>    8.1017    1.0000 </r>
       <r>   12.1489   -0.0000 </r>
       <r>   12.1489   -0.0000 </r>
       <r>   13.7349    0.0000 </r>
       <r>   13.7349    0.0000 </r>
       <r>   17.9015    0.0000 </r>
       <r>   20.2099    0.0000 </r>
       <r>   20.2099    0.0000 </r>
       <r>   20.2636    0.0000 </r>
       <r>   22.0514    0.0000 </r>
       <r>   22.0514    0.0000 </r>
       <r>   23.9234    0.0000 </r>
       <r>   23.9551    0.0000 </r>
       <r>   25.2600    0.0000 </r>
       <r>   26.4489    0.0000 </r>
       <r>   26.8216    0.0000 </r>
       <r>   27.7634    0.0000 </r>
       <r>   27.7634    0.0000 </r>
       <r>   28.7718    0.0000 </r>
       <r>   31.5933    0.0000 </r>
       <r>   32.0767    0.0000 </r>
       <r>   33.4238    0.0000 </r>
       <r>   33.4570    0.0000 </r>
       <r>   33.4570    0.0000 </r>
       <r>   34.1995    0.0000 </r>
       <r>   34.9172    0.0000 </r>
       <r>   35.9163    0.0000 </r>
      </set>
      <set comment="kpoint 9">
       <r>    2.3410    1.0000 </r>
       <r>    2.9126    1.0000 </r>
       <r>    2.9126    1.0000 </r>
       <r>    3.0815    1.0000 </r>
       <r>    4.3377    1.0000 </r>
       <r>    4.4817    1.0000 </r>
       <r>    4.4817    1.0000 </r>
       <r>    4.8455    1.0000 </r>
       <r>    5.0785    1.0000 </r>
       <r>    5.0785    1.0000 </r>
       <r>    5.1648    1.0000 </r>
       <r>    5.1781    1.0000 </r>
       <r>    5.4519    1.0000 </r>
       <r>    5.5233    1.0000 </r>
       <r>    5.5331    1.0000 </r>
       <r>    5.5331    1.0000 </r>
       <r>    6.6338    1.0000 </r>
       <r>    7.2529    1.0000 </r>
       <r>    7.2529    1.0000 </r>
       <r>    7.2804    1.0000 </r>
       <r>    7.7928    1.0000 </r>
       <r>    9.3963    0.8516 </r>
       <r>    9.3963    0.8516 </r>
       <r>   11.1245   -0.0000 </r>
       <r>   13.5180    0.0000 </r>
       <r>   15.3794    0.0000 </r>
       <r>   15.3794    0.0000 </r>
       <r>   17.6166    0.0000 </r>
       <r>   21.2874    0.0000 </r>
       <r>   22.8372    0.0000 </r>
       <r>   22.8372    0.0000 </r>
       <r>   24.1823    0.0000 </r>
       <r>   24.2511    0.0000 </r>
       <r>   24.2511    0.0000 </r>
       <r>   25.4732    0.0000 </r>
       <r>   25.4769    0.0000 </r>
       <r>   26.0479    0.0000 </r>
       <r>   27.2845    0.0000 </r>
       <r>   27.2845    0.0000 </r>
       <r>   29.4247    0.0000 </r>
       <r>   31.3421    0.0000 </r>
       <r>   32.9510    0.0000 </r>
       <r>   32.9510    0.0000 </r>
       <r>   33.7771    0.0000 </r>
       <r>   34.1139    0.0000 </r>
       <r>   34.9810    0.0000 </r>
       <r>   35.5435    0.0000 </r>
       <r>   35.5441    0.0000 </r>
      </set>
      <set comment="kpoint 10">
       <r>    2.1860    1.0000 </r>
       <r>    2.4533    1.0000 </r>
       <r>    2.4533    1.0000 </r>
       <r>    2.4533    1.0000 </r>
       <r>    4.6493    1.0000 </r>
       <r>    4.6493    1.0000 </r>
       <r>    4.6493    1.0000 </r>
       <r>    4.8838    1.0000 </r>
       <r>    4.8838    1.0000 </r>
       <r>    5.0213    1.0000 </r>
       <r>    5.0213    1.0000 </r>
       <r>    5.0213    1.0000 </r>
       <r>    6.3932    1.0000 </r>
       <r>    6.3932    1.0000 </r>
       <r>    6.3932    1.0000 </r>
       <r>    6.9051    1.0000 </r>
       <r>    7.3409    1.0000 </r>
       <r>    7.3409    1.0000 </r>
       <r>    7.5988    1.0000 </r>
       <r>    7.5988    1.0000 </r>
       <r>    7.5988    1.0000 </r>
       <r>    9.6050   -0.0221 </r>
       <r>    9.6050   -0.0221 </r>
       <r>    9.6050   -0.0221 </r>
       <r>   12.9982    0.0000 </r>
       <r>   12.9982    0.0000 </r>
       <r>   12.9982    0.0000 </r>
       <r>   14.9335    0.0000 </r>
       <r>   23.7482    0.0000 </r>
       <r>   23.7482    0.0000 </r>
       <r>   23.7482    0.0000 </r>
       <r>   23.8476    0.0000 </r>
       <r>   25.7396    0.0000 </r>
       <r>   25.7396    0.0000 </r>
       <r>   25.7396    0.0000 </r>
       <r>   25.9756    0.0000 </r>
       <r>   25.9756    0.0000 </r>
       <r>   25.9756    0.0000 </r>
       <r>   27.3785    0.0000 </r>
       <r>   27.3785    0.0000 </r>
       <r>   33.9106    0.0000 </r>
       <r>   33.9106    0.0000 </r>
       <r>   34.3870    0.0000 </r>
       <r>   34.5045    0.0000 </r>
       <r>   34.5045    0.0000 </r>
       <r>   34.5045    0.0000 </r>
       <r>   34.8910    0.0000 </r>
       <r>   34.8910    0.0000 </r>
      </set>
     </set>
    </set>
   </array>
  </eigenvalues>
  <separator name="orbital magnetization" >
   <v name="MAGDIPOLOUT">      0.00000000      0.00000000      0.00000000</v>
  </separator>
  <dos>
   <i name="efermi">      9.44299596 </i>
   <total>
    <array>
     <dimension dim="1">gridpoints</dimension>
     <dimension dim="2">spin</dimension>
     <field>energy</field>
     <field>total</field>
     <field>integrated</field>
     <set>
      <set comment="spin 1">
       <r>    -2.2575     0.0000     0.0000 </r>
       <r>    -2.1180     0.0000     0.0000 </r>
       <r>    -1.9785     0.0000     0.0000 </r>
       <r>    -1.8391     0.0000     0.0000 </r>
       <r>    -1.6996     0.0000     0.0000 </r>
       <r>    -1.5601     0.0000     0.0000 </r>
       <r>    -1.4207     0.0000     0.0000 </r>
       <r>    -1.2812    -0.0000    -0.0000 </r>
       <r>    -1.1417    -0.0000    -0.0000 </r>
       <r>    -1.0022    -0.0000    -0.0000 </r>
       <r>    -0.8628    -0.0000    -0.0000 </r>
       <r>    -0.7233    -0.0000    -0.0000 </r>
       <r>    -0.5838    -0.0003    -0.0000 </r>
       <r>    -0.4443    -0.0007    -0.0001 </r>
       <r>    -0.3049     0.1013     0.0140 </r>
       <r>    -0.1654     0.0154     0.0161 </r>
       <r>    -0.0259    -0.0243     0.0127 </r>
       <r>     0.1135     0.4041     0.0691 </r>
       <r>     0.2530     0.3276     0.1148 </r>
       <r>     0.3925    -0.0590     0.1066 </r>
       <r>     0.5320     0.6256     0.1938 </r>
       <r>     0.6714     0.8361     0.3104 </r>
       <r>     0.8109    -0.0719     0.3004 </r>
       <r>     0.9504     0.7424     0.4039 </r>
       <r>     1.0898     0.2159     0.4341 </r>
       <r>     1.2293    -0.0384     0.4287 </r>
       <r>     1.3688     0.4148     0.4866 </r>
       <r>     1.5083     0.2987     0.5282 </r>
       <r>     1.6477     0.1443     0.5483 </r>
       <r>     1.7872     2.4445     0.8893 </r>
       <r>     1.9267     2.2906     1.2088 </r>
       <r>     2.0661     0.6394     1.2979 </r>
       <r>     2.2056     0.4986     1.3675 </r>
       <r>     2.3451     1.7962     1.6180 </r>
       <r>     2.4846     3.7237     2.1374 </r>
       <r>     2.6240     2.7217     2.5170 </r>
       <r>     2.7635     1.3659     2.7075 </r>
       <r>     2.9030     9.5219     4.0355 </r>
       <r>     3.0425    11.6990     5.6672 </r>
       <r>     3.1819     4.1089     6.2403 </r>
       <r>     3.3214     1.8624     6.5000 </r>
       <r>     3.4609     9.7023     7.8532 </r>
       <r>     3.6003     8.5511     9.0459 </r>
       <r>     3.7398     5.5291     9.8170 </r>
       <r>     3.8793     2.0242    10.0993 </r>
       <r>     4.0188     6.1601    10.9585 </r>
       <r>     4.1582    12.6462    12.7223 </r>
       <r>     4.2977     1.9607    12.9957 </r>
       <r>     4.4372     7.9257    14.1011 </r>
       <r>     4.5766     9.8478    15.4746 </r>
       <r>     4.7161     6.6054    16.3959 </r>
       <r>     4.8556     2.8365    16.7915 </r>
       <r>     4.9951    13.7256    18.7059 </r>
       <r>     5.1345    21.4139    21.6925 </r>
       <r>     5.2740     9.8406    23.0650 </r>
       <r>     5.4135     2.2006    23.3719 </r>
       <r>     5.5529     8.0327    24.4922 </r>
       <r>     5.6924     8.9049    25.7342 </r>
       <r>     5.8319     4.8755    26.4142 </r>
       <r>     5.9714     4.5814    27.0532 </r>
       <r>     6.1108    11.6889    28.6835 </r>
       <r>     6.2503     4.9600    29.3753 </r>
       <r>     6.3898     5.5229    30.1456 </r>
       <r>     6.5292    11.5693    31.7591 </r>
       <r>     6.6687    14.0065    33.7127 </r>
       <r>     6.8082     2.9437    34.1232 </r>
       <r>     6.9477     4.1276    34.6989 </r>
       <r>     7.0871     4.7459    35.3608 </r>
       <r>     7.2266     5.9410    36.1894 </r>
       <r>     7.3661     8.1701    37.3289 </r>
       <r>     7.5056    13.5289    39.2158 </r>
       <r>     7.6450    10.1283    40.6284 </r>
       <r>     7.7845     3.9315    41.1768 </r>
       <r>     7.9240     5.6782    41.9687 </r>
       <r>     8.0634     4.3975    42.5821 </r>
       <r>     8.2029     2.0791    42.8720 </r>
       <r>     8.3424     0.4800    42.9390 </r>
       <r>     8.4819     0.1623    42.9616 </r>
       <r>     8.6213    -0.0115    42.9600 </r>
       <r>     8.7608    -0.0000    42.9600 </r>
       <r>     8.9003    -0.0000    42.9600 </r>
       <r>     9.0397    -0.0003    42.9600 </r>
       <r>     9.1792    -0.0858    42.9480 </r>
       <r>     9.3187     1.0531    43.0949 </r>
       <r>     9.4582     6.9144    44.0592 </r>
       <r>     9.5976     1.6267    44.2861 </r>
       <r>     9.7371     1.5022    44.4956 </r>
       <r>     9.8766     1.6733    44.7290 </r>
       <r>    10.0160     1.1560    44.8902 </r>
       <r>    10.1555    -0.0731    44.8801 </r>
       <r>    10.2950    -0.0007    44.8800 </r>
       <r>    10.4345    -0.0166    44.8776 </r>
       <r>    10.5739     0.1803    44.9028 </r>
       <r>    10.7134     2.3439    45.2297 </r>
       <r>    10.8529     1.4840    45.4367 </r>
       <r>    10.9924     0.4244    45.4959 </r>
       <r>    11.1318     1.6045    45.7196 </r>
       <r>    11.2713     1.2865    45.8991 </r>
       <r>    11.4108    -0.1609    45.8766 </r>
       <r>    11.5502     1.3272    46.0618 </r>
       <r>    11.6897     1.6004    46.2850 </r>
       <r>    11.8292    -0.0928    46.2720 </r>
       <r>    11.9687    -0.1277    46.2542 </r>
       <r>    12.1081     1.9924    46.5321 </r>
       <r>    12.2476     5.1853    47.2553 </r>
       <r>    12.3871    -0.1561    47.2335 </r>
       <r>    12.5265    -0.0110    47.2320 </r>
       <r>    12.6660    -0.0494    47.2251 </r>
       <r>    12.8055     0.6973    47.3223 </r>
       <r>    12.9450     2.5015    47.6712 </r>
       <r>    13.0844     2.3299    47.9962 </r>
       <r>    13.2239     0.6973    48.0934 </r>
       <r>    13.3634     0.6814    48.1885 </r>
       <r>    13.5028     1.0405    48.3336 </r>
       <r>    13.6423     1.7491    48.5775 </r>
       <r>    13.7818     4.6837    49.2308 </r>
       <r>    13.9213     0.8733    49.3526 </r>
       <r>    14.0607    -0.0546    49.3450 </r>
       <r>    14.2002     1.2190    49.5150 </r>
       <r>    14.3397     0.4947    49.5840 </r>
       <r>    14.4791     1.0267    49.7272 </r>
       <r>    14.6186     0.9228    49.8559 </r>
       <r>    14.7581     0.4534    49.9191 </r>
       <r>    14.8976     0.5224    49.9920 </r>
       <r>    15.0370     1.8456    50.2494 </r>
       <r>    15.1765    -0.1094    50.2341 </r>
       <r>    15.3160     0.4218    50.2930 </r>
       <r>    15.4555     6.0444    51.1360 </r>
       <r>    15.5949     2.2088    51.4440 </r>
       <r>    15.7344     1.2658    51.6206 </r>
       <r>    15.8739     1.5498    51.8367 </r>
       <r>    16.0133    -0.0904    51.8241 </r>
       <r>    16.1528    -0.0010    51.8240 </r>
       <r>    16.2923    -0.0001    51.8240 </r>
       <r>    16.4318    -0.0495    51.8171 </r>
       <r>    16.5712     0.5949    51.9000 </r>
       <r>    16.7107     4.1169    52.4742 </r>
       <r>    16.8502     0.8812    52.5971 </r>
       <r>    16.9896     1.2836    52.7762 </r>
       <r>    17.1291     1.4468    52.9780 </r>
       <r>    17.2686    -0.0364    52.9729 </r>
       <r>    17.4081     0.1939    52.9999 </r>
       <r>    17.5475     4.0455    53.5642 </r>
       <r>    17.6870     3.9929    54.1211 </r>
       <r>    17.8265     0.4950    54.1901 </r>
       <r>    17.9659     4.8490    54.8664 </r>
       <r>    18.1054     1.3468    55.0542 </r>
       <r>    18.2449     1.6989    55.2912 </r>
       <r>    18.3844     0.1576    55.3132 </r>
       <r>    18.5238     0.4750    55.3794 </r>
       <r>    18.6633    -0.0306    55.3751 </r>
       <r>    18.8028     0.0362    55.3802 </r>
       <r>    18.9423     1.2393    55.5530 </r>
       <r>    19.0817     1.2756    55.7309 </r>
       <r>    19.2212     0.2330    55.7634 </r>
       <r>    19.3607     1.2212    55.9338 </r>
       <r>    19.5001     0.1969    55.9612 </r>
       <r>    19.6396     0.4990    56.0308 </r>
       <r>    19.7791     1.8367    56.2870 </r>
       <r>    19.9186     5.3631    57.0350 </r>
       <r>    20.0580     1.3798    57.2274 </r>
       <r>    20.1975     3.5344    57.7204 </r>
       <r>    20.3370     6.0139    58.5592 </r>
       <r>    20.4764     3.1922    59.0044 </r>
       <r>    20.6159     3.6804    59.5177 </r>
       <r>    20.7554    -0.1858    59.4918 </r>
       <r>    20.8949     1.7466    59.7354 </r>
       <r>    21.0343     1.1645    59.8978 </r>
       <r>    21.1738    -0.2126    59.8682 </r>
       <r>    21.3133     2.9769    60.2834 </r>
       <r>    21.4527     1.3380    60.4700 </r>
       <r>    21.5922     0.6118    60.5553 </r>
       <r>    21.7317     2.1527    60.8555 </r>
       <r>    21.8712     0.0887    60.8679 </r>
       <r>    22.0106     5.4605    61.6295 </r>
       <r>    22.1501     6.5559    62.5438 </r>
       <r>    22.2896     0.2719    62.5818 </r>
       <r>    22.4291    -0.0506    62.5747 </r>
       <r>    22.5685    -0.0288    62.5707 </r>
       <r>    22.7080     2.7150    62.9493 </r>
       <r>    22.8475     4.4111    63.5646 </r>
       <r>    22.9869     3.6132    64.0685 </r>
       <r>    23.1264    -0.1410    64.0488 </r>
       <r>    23.2659    -0.0067    64.0479 </r>
       <r>    23.4054    -0.0231    64.0447 </r>
       <r>    23.5448     0.4864    64.1125 </r>
       <r>    23.6843     0.3842    64.1661 </r>
       <r>    23.8238     2.5730    64.5250 </r>
       <r>    23.9632     6.9170    65.4897 </r>
       <r>    24.1027     2.4602    65.8328 </r>
       <r>    24.2422     7.3581    66.8591 </r>
       <r>    24.3817     3.7268    67.3789 </r>
       <r>    24.5211     1.6547    67.6097 </r>
       <r>    24.6606     1.5650    67.8279 </r>
       <r>    24.8001     1.9535    68.1004 </r>
       <r>    24.9395     0.9450    68.2322 </r>
       <r>    25.0790    -0.1120    68.2166 </r>
       <r>    25.2185     0.7352    68.3191 </r>
       <r>    25.3580     2.9919    68.7364 </r>
       <r>    25.4974     5.1246    69.4511 </r>
       <r>    25.6369     1.7814    69.6996 </r>
       <r>    25.7764     2.4404    70.0400 </r>
       <r>    25.9158     2.5475    70.3953 </r>
       <r>    26.0553     5.0785    71.1036 </r>
       <r>    26.1948     2.4498    71.4453 </r>
       <r>    26.3343     0.4606    71.5095 </r>
       <r>    26.4737     2.3948    71.8435 </r>
       <r>    26.6132     1.1306    72.0012 </r>
       <r>    26.7527     0.9688    72.1363 </r>
       <r>    26.8922     3.6717    72.6484 </r>
       <r>    27.0316     2.4839    72.9948 </r>
       <r>    27.1711     0.6414    73.0843 </r>
       <r>    27.3106     4.0360    73.6472 </r>
       <r>    27.4500     5.0687    74.3541 </r>
       <r>    27.5895     4.7572    75.0176 </r>
       <r>    27.7290     4.4106    75.6328 </r>
       <r>    27.8685     5.2640    76.3670 </r>
       <r>    28.0079    -0.1976    76.3394 </r>
       <r>    28.1474     0.3035    76.3817 </r>
       <r>    28.2869    -0.0824    76.3703 </r>
       <r>    28.4263     2.2274    76.6809 </r>
       <r>    28.5658     4.0832    77.2504 </r>
       <r>    28.7053     4.4210    77.8670 </r>
       <r>    28.8448     4.4994    78.4946 </r>
       <r>    28.9842     0.4469    78.5569 </r>
       <r>    29.1237     0.5815    78.6380 </r>
       <r>    29.2632     2.4021    78.9730 </r>
       <r>    29.4026     3.2367    79.4245 </r>
       <r>    29.5421     6.2464    80.2957 </r>
       <r>    29.6816     0.2814    80.3349 </r>
       <r>    29.8211     0.7958    80.4459 </r>
       <r>    29.9605     1.6673    80.6784 </r>
       <r>    30.1000     0.3230    80.7235 </r>
       <r>    30.2395    -0.0288    80.7194 </r>
       <r>    30.3790    -0.1274    80.7017 </r>
       <r>    30.5184     2.8095    81.0935 </r>
       <r>    30.6579     3.2560    81.5476 </r>
       <r>    30.7974     1.0203    81.6899 </r>
       <r>    30.9368    -0.1519    81.6687 </r>
       <r>    31.0763     1.2120    81.8378 </r>
       <r>    31.2158     2.6982    82.2141 </r>
       <r>    31.3553     5.0009    82.9116 </r>
       <r>    31.4947     3.1891    83.3564 </r>
       <r>    31.6342     2.1611    83.6578 </r>
       <r>    31.7737     0.4399    83.7192 </r>
       <r>    31.9131     1.4954    83.9277 </r>
       <r>    32.0526     3.6777    84.4406 </r>
       <r>    32.1921     1.8715    84.7017 </r>
       <r>    32.3316    -0.0992    84.6878 </r>
       <r>    32.4710    -0.0154    84.6857 </r>
       <r>    32.6105     1.2073    84.8541 </r>
       <r>    32.7500     0.1588    84.8762 </r>
       <r>    32.8894     0.4214    84.9350 </r>
       <r>    33.0289     5.0503    85.6394 </r>
       <r>    33.1684     2.4379    85.9794 </r>
       <r>    33.3079     1.6649    86.2116 </r>
       <r>    33.4473     6.3590    87.0985 </r>
       <r>    33.5868     5.4949    87.8649 </r>
       <r>    33.7263     2.5292    88.2176 </r>
       <r>    33.8657     3.1439    88.6561 </r>
       <r>    34.0052     1.4183    88.8539 </r>
       <r>    34.1447     2.4215    89.1917 </r>
       <r>    34.2842     3.1712    89.6340 </r>
       <r>    34.4236     0.7148    89.7336 </r>
       <r>    34.5631     3.8771    90.2744 </r>
       <r>    34.7026     0.4295    90.3343 </r>
       <r>    34.8421     0.3767    90.3868 </r>
       <r>    34.9815     8.0003    91.5027 </r>
       <r>    35.1210     5.2125    92.2297 </r>
       <r>    35.2605     5.4665    92.9921 </r>
       <r>    35.3999     2.6805    93.3659 </r>
       <r>    35.5394     2.6362    93.7336 </r>
       <r>    35.6789     4.3659    94.3425 </r>
       <r>    35.8184    -0.1198    94.3258 </r>
       <r>    35.9578     4.0049    94.8844 </r>
       <r>    36.0973     5.2236    95.6129 </r>
       <r>    36.2368     2.4742    95.9580 </r>
       <r>    36.3762    -0.1565    95.9362 </r>
       <r>    36.5157    -0.0013    95.9360 </r>
       <r>    36.6552    -0.0000    95.9360 </r>
       <r>    36.7947    -0.0008    95.9359 </r>
       <r>    36.9341    -0.0054    95.9351 </r>
       <r>    37.0736     0.2963    95.9765 </r>
       <r>    37.2131     0.0585    95.9846 </r>
       <r>    37.3525    -0.0044    95.9840 </r>
       <r>    37.4920    -0.0012    95.9838 </r>
       <r>    37.6315     0.0157    95.9860 </r>
       <r>    37.7710     0.1013    96.0001 </r>
       <r>    37.9104    -0.0007    96.0000 </r>
       <r>    38.0499    -0.0003    96.0000 </r>
       <r>    38.1894    -0.0000    96.0000 </r>
       <r>    38.3289    -0.0000    96.0000 </r>
       <r>    38.4683     0.0000    96.0000 </r>
       <r>    38.6078     0.0000    96.0000 </r>
       <r>    38.7473     0.0000    96.0000 </r>
       <r>    38.8867     0.0000    96.0000 </r>
       <r>    39.0262     0.0000    96.0000 </r>
       <r>    39.1657     0.0000    96.0000 </r>
       <r>    39.3052     0.0000    96.0000 </r>
       <r>    39.4446     0.0000    96.0000 </r>
       <r>    39.5841     0.0000    96.0000 </r>
      </set>
     </set>
    </array>
   </total>
  </dos>
 </calculation>
 <structure name="finalpos" >
  <crystal>
   <varray name="basis" >
    <v>       4.08000000       0.00000000       0.00000000 </v>
    <v>       0.00000000       4.08000000       0.00000000 </v>
    <v>       0.00000000       0.00000000       4.08000000 </v>
   </varray>
   <i name="volume">     67.91731200 </i>
   <varray name="rec_basis" >
    <v>       0.24509804       0.00000000       0.00000000 </v>
    <v>       0.00000000       0.24509804       0.00000000 </v>
    <v>       0.00000000       0.00000000       0.24509804 </v>
   </varray>
  </crystal>
  <varray name="positions" >
   <v>       0.00000000       0.00000000       0.00000000 </v>
   <v>       0.00000000       0.50000000       0.50000000 </v>
   <v>       0.50000000       0.00000000       0.50000000 </v>
   <v>       0.50000000       0.50000000       0.00000000 </v>
  </varray>
 </structure>
</modeling>
