   4   4   0   0
  0.1623716E+02  0.4019667E-09  0.4019667E-09  0.4019667E-09  0.5000000E-15
  1.000000000000000E-004
  CAR 
 unknown system                          
     16.43731063      0.95550931  301      8.24169207      1.00000000
      0.956  0.0000E+00  0.0000E+00
      1.007  0.0000E+00  0.0000E+00
      1.059  0.0000E+00  0.0000E+00
      1.110 -0.1369E-30 -0.7065E-32
      1.162 -0.6050E-27 -0.3123E-28
      1.214 -0.1563E-23 -0.8070E-25
      1.265 -0.2359E-20 -0.1218E-21
      1.317 -0.2078E-17 -0.1074E-18
      1.368 -0.1034E-14 -0.5345E-16
      1.420 -0.3081E-12 -0.1595E-13
      1.472 -0.5311E-10 -0.2757E-11
      1.523 -0.5287E-08 -0.2756E-09
      1.575 -0.3022E-06 -0.1587E-07
      1.626 -0.9815E-05 -0.5224E-06
      1.678 -0.1779E-03 -0.9704E-05
      1.730 -0.1733E-02 -0.9913E-04
      1.781 -0.8200E-02 -0.5223E-03
      1.833 -0.1135E-01 -0.1108E-02
      1.884  0.4350E-01  0.1137E-02
      1.936  0.1830E+00  0.1058E-01
      1.988  0.2532E+00  0.2365E-01
      2.039  0.1450E+00  0.3113E-01
      2.091  0.9258E-02  0.3161E-01
      2.142 -0.4900E-01  0.2908E-01
      2.194 -0.1531E-02  0.2900E-01
      2.246  0.3007E+00  0.4452E-01
      2.297  0.7076E+00  0.8103E-01
      2.349  0.6648E+00  0.1153E+00
      2.400  0.2323E+00  0.1273E+00
      2.452 -0.4654E-01  0.1249E+00
      2.504 -0.4222E-01  0.1227E+00
      2.555  0.2462E+00  0.1355E+00
      2.607  0.6751E+00  0.1703E+00
      2.659  0.6957E+00  0.2062E+00
      2.710  0.2693E+00  0.2201E+00
      2.762 -0.4338E-01  0.2179E+00
      2.813  0.5981E-02  0.2182E+00
      2.865  0.4324E+00  0.2405E+00
      2.917  0.9196E+00  0.2879E+00
      2.968  0.8244E+00  0.3305E+00
      3.020  0.2534E+00  0.3435E+00
      3.071 -0.6842E-01  0.3400E+00
      3.123  0.2921E+00  0.3551E+00
      3.175  0.1161E+01  0.4150E+00
      3.226  0.1454E+01  0.4900E+00
      3.278  0.8328E+00  0.5330E+00
      3.329  0.5023E+00  0.5589E+00
      3.381  0.6786E+00  0.5940E+00
      3.433  0.5140E+00  0.6205E+00
      3.484  0.4995E-01  0.6231E+00
      3.536 -0.2046E+00  0.6125E+00
      3.587  0.2415E+00  0.6250E+00
      3.639  0.1862E+01  0.7210E+00
      3.691  0.3437E+01  0.8984E+00
      3.742  0.3304E+01  0.1069E+01
      3.794  0.2852E+01  0.1216E+01
      3.845  0.4064E+01  0.1426E+01
      3.897  0.6159E+01  0.1744E+01
      3.949  0.7301E+01  0.2120E+01
      4.000  0.7292E+01  0.2497E+01
      4.052  0.6728E+01  0.2844E+01
      4.103  0.5839E+01  0.3145E+01
      4.155  0.6083E+01  0.3459E+01
      4.207  0.9597E+01  0.3954E+01
      4.258  0.1405E+02  0.4680E+01
      4.310  0.1420E+02  0.5412E+01
      4.362  0.1066E+02  0.5963E+01
      4.413  0.7158E+01  0.6332E+01
      4.465  0.6527E+01  0.6669E+01
      4.516  0.9200E+01  0.7143E+01
      4.568  0.1071E+02  0.7696E+01
      4.620  0.8973E+01  0.8159E+01
      4.671  0.7194E+01  0.8531E+01
      4.723  0.7858E+01  0.8936E+01
      4.774  0.9065E+01  0.9404E+01
      4.826  0.7839E+01  0.9808E+01
      4.878  0.5054E+01  0.1007E+02
      4.929  0.3354E+01  0.1024E+02
      4.981  0.4357E+01  0.1047E+02
      5.032  0.7612E+01  0.1086E+02
      5.084  0.1019E+02  0.1139E+02
      5.136  0.1000E+02  0.1190E+02
      5.187  0.8200E+01  0.1233E+02
      5.239  0.6465E+01  0.1266E+02
      5.290  0.5150E+01  0.1292E+02
      5.342  0.6332E+01  0.1325E+02
      5.394  0.9053E+01  0.1372E+02
      5.445  0.8169E+01  0.1414E+02
      5.497  0.5866E+01  0.1444E+02
      5.548  0.7210E+01  0.1482E+02
      5.600  0.9317E+01  0.1530E+02
      5.652  0.8788E+01  0.1575E+02
      5.703  0.8023E+01  0.1616E+02
      5.755  0.8791E+01  0.1662E+02
      5.806  0.1036E+02  0.1715E+02
      5.858  0.1167E+02  0.1775E+02
      5.910  0.1079E+02  0.1831E+02
      5.961  0.9659E+01  0.1881E+02
      6.013  0.1109E+02  0.1938E+02
      6.065  0.1288E+02  0.2005E+02
      6.116  0.1375E+02  0.2076E+02
      6.168  0.1402E+02  0.2148E+02
      6.219  0.1325E+02  0.2216E+02
      6.271  0.1160E+02  0.2276E+02
      6.323  0.9476E+01  0.2325E+02
      6.374  0.8030E+01  0.2367E+02
      6.426  0.7328E+01  0.2404E+02
      6.477  0.6780E+01  0.2439E+02
      6.529  0.7559E+01  0.2478E+02
      6.581  0.9778E+01  0.2529E+02
      6.632  0.1046E+02  0.2583E+02
      6.684  0.8211E+01  0.2625E+02
      6.735  0.5725E+01  0.2655E+02
      6.787  0.5136E+01  0.2681E+02
      6.839  0.5410E+01  0.2709E+02
      6.890  0.6069E+01  0.2740E+02
      6.942  0.7924E+01  0.2781E+02
      6.993  0.1041E+02  0.2835E+02
      7.045  0.1210E+02  0.2898E+02
      7.097  0.1250E+02  0.2962E+02
      7.148  0.1194E+02  0.3024E+02
      7.200  0.9563E+01  0.3073E+02
      7.251  0.6372E+01  0.3106E+02
      7.303  0.5333E+01  0.3133E+02
      7.355  0.6281E+01  0.3166E+02
      7.406  0.7932E+01  0.3207E+02
      7.458  0.1034E+02  0.3260E+02
      7.509  0.1147E+02  0.3319E+02
      7.561  0.9244E+01  0.3367E+02
      7.613  0.6301E+01  0.3400E+02
      7.664  0.4848E+01  0.3425E+02
      7.716  0.4585E+01  0.3448E+02
      7.768  0.6804E+01  0.3483E+02
      7.819  0.1019E+02  0.3536E+02
      7.871  0.1117E+02  0.3594E+02
      7.922  0.9675E+01  0.3644E+02
      7.974  0.7832E+01  0.3684E+02
      8.026  0.7077E+01  0.3720E+02
      8.077  0.7913E+01  0.3761E+02
      8.129  0.1144E+02  0.3820E+02
      8.180  0.1606E+02  0.3903E+02
      8.232  0.1619E+02  0.3987E+02
      8.284  0.1110E+02  0.4044E+02
      8.335  0.6286E+01  0.4076E+02
      8.387  0.5525E+01  0.4105E+02
      8.438  0.6762E+01  0.4140E+02
      8.490  0.6244E+01  0.4172E+02
      8.542  0.3775E+01  0.4192E+02
      8.593  0.1358E+01  0.4199E+02
      8.645  0.4710E+00  0.4201E+02
      8.696  0.7025E+00  0.4205E+02
      8.748  0.9277E+00  0.4209E+02
      8.800  0.8858E+00  0.4214E+02
      8.851  0.8113E+00  0.4218E+02
      8.903  0.8881E+00  0.4223E+02
      8.954  0.7641E+00  0.4227E+02
      9.006  0.2993E+00  0.4228E+02
      9.058 -0.3576E-01  0.4228E+02
      9.109  0.1888E-01  0.4228E+02
      9.161  0.3950E+00  0.4230E+02
      9.212  0.6485E+00  0.4234E+02
      9.264  0.5167E+00  0.4236E+02
      9.316  0.9581E+00  0.4241E+02
      9.367  0.2544E+01  0.4254E+02
      9.419  0.3432E+01  0.4272E+02
      9.471  0.2122E+01  0.4283E+02
      9.522  0.5092E+00  0.4286E+02
      9.574  0.5501E+00  0.4288E+02
      9.625  0.1562E+01  0.4297E+02
      9.677  0.1920E+01  0.4306E+02
      9.729  0.1121E+01  0.4312E+02
      9.780  0.1915E+00  0.4313E+02
      9.832 -0.1245E+00  0.4313E+02
      9.883 -0.3896E-01  0.4312E+02
      9.935  0.2998E+00  0.4314E+02
      9.987  0.6552E+00  0.4317E+02
     10.038  0.6170E+00  0.4320E+02
     10.090  0.6766E+00  0.4324E+02
     10.141  0.1405E+01  0.4331E+02
     10.193  0.1882E+01  0.4341E+02
     10.245  0.1494E+01  0.4349E+02
     10.296  0.1635E+01  0.4357E+02
     10.348  0.2736E+01  0.4371E+02
     10.399  0.2987E+01  0.4387E+02
     10.451  0.1765E+01  0.4396E+02
     10.503  0.4043E+00  0.4398E+02
     10.554 -0.1615E+00  0.4397E+02
     10.606 -0.9189E-01  0.4396E+02
     10.657  0.5288E+00  0.4399E+02
     10.709  0.1369E+01  0.4406E+02
     10.761  0.1321E+01  0.4413E+02
     10.812  0.4561E+00  0.4415E+02
     10.864  0.2043E+00  0.4417E+02
     10.915  0.9943E+00  0.4422E+02
     10.967  0.1724E+01  0.4431E+02
     11.019  0.1528E+01  0.4438E+02
     11.070  0.7864E+00  0.4442E+02
     11.122  0.2150E+00  0.4444E+02
     11.173  0.4417E+00  0.4446E+02
     11.225  0.1262E+01  0.4452E+02
     11.277  0.1525E+01  0.4460E+02
     11.328  0.1113E+01  0.4466E+02
     11.380  0.7396E+00  0.4470E+02
     11.432  0.6016E+00  0.4473E+02
     11.483  0.8254E+00  0.4477E+02
     11.535  0.1093E+01  0.4483E+02
     11.586  0.8925E+00  0.4487E+02
     11.638  0.6479E+00  0.4491E+02
     11.690  0.1279E+01  0.4497E+02
     11.741  0.2370E+01  0.4510E+02
     11.793  0.2949E+01  0.4525E+02
     11.844  0.3220E+01  0.4541E+02
     11.896  0.2957E+01  0.4557E+02
     11.948  0.1646E+01  0.4565E+02
     11.999  0.3113E+00  0.4567E+02
     12.051 -0.1282E+00  0.4566E+02
     12.102 -0.8020E-01  0.4566E+02
     12.154 -0.2584E-01  0.4566E+02
     12.206 -0.4733E-01  0.4565E+02
     12.257 -0.7258E-01  0.4565E+02
     12.309  0.2199E+00  0.4566E+02
     12.360  0.1040E+01  0.4571E+02
     12.412  0.1526E+01  0.4579E+02
     12.464  0.9246E+00  0.4584E+02
     12.515  0.9614E-01  0.4585E+02
     12.567 -0.1268E+00  0.4584E+02
     12.618  0.3281E+00  0.4586E+02
     12.670  0.1147E+01  0.4592E+02
     12.722  0.1538E+01  0.4600E+02
     12.773  0.1781E+01  0.4609E+02
     12.825  0.2468E+01  0.4621E+02
     12.876  0.2440E+01  0.4634E+02
     12.928  0.1585E+01  0.4642E+02
     12.980  0.1362E+01  0.4649E+02
     13.031  0.1355E+01  0.4656E+02
     13.083  0.6598E+00  0.4660E+02
     13.135  0.6802E-02  0.4660E+02
     13.186 -0.5478E-01  0.4659E+02
     13.238  0.3188E+00  0.4661E+02
     13.289  0.7021E+00  0.4665E+02
     13.341  0.5840E+00  0.4668E+02
     13.393  0.3033E+00  0.4669E+02
     13.444  0.4868E+00  0.4672E+02
     13.496  0.9651E+00  0.4677E+02
     13.547  0.1443E+01  0.4684E+02
     13.599  0.1490E+01  0.4692E+02
     13.651  0.9834E+00  0.4697E+02
     13.702  0.9978E+00  0.4702E+02
     13.754  0.1438E+01  0.4710E+02
     13.805  0.1045E+01  0.4715E+02
     13.857  0.1943E+00  0.4716E+02
     13.909 -0.1154E+00  0.4715E+02
     13.960  0.3441E+00  0.4717E+02
     14.012  0.1241E+01  0.4723E+02
     14.063  0.1466E+01  0.4731E+02
     14.115  0.7015E+00  0.4735E+02
     14.167  0.2334E-01  0.4735E+02
     14.218 -0.1122E+00  0.4734E+02
     14.270  0.8082E-01  0.4735E+02
     14.321  0.5134E+00  0.4737E+02
     14.373  0.7615E+00  0.4741E+02
     14.425  0.4547E+00  0.4744E+02
     14.476  0.1398E-01  0.4744E+02
     14.528 -0.8304E-01  0.4743E+02
     14.579  0.3880E+00  0.4745E+02
     14.631  0.1268E+01  0.4752E+02
     14.683  0.1815E+01  0.4761E+02
     14.734  0.1869E+01  0.4771E+02
     14.786  0.1485E+01  0.4778E+02
     14.838  0.6377E+00  0.4782E+02
     14.889  0.2390E-01  0.4782E+02
     14.941 -0.7937E-01  0.4781E+02
     14.992 -0.2813E-01  0.4781E+02
     15.044 -0.4240E-02  0.4781E+02
     15.096 -0.3568E-03  0.4781E+02
     15.147 -0.5693E-03  0.4781E+02
     15.199 -0.6330E-02  0.4781E+02
     15.250 -0.3636E-01  0.4781E+02
     15.302 -0.7783E-01  0.4781E+02
     15.354  0.1248E+00  0.4781E+02
     15.405  0.8795E+00  0.4786E+02
     15.457  0.1520E+01  0.4794E+02
     15.508  0.1098E+01  0.4799E+02
     15.560  0.2610E+00  0.4801E+02
     15.612 -0.6810E-01  0.4800E+02
     15.663 -0.4920E-01  0.4800E+02
     15.715 -0.1040E-01  0.4800E+02
     15.766 -0.1068E-02  0.4800E+02
     15.818 -0.5889E-04  0.4800E+02
     15.870 -0.1813E-05  0.4800E+02
     15.921 -0.3172E-07  0.4800E+02
     15.973 -0.3187E-09  0.4800E+02
     16.024 -0.1848E-11  0.4800E+02
     16.076 -0.6454E-14  0.4800E+02
     16.128  0.0000E+00  0.4800E+02
     16.179  0.0000E+00  0.4800E+02
     16.231  0.0000E+00  0.4800E+02
     16.282  0.0000E+00  0.4800E+02
     16.334  0.0000E+00  0.4800E+02
     16.386  0.0000E+00  0.4800E+02
     16.437  0.0000E+00  0.4800E+02
