    4    4    1    1
  0.1623716E+02  0.4019667E-09  0.4019667E-09  0.4019667E-09  0.5000000E-15
  1.000000000000000E-004
  CAR 
 unknown system                          
     40     20     24
 
  0.6250000E-01  0.6250000E-01  0.6250000E-01  0.1562500E-01
    1        1.955509   1.000000
    2        3.696801   1.000000
    3        3.696801   1.000000
    4        3.696801   1.000000
    5        3.936706   1.000000
    6        3.936706   1.000000
    7        3.936706   1.000000
    8        5.780297   1.000000
    9        5.865163   1.000000
   10        5.865163   1.000000
   11        7.180159   1.000000
   12        7.180159   1.000000
   13        8.116126   1.035317
   14        8.116126   1.035317
   15        8.116126   1.035317
   16        8.206294   0.779770
   17        8.206294   0.779770
   18        8.206294   0.779769
   19        8.440045  -0.008428
   20        8.440045  -0.008428
   21        8.440045  -0.008428
   22       11.699026   0.000000
   23       11.699026   0.000000
   24       11.699026   0.000000
 
  0.1875000E+00  0.6250000E-01  0.6250000E-01  0.4687500E-01
    1        2.293594   1.000000
    2        3.840356   1.000000
    3        3.890838   1.000000
    4        3.890838   1.000000
    5        4.060512   1.000000
    6        4.133048   1.000000
    7        4.133048   1.000000
    8        5.629902   1.000000
    9        5.995230   1.000000
   10        5.999957   1.000000
   11        7.018548   1.000000
   12        7.260129   1.000000
   13        7.455092   1.000000
   14        7.455092   1.000000
   15        7.885203   1.000003
   16        7.908365   1.000013
   17        7.908365   1.000013
   18        7.932158   1.000054
   19        8.279354   0.204954
   20        8.422310  -0.014195
   21        8.422310  -0.014195
   22       10.316118  -0.000000
   23       12.678225   0.000000
   24       12.678225   0.000000
 
  0.3125000E+00  0.6250000E-01  0.6250000E-01  0.4687500E-01
    1        2.919279   1.000000
    2        4.052680   1.000000
    3        4.227052   1.000000
    4        4.227052   1.000000
    5        4.296110   1.000000
    6        4.507270   1.000000
    7        4.507270   1.000000
    8        5.340309   1.000000
    9        6.240069   1.000000
   10        6.263207   1.000000
   11        6.548300   1.000000
   12        6.548300   1.000000
   13        6.805184   1.000000
   14        7.310803   1.000000
   15        7.410279   1.000000
   16        7.530378   1.000000
   17        7.530378   1.000000
   18        7.556656   1.000000
   19        8.066349   1.016284
   20        8.415790  -0.016799
   21        8.415790  -0.016799
   22        8.763820  -0.000000
   23       14.021482   0.000000
   24       14.021482   0.000000
 
  0.4375000E+00  0.6250000E-01  0.6250000E-01  0.4687500E-01
    1        3.664429   1.000000
    2        4.109760   1.000000
    3        4.551388   1.000000
    4        4.551388   1.000000
    5        4.616177   1.000000
    6        4.981382   1.000000
    7        5.024447   1.000000
    8        5.024447   1.000000
    9        5.718205   1.000000
   10        5.718205   1.000000
   11        6.355376   1.000000
   12        6.637845   1.000000
   13        6.645899   1.000000
   14        6.966880   1.000000
   15        7.090067   1.000000
   16        7.190732   1.000000
   17        7.190732   1.000000
   18        7.611519   1.000000
   19        7.631321   1.000000
   20        7.838869   1.000000
   21        8.413965  -0.017568
   22        8.413965  -0.017568
   23       15.437311   0.000000
   24       15.437311   0.000000
 
  0.1875000E+00  0.1875000E+00  0.6250000E-01  0.4687500E-01
    1        2.608884   1.000000
    2        4.008015   1.000000
    3        4.034078   1.000000
    4        4.034078   1.000000
    5        4.252521   1.000000
    6        4.252521   1.000000
    7        4.368060   1.000000
    8        5.579940   1.000000
    9        6.048686   1.000000
   10        6.070501   1.000000
   11        6.993851   1.000000
   12        7.085111   1.000000
   13        7.085111   1.000000
   14        7.091229   1.000000
   15        7.281758   1.000000
   16        7.671781   1.000000
   17        7.802222   1.000000
   18        7.802222   1.000000
   19        8.255231   0.386583
   20        8.255231   0.386583
   21        8.288826   0.146045
   22       11.228179   0.000000
   23       11.228179   0.000000
   24       13.459778   0.000000
 
  0.3125000E+00  0.1875000E+00  0.6250000E-01  0.9375000E-01
    1        3.188269   1.000000
    2        4.242505   1.000000
    3        4.273466   1.000000
    4        4.374433   1.000000
    5        4.484202   1.000000
    6        4.611403   1.000000
    7        4.734545   1.000000
    8        5.376968   1.000000
    9        6.157658   1.000000
   10        6.242469   1.000000
   11        6.262197   1.000000
   12        6.419258   1.000000
   13        6.561116   1.000000
   14        6.890763   1.000000
   15        7.369387   1.000000
   16        7.451233   1.000000
   17        7.506261   1.000000
   18        7.512358   1.000000
   19        8.014272   1.002990
   20        8.189226   0.883342
   21        8.195836   0.846495
   22        9.655999  -0.000000
   23       12.383368   0.000000
   24       14.635830   0.000000
 
  0.4375000E+00  0.1875000E+00  0.6250000E-01  0.9375000E-01
    1        3.878327   1.000000
    2        4.303849   1.000000
    3        4.644722   1.000000
    4        4.733380   1.000000
    5        4.776802   1.000000
    6        5.032631   1.000000
    7        5.060077   1.000000
    8        5.083866   1.000000
    9        5.576403   1.000000
   10        5.735334   1.000000
   11        6.071104   1.000000
   12        6.112111   1.000000
   13        6.588591   1.000000
   14        7.001222   1.000000
   15        7.111417   1.000000
   16        7.134229   1.000000
   17        7.177505   1.000000
   18        7.636596   1.000000
   19        7.870765   1.000001
   20        8.160677   0.992600
   21        8.160860   0.992146
   22        8.495477  -0.000976
   23       13.567858   0.000000
   24       14.744224   0.000000
 
  0.3125000E+00  0.3125000E+00  0.6250000E-01  0.4687500E-01
    1        3.667078   1.000000
    2        4.433927   1.000000
    3        4.560896   1.000000
    4        4.560896   1.000000
    5        4.846618   1.000000
    6        4.846618   1.000000
    7        5.056611   1.000000
    8        5.365899   1.000000
    9        5.847925   1.000000
   10        5.847925   1.000000
   11        6.103297   1.000000
   12        6.120047   1.000000
   13        6.345014   1.000000
   14        6.817160   1.000000
   15        7.113964   1.000000
   16        7.288580   1.000000
   17        7.288580   1.000000
   18        7.852480   1.000000
   19        7.852480   1.000000
   20        7.899238   1.000007
   21        7.954584   1.000189
   22       10.708520  -0.000000
   23       10.708520  -0.000000
   24       14.344654   0.000000
 
  0.4375000E+00  0.3125000E+00  0.6250000E-01  0.9375000E-01
    1        4.217772   1.000000
    2        4.583666   1.000000
    3        4.722733   1.000000
    4        4.930446   1.000000
    5        5.107854   1.000000
    6        5.111716   1.000000
    7        5.227506   1.000000
    8        5.257505   1.000000
    9        5.462423   1.000000
   10        5.656864   1.000000
   11        5.739550   1.000000
   12        5.903896   1.000000
   13        6.551050   1.000000
   14        6.903456   1.000000
   15        6.919573   1.000000
   16        6.996202   1.000000
   17        7.021913   1.000000
   18        7.435934   1.000000
   19        7.774918   1.000000
   20        7.807519   1.000000
   21        8.510103  -0.000489
   22        9.400335  -0.000000
   23       11.807521   0.000000
   24       12.990559   0.000000
 
  0.4375000E+00  0.4375000E+00  0.6250000E-01  0.4687500E-01
    1        4.538329   1.000000
    2        4.778076   1.000000
    3        4.778076   1.000000
    4        4.779046   1.000000
    5        5.369170   1.000000
    6        5.382666   1.000000
    7        5.382666   1.000000
    8        5.389040   1.000000
    9        5.567416   1.000000
   10        5.567416   1.000000
   11        5.743195   1.000000
   12        5.838293   1.000000
   13        6.502173   1.000000
   14        6.692470   1.000000
   15        6.718943   1.000000
   16        6.718943   1.000000
   17        7.030293   1.000000
   18        7.357414   1.000000
   19        7.357414   1.000000
   20        7.500804   1.000000
   21        9.335472  -0.000000
   22       10.397948  -0.000000
   23       10.397948  -0.000000
   24       11.558129   0.000000
 
  0.1875000E+00  0.1875000E+00  0.1875000E+00  0.1562500E-01
    1        2.880273   1.000000
    2        4.114745   1.000000
    3        4.114745   1.000000
    4        4.114745   1.000000
    5        4.506720   1.000000
    6        4.506720   1.000000
    7        4.506720   1.000000
    8        5.620223   1.000000
    9        6.070603   1.000000
   10        6.070603   1.000000
   11        6.799407   1.000000
   12        6.799407   1.000000
   13        6.799407   1.000000
   14        7.170037   1.000000
   15        7.170037   1.000000
   16        7.376518   1.000000
   17        7.376518   1.000000
   18        7.376518   1.000000
   19        8.333613  -0.014585
   20        8.333613  -0.014585
   21        8.333613  -0.014585
   22       11.863063   0.000000
   23       11.863063   0.000000
   24       11.863063   0.000000
 
  0.3125000E+00  0.1875000E+00  0.1875000E+00  0.4687500E-01
    1        3.362975   1.000000
    2        4.244047   1.000000
    3        4.338589   1.000000
    4        4.338589   1.000000
    5        4.786584   1.000000
    6        4.860301   1.000000
    7        4.860301   1.000000
    8        5.554709   1.000000
    9        6.113706   1.000000
   10        6.159912   1.000000
   11        6.227021   1.000000
   12        6.227021   1.000000
   13        6.345190   1.000000
   14        6.995823   1.000000
   15        7.139208   1.000000
   16        7.139208   1.000000
   17        7.145664   1.000000
   18        7.455491   1.000000
   19        8.238008   0.531158
   20        8.238008   0.531158
   21        8.265926   0.301443
   22       10.124422  -0.000000
   23       12.801743   0.000000
   24       12.801743   0.000000
 
  0.4375000E+00  0.1875000E+00  0.1875000E+00  0.4687500E-01
    1        3.905398   1.000000
    2        4.238213   1.000000
    3        4.678720   1.000000
    4        4.678720   1.000000
    5        5.006897   1.000000
    6        5.006897   1.000000
    7        5.134606   1.000000
    8        5.389268   1.000000
    9        5.850724   1.000000
   10        5.850724   1.000000
   11        5.975372   1.000000
   12        5.986973   1.000000
   13        6.347571   1.000000
   14        6.634715   1.000000
   15        6.933008   1.000000
   16        6.933008   1.000000
   17        7.630917   1.000000
   18        7.776529   1.000000
   19        8.066588   1.016382
   20        8.141235   1.025595
   21        8.141235   1.025595
   22        8.664825  -0.000000
   23       13.734276   0.000000
   24       13.734276   0.000000
 
  0.3125000E+00  0.3125000E+00  0.1875000E+00  0.4687500E-01
    1        3.655147   1.000000
    2        4.357376   1.000000
    3        4.357376   1.000000
    4        4.393656   1.000000
    5        5.127980   1.000000
    6        5.146245   1.000000
    7        5.146245   1.000000
    8        5.782171   1.000000
    9        5.990884   1.000000
   10        5.990884   1.000000
   11        6.089621   1.000000
   12        6.119660   1.000000
   13        6.166562   1.000000
   14        6.792971   1.000000
   15        6.799577   1.000000
   16        6.799577   1.000000
   17        7.202029   1.000000
   18        7.762447   1.000000
   19        8.154759   1.005720
   20        8.188310   0.888104
   21        8.188310   0.888104
   22       10.935999  -0.000000
   23       10.935999  -0.000000
   24       13.279633   0.000000
 
  0.4375000E+00  0.3125000E+00  0.1875000E+00  0.9375000E-01
    1        3.976489   1.000000
    2        4.235727   1.000000
    3        4.503933   1.000000
    4        4.505621   1.000000
    5        5.204976   1.000000
    6        5.220501   1.000000
    7        5.550019   1.000000
    8        5.827241   1.000000
    9        5.853453   1.000000
   10        5.938690   1.000000
   11        6.013296   1.000000
   12        6.150093   1.000000
   13        6.226517   1.000000
   14        6.468594   1.000000
   15        6.608472   1.000000
   16        6.653021   1.000000
   17        7.504720   1.000000
   18        7.951045   1.000156
   19        8.028179   1.005043
   20        8.037834   1.007043
   21        8.361662  -0.035358
   22        9.394768  -0.000000
   23       11.883048   0.000000
   24       12.852277   0.000000
 
  0.4375000E+00  0.4375000E+00  0.1875000E+00  0.4687500E-01
    1        4.101962   1.000000
    2        4.283703   1.000000
    3        4.283703   1.000000
    4        4.368570   1.000000
    5        5.404763   1.000000
    6        5.525267   1.000000
    7        5.525267   1.000000
    8        5.746791   1.000000
    9        6.162219   1.000000
   10        6.171001   1.000000
   11        6.171001   1.000000
   12        6.329362   1.000000
   13        6.363706   1.000000
   14        6.372727   1.000000
   15        6.412396   1.000000
   16        6.412396   1.000000
   17        7.464581   1.000000
   18        7.771680   1.000000
   19        7.771680   1.000000
   20        7.829489   1.000000
   21        9.192200  -0.000000
   22       10.335720  -0.000000
   23       10.335720  -0.000000
   24       11.481567   0.000000
 
  0.3125000E+00  0.3125000E+00  0.3125000E+00  0.1562500E-01
    1        3.694571   1.000000
    2        4.235367   1.000000
    3        4.235367   1.000000
    4        4.235367   1.000000
    5        5.347470   1.000000
    6        5.347470   1.000000
    7        5.347470   1.000000
    8        5.996429   1.000000
    9        5.996429   1.000000
   10        6.283559   1.000000
   11        6.283559   1.000000
   12        6.283559   1.000000
   13        6.440664   1.000000
   14        6.440664   1.000000
   15        6.440664   1.000000
   16        6.496250   1.000000
   17        7.616778   1.000000
   18        7.616778   1.000000
   19        8.268829   0.279456
   20        8.268829   0.279456
   21        8.268829   0.279456
   22       11.346328   0.000000
   23       11.346328   0.000000
   24       11.346328   0.000000
 
  0.4375000E+00  0.3125000E+00  0.3125000E+00  0.4687500E-01
    1        3.817766   1.000000
    2        4.014165   1.000000
    3        4.183295   1.000000
    4        4.183295   1.000000
    5        5.400917   1.000000
    6        5.400917   1.000000
    7        5.636115   1.000000
    8        5.866065   1.000000
    9        6.011125   1.000000
   10        6.165304   1.000000
   11        6.270929   1.000000
   12        6.270929   1.000000
   13        6.491266   1.000000
   14        6.602215   1.000000
   15        6.602215   1.000000
   16        6.729473   1.000000
   17        7.974825   1.000527
   18        8.172111   0.958403
   19        8.172111   0.958403
   20        8.191375   0.871833
   21        8.208002   0.767962
   22        9.590554  -0.000000
   23       11.730697   0.000000
   24       11.730697   0.000000
 
  0.4375000E+00  0.4375000E+00  0.3125000E+00  0.4687500E-01
    1        3.802318   1.000000
    2        3.930962   1.000000
    3        3.930962   1.000000
    4        3.988256   1.000000
    5        5.565972   1.000000
    6        5.640057   1.000000
    7        5.640057   1.000000
    8        5.819493   1.000000
    9        5.919511   1.000000
   10        6.025732   1.000000
   11        6.025732   1.000000
   12        6.057388   1.000000
   13        7.045849   1.000000
   14        7.045849   1.000000
   15        7.052698   1.000000
   16        7.325774   1.000000
   17        7.865852   1.000001
   18        8.112394   1.034805
   19        8.112510   1.034826
   20        8.112510   1.034826
   21        8.910818  -0.000000
   22       10.182189  -0.000000
   23       10.182189  -0.000000
   24       11.024680   0.000000
 
  0.4375000E+00  0.4375000E+00  0.4375000E+00  0.1562500E-01
    1        3.683737   1.000000
    2        3.749448   1.000000
    3        3.749448   1.000000
    4        3.749448   1.000000
    5        5.725834   1.000000
    6        5.725834   1.000000
    7        5.725834   1.000000
    8        5.816506   1.000000
    9        5.816506   1.000000
   10        5.864942   1.000000
   11        5.864942   1.000000
   12        5.864942   1.000000
   13        7.706773   1.000000
   14        7.706773   1.000000
   15        7.706773   1.000000
   16        8.141025   1.025805
   17        8.141025   1.025805
   18        8.228954   0.606832
   19        8.228954   0.606832
   20        8.228954   0.606832
   21        8.848127  -0.000000
   22        9.979420  -0.000000
   23        9.979420  -0.000000
   24        9.979420  -0.000000
