       N       E                     dE             d eps       ncg     rms          rms(c)
DAV:   1     0.143495670724E+03    0.14350E+03   -0.18355E+04   960   0.129E+03
DAV:   2    -0.208573387717E+02   -0.16435E+03   -0.16407E+03  1536   0.241E+02
DAV:   3    -0.217401232348E+02   -0.88278E+00   -0.86981E+00   984   0.265E+01
DAV:   4    -0.217458081245E+02   -0.56849E-02   -0.56384E-02  1056   0.147E+00
DAV:   5    -0.217458701477E+02   -0.62023E-04   -0.62021E-04  1104   0.167E-01    0.118E+01
DAV:   6    -0.207853725898E+02    0.96050E+00   -0.57323E+00   960   0.156E+01    0.572E+00
DAV:   7    -0.207635094635E+02    0.21863E-01   -0.12781E-02   960   0.831E-01    0.313E+00
DAV:   8    -0.207544737467E+02    0.90357E-02   -0.32660E-03  1008   0.339E-01    0.385E-02
DAV:   9    -0.207544979431E+02   -0.24196E-04   -0.26153E-05   576   0.343E-02
   1 F= -.20754498E+02 E0= -.20752681E+02  d E =-.545105E-02
