 vasp.5.4.1 05Feb16 (build Feb 08 2018 09:21:51) complex                        
  
 executed on             LinuxIFC date 2019.11.20  21:33:08
 running on   24 total cores
 distrk:  each k-point on   24 cores,    1 groups
 distr:  one band on NCORES_PER_BAND=   1 cores,   24 groups


--------------------------------------------------------------------------------------------------------


 INCAR:
 POTCAR:    PAW_PBE Pd 04Jan2005                  

 ----------------------------------------------------------------------------- 
|                                                                             |
|           W    W    AA    RRRRR   N    N  II  N    N   GGGG   !!!           |
|           W    W   A  A   R    R  NN   N  II  NN   N  G    G  !!!           |
|           W    W  A    A  R    R  N N  N  II  N N  N  G       !!!           |
|           W WW W  AAAAAA  RRRRR   N  N N  II  N  N N  G  GGG   !            |
|           WW  WW  A    A  R   R   N   NN  II  N   NN  G    G                |
|           W    W  A    A  R    R  N    N  II  N    N   GGGG   !!!           |
|                                                                             |
|      For optimal performance we recommend to set                            |
|        NCORE= 4 - approx SQRT( number of cores)                             |
|      NCORE specifies how many cores store one orbital (NPAR=cpu/NCORE).     |
|      This setting can  greatly improve the performance of VASP for DFT.     |
|      The default, NPAR=number of cores might be grossly inefficient         |
|      on modern multi-core architectures or massively parallel machines.     |
|      Do your own testing !!!!                                               |
|      Unfortunately you need to use the default for GW and RPA calculations. |
|      (for HF NCORE is supported but not extensively tested yet)             |
|                                                                             |
 ----------------------------------------------------------------------------- 

 POTCAR:    PAW_PBE Pd 04Jan2005                  
   VRHFIN =Pd : s1 d9                                                           
   LEXCH  = PE                                                                  
   EATOM  =   809.7530 eV,   59.5152 Ry                                         
                                                                                
   TITEL  = PAW_PBE Pd 04Jan2005                                                
   LULTRA =        F    use ultrasoft PP ?                                      
   IUNSCR =        1    unscreen: 0-lin 1-nonlin 2-no                           
   RPACOR =    2.000    partial core radius                                     
   POMASS =  106.420; ZVAL   =   10.000    mass and valenz                      
   RCORE  =    2.600    outmost cutoff radius                                   
   RWIGS  =    2.710; RWIGS  =    1.434    wigner-seitz radius (au A)           
   ENMAX  =  250.925; ENMIN  =  188.194 eV                                      
   ICORE  =        3    local potential                                         
   LCOR   =        T    correct aug charges                                     
   LPAW   =        T    paw PP                                                  
   EAUG   =  416.230                                                            
   DEXC   =    0.000                                                            
   RMAX   =    2.653    core radius for proj-oper                               
   RAUG   =    1.300    factor for augmentation sphere                          
   RDEP   =    2.734    radius for radial grids                                 
   RDEPT  =    2.103    core radius for aug-charge                              
                                                                                
   Atomic configuration                                                         
   12 entries                                                                   
     n  l   j            E        occ.                                          
     1  0  0.50    -24164.6631   2.0000                                         
     2  0  0.50     -3530.9218   2.0000                                         
     2  1  1.50     -3165.6822   6.0000                                         
     3  0  0.50      -639.4577   2.0000                                         
     3  1  1.50      -519.4532   6.0000                                         
     3  2  2.50      -328.9757  10.0000                                         
     4  0  0.50       -88.7014   2.0000                                         
     4  1  1.50       -54.4540   6.0000                                         
     4  2  2.50        -6.6878   9.0000                                         
     5  0  0.50        -4.3543   1.0000                                         
     5  1  0.50        -1.3606   0.0000                                         
     4  3  2.50        -1.3606   0.0000                                         
   Description                                                                  
     l       E           TYP  RCUT    TYP  RCUT                                 
     2     -6.6878251     23  2.400                                             
     2     -8.0484077     23  2.400                                             
     0     -4.3542939     23  2.400                                             
     0      4.3406793     23  2.400                                             
     1     -4.0817478     23  2.600                                             
     1     15.8380318     23  2.600                                             
     3     -4.0817478     23  2.400                                             
  local pseudopotential read in
  partial core-charges read in
  partial kinetic energy density read in
  atomic valenz-charges read in
  non local Contribution for L=           2  read in
    real space projection operators read in
  non local Contribution for L=           2  read in
    real space projection operators read in
  non local Contribution for L=           0  read in
    real space projection operators read in
  non local Contribution for L=           0  read in
    real space projection operators read in
  non local Contribution for L=           1  read in
    real space projection operators read in
  non local Contribution for L=           1  read in
    real space projection operators read in
    PAW grid and wavefunctions read in
 
   number of l-projection  operators is LMAX  =           6
   number of lm-projection operators is LMMAX =          18
 
  PAW_PBE Pd 04Jan2005                  :
 energy of atom  1       EATOM= -809.7530
 kinetic energy error for atom=    0.0091 (will be added to EATOM!!)
 
 
 POSCAR: Pd                                      
  positions in cartesian coordinates
  No initial velocities read in
 exchange correlation table for  LEXCH =        8
   RHO(1)=    0.500       N(1)  =     2000
   RHO(2)=  100.500       N(2)  =     4000
 


--------------------------------------------------------------------------------------------------------


 ion  position               nearest neighbor table
   1  0.000  0.000  0.000-   2 2.84   3 2.84   4 2.84   2 2.84   3 2.84   2 2.84   4 2.84   2 2.84
                             3 2.84   4 2.84   3 2.84   4 2.84
   2  0.000  0.500  0.500-   1 2.84   3 2.84   4 2.84   1 2.84   4 2.84   1 2.84   3 2.84   1 2.84
                             3 2.84   4 2.84   4 2.84   3 2.84
   3  0.500  0.000  0.500-   1 2.84   2 2.84   4 2.84   1 2.84   4 2.84   2 2.84   4 2.84   4 2.84
                             1 2.84   2 2.84   1 2.84   2 2.84
   4  0.500  0.500  0.000-   1 2.84   2 2.84   3 2.84   2 2.84   3 2.84   1 2.84   3 2.84   3 2.84
                             1 2.84   2 2.84   2 2.84   1 2.84
 
  LATTYP: Found a simple cubic cell.
 ALAT       =     4.0196666667
  
  Lattice vectors:
  
 A1 = (   4.0196666667,   0.0000000000,   0.0000000000)
 A2 = (   0.0000000000,   4.0196666667,   0.0000000000)
 A3 = (   0.0000000000,   0.0000000000,   4.0196666667)


Analysis of symmetry for initial positions (statically):
=====================================================================
 Subroutine PRICEL returns following result:
 
  LATTYP: Found a face centered cubic cell.
 ALAT       =     4.0196666667
  
  Lattice vectors:
  
 A1 = (   2.0098333333,   2.0098333333,   0.0000000000)
 A2 = (   2.0098333333,   0.0000000000,  -2.0098333333)
 A3 = (   0.0000000000,   2.0098333333,  -2.0098333333)
 
   4 primitive cells build up your supercell.
 

 Routine SETGRP: Setting up the symmetry group for a 
 simple cubic supercell.


 Subroutine GETGRP returns: Found 48 space group operations
 (whereof 48 operations were pure point group operations)
 out of a pool of 48 trial point group operations.


The static configuration has the point symmetry O_h .


Analysis of symmetry for dynamics (positions and initial velocities):
=====================================================================
 Subroutine PRICEL returns following result:
 
  LATTYP: Found a face centered cubic cell.
 ALAT       =     4.0196666667
  
  Lattice vectors:
  
 A1 = (   2.0098333333,   2.0098333333,   0.0000000000)
 A2 = (   2.0098333333,   0.0000000000,  -2.0098333333)
 A3 = (   0.0000000000,   2.0098333333,  -2.0098333333)
 
   4 primitive cells build up your supercell.
 

 Routine SETGRP: Setting up the symmetry group for a 
 simple cubic supercell.


 Subroutine GETGRP returns: Found 48 space group operations
 (whereof 48 operations were pure point group operations)
 out of a pool of 48 trial point group operations.


The dynamic configuration has the point symmetry O_h .


 Subroutine INISYM returns: Found 48 space group operations
 (whereof 48 operations are pure point group operations),
 and found     4 'primitive' translations

 
 
 KPOINTS: KPOINTS created by Atomic Simulation Env

Automatic generation of k-mesh.
Space group operators:
 irot       det(A)        alpha          n_x          n_y          n_z        tau_x        tau_y        tau_z
    1     1.000000     0.000001     1.000000     0.000000     0.000000     0.000000     0.000000     0.000000
    2    -1.000000     0.000001     1.000000     0.000000     0.000000     0.000000     0.000000     0.000000
    3     1.000000   120.000000    -0.577350    -0.577350    -0.577350     0.000000     0.000000     0.000000
    4    -1.000000   120.000000    -0.577350    -0.577350    -0.577350     0.000000     0.000000     0.000000
    5     1.000000   120.000000     0.577350     0.577350     0.577350     0.000000     0.000000     0.000000
    6    -1.000000   120.000000     0.577350     0.577350     0.577350     0.000000     0.000000     0.000000
    7     1.000000    90.000000     0.000000     0.000000    -1.000000     0.000000     0.000000     0.000000
    8    -1.000000    90.000000     0.000000     0.000000    -1.000000     0.000000     0.000000     0.000000
    9     1.000000   180.000000     0.000000     0.707107     0.707107     0.000000     0.000000     0.000000
   10    -1.000000   180.000000     0.000000     0.707107     0.707107     0.000000     0.000000     0.000000
   11     1.000000    90.000000     0.000000     1.000000     0.000000     0.000000     0.000000     0.000000
   12    -1.000000    90.000000     0.000000     1.000000     0.000000     0.000000     0.000000     0.000000
   13     1.000000   180.000000     0.000000     0.000000     1.000000     0.000000     0.000000     0.000000
   14    -1.000000   180.000000     0.000000     0.000000     1.000000     0.000000     0.000000     0.000000
   15     1.000000   120.000000    -0.577350     0.577350     0.577350     0.000000     0.000000     0.000000
   16    -1.000000   120.000000    -0.577350     0.577350     0.577350     0.000000     0.000000     0.000000
   17     1.000000   120.000000    -0.577350     0.577350    -0.577350     0.000000     0.000000     0.000000
   18    -1.000000   120.000000    -0.577350     0.577350    -0.577350     0.000000     0.000000     0.000000
   19     1.000000    90.000000     0.000000     0.000000     1.000000     0.000000     0.000000     0.000000
   20    -1.000000    90.000000     0.000000     0.000000     1.000000     0.000000     0.000000     0.000000
   21     1.000000    90.000000    -1.000000     0.000000     0.000000     0.000000     0.000000     0.000000
   22    -1.000000    90.000000    -1.000000     0.000000     0.000000     0.000000     0.000000     0.000000
   23     1.000000   180.000000     0.707107     0.000000     0.707107     0.000000     0.000000     0.000000
   24    -1.000000   180.000000     0.707107     0.000000     0.707107     0.000000     0.000000     0.000000
   25     1.000000   120.000000     0.577350    -0.577350     0.577350     0.000000     0.000000     0.000000
   26    -1.000000   120.000000     0.577350    -0.577350     0.577350     0.000000     0.000000     0.000000
   27     1.000000   120.000000    -0.577350    -0.577350     0.577350     0.000000     0.000000     0.000000
   28    -1.000000   120.000000    -0.577350    -0.577350     0.577350     0.000000     0.000000     0.000000
   29     1.000000   180.000000     1.000000     0.000000     0.000000     0.000000     0.000000     0.000000
   30    -1.000000   180.000000     1.000000     0.000000     0.000000     0.000000     0.000000     0.000000
   31     1.000000    90.000000     0.000000    -1.000000     0.000000     0.000000     0.000000     0.000000
   32    -1.000000    90.000000     0.000000    -1.000000     0.000000     0.000000     0.000000     0.000000
   33     1.000000   180.000000     0.707107     0.707107     0.000000     0.000000     0.000000     0.000000
   34    -1.000000   180.000000     0.707107     0.707107     0.000000     0.000000     0.000000     0.000000
   35     1.000000    90.000000     1.000000     0.000000     0.000000     0.000000     0.000000     0.000000
   36    -1.000000    90.000000     1.000000     0.000000     0.000000     0.000000     0.000000     0.000000
   37     1.000000   120.000000     0.577350    -0.577350    -0.577350     0.000000     0.000000     0.000000
   38    -1.000000   120.000000     0.577350    -0.577350    -0.577350     0.000000     0.000000     0.000000
   39     1.000000   180.000000     0.000000     1.000000     0.000000     0.000000     0.000000     0.000000
   40    -1.000000   180.000000     0.000000     1.000000     0.000000     0.000000     0.000000     0.000000
   41     1.000000   120.000000     0.577350     0.577350    -0.577350     0.000000     0.000000     0.000000
   42    -1.000000   120.000000     0.577350     0.577350    -0.577350     0.000000     0.000000     0.000000
   43     1.000000   180.000000     0.000000    -0.707107     0.707107     0.000000     0.000000     0.000000
   44    -1.000000   180.000000     0.000000    -0.707107     0.707107     0.000000     0.000000     0.000000
   45     1.000000   180.000000     0.707107    -0.707107     0.000000     0.000000     0.000000     0.000000
   46    -1.000000   180.000000     0.707107    -0.707107     0.000000     0.000000     0.000000     0.000000
   47     1.000000   180.000000     0.707107     0.000000    -0.707107     0.000000     0.000000     0.000000
   48    -1.000000   180.000000     0.707107     0.000000    -0.707107     0.000000     0.000000     0.000000
 
 Subroutine IBZKPT returns following result:
 ===========================================
 
 Found     20 irreducible k-points:
 
 Following reciprocal coordinates:
            Coordinates               Weight
  0.062500  0.062500  0.062500      8.000000
  0.187500  0.062500  0.062500     24.000000
  0.312500  0.062500  0.062500     24.000000
  0.437500  0.062500  0.062500     24.000000
  0.187500  0.187500  0.062500     24.000000
  0.312500  0.187500  0.062500     48.000000
  0.437500  0.187500  0.062500     48.000000
  0.312500  0.312500  0.062500     24.000000
  0.437500  0.312500  0.062500     48.000000
  0.437500  0.437500  0.062500     24.000000
  0.187500  0.187500  0.187500      8.000000
  0.312500  0.187500  0.187500     24.000000
  0.437500  0.187500  0.187500     24.000000
  0.312500  0.312500  0.187500     24.000000
  0.437500  0.312500  0.187500     48.000000
  0.437500  0.437500  0.187500     24.000000
  0.312500  0.312500  0.312500      8.000000
  0.437500  0.312500  0.312500     24.000000
  0.437500  0.437500  0.312500     24.000000
  0.437500  0.437500  0.437500      8.000000
 
 Following cartesian coordinates:
            Coordinates               Weight
  0.015549  0.015549  0.015549      8.000000
  0.046646  0.015549  0.015549     24.000000
  0.077743  0.015549  0.015549     24.000000
  0.108840  0.015549  0.015549     24.000000
  0.046646  0.046646  0.015549     24.000000
  0.077743  0.046646  0.015549     48.000000
  0.108840  0.046646  0.015549     48.000000
  0.077743  0.077743  0.015549     24.000000
  0.108840  0.077743  0.015549     48.000000
  0.108840  0.108840  0.015549     24.000000
  0.046646  0.046646  0.046646      8.000000
  0.077743  0.046646  0.046646     24.000000
  0.108840  0.046646  0.046646     24.000000
  0.077743  0.077743  0.046646     24.000000
  0.108840  0.077743  0.046646     48.000000
  0.108840  0.108840  0.046646     24.000000
  0.077743  0.077743  0.077743      8.000000
  0.108840  0.077743  0.077743     24.000000
  0.108840  0.108840  0.077743     24.000000
  0.108840  0.108840  0.108840      8.000000
 


--------------------------------------------------------------------------------------------------------




 Dimension of arrays:
   k-points           NKPTS =     20   k-points in BZ     NKDIM =     20   number of bands    NBANDS=     24
   number of dos      NEDOS =    301   number of ions     NIONS =      4
   non local maximal  LDIM  =      6   non local SUM 2l+1 LMDIM =     18
   total plane-waves  NPLWV =   8000
   max r-space proj   IRMAX =      1   max aug-charges    IRDMAX=   6174
   dimension x,y,z NGX =    20 NGY =   20 NGZ =   20
   dimension x,y,z NGXF=    40 NGYF=   40 NGZF=   40
   support grid    NGXF=    40 NGYF=   40 NGZF=   40
   ions per type =               4
 NGX,Y,Z   is equivalent  to a cutoff of   8.27,  8.27,  8.27 a.u.
 NGXF,Y,Z  is equivalent  to a cutoff of  16.54, 16.54, 16.54 a.u.


 I would recommend the setting:
   dimension x,y,z NGX =    20 NGY =   20 NGZ =   20
 SYSTEM =  unknown system                          
 POSCAR =  Pd                                      

 Startparameter for this run:
   NWRITE =      2    write-flag & timer
   PREC   = normal    normal or accurate (medium, high low for compatibility)
   ISTART =      0    job   : 0-new  1-cont  2-samecut
   ICHARG =      2    charge: 1-file 2-atom 10-const
   ISPIN  =      1    spin polarized calculation?
   LNONCOLLINEAR =      F non collinear calculations
   LSORBIT =      F    spin-orbit coupling
   INIWAV =      1    electr: 0-lowe 1-rand  2-diag
   LASPH  =      F    aspherical Exc in radial PAW
   METAGGA=      F    non-selfconsistent MetaGGA calc.

 Electronic Relaxation 1
   ENCUT  =  400.0 eV  29.40 Ry    5.42 a.u.   6.56  6.56  6.56*2*pi/ulx,y,z
   ENINI  =  400.0     initial cutoff
   ENAUG  =  416.2 eV  augmentation charge cutoff
   NELM   =     60;   NELMIN=  2; NELMDL= -5     # of ELM steps 
   EDIFF  = 0.1E-03   stopping-criterion for ELM
   LREAL  =      F    real-space projection
   NLSPLINE    = F    spline interpolate recip. space projectors
   LCOMPAT=      F    compatible to vasp.4.4
   GGA_COMPAT  = T    GGA compatible to vasp.4.4-vasp.4.6
   LMAXPAW     = -100 max onsite density
   LMAXMIX     =    2 max onsite mixed and CHGCAR
   VOSKOWN=      0    Vosko Wilk Nusair interpolation
   ROPT   =    0.00000
 Ionic relaxation
   EDIFFG = 0.1E-02   stopping-criterion for IOM
   NSW    =      0    number of steps for IOM
   NBLOCK =      1;   KBLOCK =      1    inner block; outer block 
   IBRION =     -1    ionic relax: 0-MD 1-quasi-New 2-CG
   NFREE  =      0    steps in history (QN), initial steepest desc. (CG)
   ISIF   =      2    stress and relaxation
   IWAVPR =     10    prediction:  0-non 1-charg 2-wave 3-comb
   ISYM   =      2    0-nonsym 1-usesym 2-fastsym
   LCORR  =      T    Harris-Foulkes like correction to forces

   POTIM  = 0.5000    time-step for ionic-motion
   TEIN   =    0.0    initial temperature
   TEBEG  =    0.0;   TEEND  =   0.0 temperature during run
   SMASS  =  -3.00    Nose mass-parameter (am)
   estimated Nose-frequenzy (Omega)   =  0.10E-29 period in steps =****** mass=  -0.369E-27a.u.
   SCALEE = 1.0000    scale energy and forces
   NPACO  =    256;   APACO  = 16.0  distance and # of slots for P.C.
   PSTRESS=    0.0 pullay stress

  Mass of Ions in am
   POMASS = 106.42
  Ionic Valenz
   ZVAL   =  10.00
  Atomic Wigner-Seitz radii
   RWIGS  =  -1.00
  virtual crystal weights 
   VCA    =   1.00
   NELECT =      40.0000    total number of electrons
   NUPDOWN=      -1.0000    fix difference up-down

 DOS related values:
   EMIN   =  10.00;   EMAX   =-10.00  energy-range for DOS
   EFERMI =   0.00
   ISMEAR =     1;   SIGMA  =   0.10  broadening in eV -4-tet -1-fermi 0-gaus

 Electronic relaxation 2 (details)
   IALGO  =     38    algorithm
   LDIAG  =      T    sub-space diagonalisation (order eigenvalues)
   LSUBROT=      F    optimize rotation matrix (better conditioning)
   TURBO    =      0    0=normal 1=particle mesh
   IRESTART =      0    0=no restart 2=restart with 2 vectors
   NREBOOT  =      0    no. of reboots
   NMIN     =      0    reboot dimension
   EREF     =   0.00    reference energy to select bands
   IMIX   =      4    mixing-type and parameters
     AMIX     =   0.40;   BMIX     =  1.00
     AMIX_MAG =   1.60;   BMIX_MAG =  1.00
     AMIN     =   0.10
     WC   =   100.;   INIMIX=   1;  MIXPRE=   1;  MAXMIX= -45

 Intra band minimization:
   WEIMIN = 0.0000     energy-eigenvalue tresh-hold
   EBREAK =  0.10E-05  absolut break condition
   DEPER  =   0.30     relativ break condition  

   TIME   =   0.40     timestep for ELM

  volume/ion in A,a.u.               =      16.24       109.57
  Fermi-wavevector in a.u.,A,eV,Ry     =   1.392851  2.632108 26.395779  1.940035
  Thomas-Fermi vector in A             =   2.516554
 
 Write flags
   LWAVE  =      F    write WAVECAR
   LCHARG =      F    write CHGCAR
   LVTOT  =      F    write LOCPOT, total local potential
   LVHAR  =      F    write LOCPOT, Hartree potential only
   LELF   =      F    write electronic localiz. function (ELF)
   LORBIT =      0    0 simple, 1 ext, 2 COOP (PROOUT)


 Dipole corrections
   LMONO  =      F    monopole corrections only (constant potential shift)
   LDIPOL =      F    correct potential (dipole corrections)
   IDIPOL =      0    1-x, 2-y, 3-z, 4-all directions 
   EPSILON=  1.0000000 bulk dielectric constant

 Exchange correlation treatment:
   GGA     =    --    GGA type
   LEXCH   =     8    internal setting for exchange type
   VOSKOWN=      0    Vosko Wilk Nusair interpolation
   LHFCALC =     F    Hartree Fock is set to
   LHFONE  =     F    Hartree Fock one center treatment
   AEXX    =    0.0000 exact exchange contribution

 Linear response parameters
   LEPSILON=     F    determine dielectric tensor
   LRPA    =     F    only Hartree local field effects (RPA)
   LNABLA  =     F    use nabla operator in PAW spheres
   LVEL    =     F    velocity operator in full k-point grid
   LINTERFAST=   F  fast interpolation
   KINTER  =     0    interpolate to denser k-point grid
   CSHIFT  =0.1000    complex shift for real part using Kramers Kronig
   OMEGAMAX=  -1.0    maximum frequency
   DEG_THRESHOLD= 0.2000000E-02 threshold for treating states as degnerate
   RTIME   =    0.100 relaxation time in fs

 Orbital magnetization related:
   ORBITALMAG=     F  switch on orbital magnetization
   LCHIMAG   =     F  perturbation theory with respect to B field
   DQ        =  0.001000  dq finite difference perturbation B field



--------------------------------------------------------------------------------------------------------


 Static calculation
 charge density and potential will be updated during run
 non-spin polarized calculation
 Variant of blocked Davidson
 Davidson routine will perform the subspace rotation
 perform sub-space diagonalisation
    after iterative eigenvector-optimisation
 modified Broyden-mixing scheme, WC =      100.0
 initial mixing is a Kerker type mixing with AMIX =  0.4000 and BMIX =      1.0000
 Hartree-type preconditioning will be used
 using additional bands            4
 reciprocal scheme for non local part
 use partial core corrections
 calculate Harris-corrections to forces 
   (improved forces if not selfconsistent)
 use gradient corrections 
 use of overlap-Matrix (Vanderbilt PP)
 Methfessel and Paxton  Order N= 1 SIGMA  =   0.10


--------------------------------------------------------------------------------------------------------


  energy-cutoff  :      400.00
  volume of cell :       64.95
      direct lattice vectors                 reciprocal lattice vectors
     4.019666667  0.000000000  0.000000000     0.248776847  0.000000000  0.000000000
     0.000000000  4.019666667  0.000000000     0.000000000  0.248776847  0.000000000
     0.000000000  0.000000000  4.019666667     0.000000000  0.000000000  0.248776847

  length of vectors
     4.019666667  4.019666667  4.019666667     0.248776847  0.248776847  0.248776847


 
 k-points in units of 2pi/SCALE and weight: KPOINTS created by Atomic Simulation Env
   0.01554855  0.01554855  0.01554855       0.016
   0.04664566  0.01554855  0.01554855       0.047
   0.07774276  0.01554855  0.01554855       0.047
   0.10883987  0.01554855  0.01554855       0.047
   0.04664566  0.04664566  0.01554855       0.047
   0.07774276  0.04664566  0.01554855       0.094
   0.10883987  0.04664566  0.01554855       0.094
   0.07774276  0.07774276  0.01554855       0.047
   0.10883987  0.07774276  0.01554855       0.094
   0.10883987  0.10883987  0.01554855       0.047
   0.04664566  0.04664566  0.04664566       0.016
   0.07774276  0.04664566  0.04664566       0.047
   0.10883987  0.04664566  0.04664566       0.047
   0.07774276  0.07774276  0.04664566       0.047
   0.10883987  0.07774276  0.04664566       0.094
   0.10883987  0.10883987  0.04664566       0.047
   0.07774276  0.07774276  0.07774276       0.016
   0.10883987  0.07774276  0.07774276       0.047
   0.10883987  0.10883987  0.07774276       0.047
   0.10883987  0.10883987  0.10883987       0.016
 
 k-points in reciprocal lattice and weights: KPOINTS created by Atomic Simulation Env
   0.06250000  0.06250000  0.06250000       0.016
   0.18750000  0.06250000  0.06250000       0.047
   0.31250000  0.06250000  0.06250000       0.047
   0.43750000  0.06250000  0.06250000       0.047
   0.18750000  0.18750000  0.06250000       0.047
   0.31250000  0.18750000  0.06250000       0.094
   0.43750000  0.18750000  0.06250000       0.094
   0.31250000  0.31250000  0.06250000       0.047
   0.43750000  0.31250000  0.06250000       0.094
   0.43750000  0.43750000  0.06250000       0.047
   0.18750000  0.18750000  0.18750000       0.016
   0.31250000  0.18750000  0.18750000       0.047
   0.43750000  0.18750000  0.18750000       0.047
   0.31250000  0.31250000  0.18750000       0.047
   0.43750000  0.31250000  0.18750000       0.094
   0.43750000  0.43750000  0.18750000       0.047
   0.31250000  0.31250000  0.31250000       0.016
   0.43750000  0.31250000  0.31250000       0.047
   0.43750000  0.43750000  0.31250000       0.047
   0.43750000  0.43750000  0.43750000       0.016
 
 position of ions in fractional coordinates (direct lattice) 
   0.00000000  0.00000000  0.00000000
   0.00000000  0.50000000  0.50000000
   0.50000000  0.00000000  0.50000000
   0.50000000  0.50000000  0.00000000
 
 position of ions in cartesian coordinates  (Angst):
   0.00000000  0.00000000  0.00000000
   0.00000000  2.00983333  2.00983333
   2.00983333  0.00000000  2.00983333
   2.00983333  2.00983333  0.00000000
 


--------------------------------------------------------------------------------------------------------


 k-point  1 :   0.0625 0.0625 0.0625  plane waves:    1192
 k-point  2 :   0.1875 0.0625 0.0625  plane waves:    1188
 k-point  3 :   0.3125 0.0625 0.0625  plane waves:    1186
 k-point  4 :   0.4375 0.0625 0.0625  plane waves:    1184
 k-point  5 :   0.1875 0.1875 0.0625  plane waves:    1186
 k-point  6 :   0.3125 0.1875 0.0625  plane waves:    1183
 k-point  7 :   0.4375 0.1875 0.0625  plane waves:    1180
 k-point  8 :   0.3125 0.3125 0.0625  plane waves:    1184
 k-point  9 :   0.4375 0.3125 0.0625  plane waves:    1175
 k-point 10 :   0.4375 0.4375 0.0625  plane waves:    1180
 k-point 11 :   0.1875 0.1875 0.1875  plane waves:    1186
 k-point 12 :   0.3125 0.1875 0.1875  plane waves:    1179
 k-point 13 :   0.4375 0.1875 0.1875  plane waves:    1172
 k-point 14 :   0.3125 0.3125 0.1875  plane waves:    1177
 k-point 15 :   0.4375 0.3125 0.1875  plane waves:    1181
 k-point 16 :   0.4375 0.4375 0.1875  plane waves:    1177
 k-point 17 :   0.3125 0.3125 0.3125  plane waves:    1178
 k-point 18 :   0.4375 0.3125 0.3125  plane waves:    1176
 k-point 19 :   0.4375 0.4375 0.3125  plane waves:    1165
 k-point 20 :   0.4375 0.4375 0.4375  plane waves:    1163

 maximum and minimum number of plane-waves per node :      1192     1163

 maximum number of plane-waves:      1192
 maximum index in each direction: 
   IXMAX=    6   IYMAX=    6   IZMAX=    6
   IXMIN=   -6   IYMIN=   -6   IZMIN=   -6

 WARNING: aliasing errors must be expected set NGX to  26 to avoid them
 WARNING: aliasing errors must be expected set NGY to  26 to avoid them
 WARNING: aliasing errors must be expected set NGZ to  26 to avoid them
 aliasing errors are usually negligible using standard VASP settings
 and one can safely disregard these warnings

 serial   3D FFT for wavefunctions
 parallel 3D FFT for charge:
    minimum data exchange during FFTs selected (reduces bandwidth)


 total amount of memory used by VASP on root node    34633. kBytes
========================================================================

   base      :      30000. kBytes
   nonl-proj :       3532. kBytes
   fftplans  :        147. kBytes
   grid      :        485. kBytes
   one-center:         62. kBytes
   wavefun   :        407. kBytes
 
     INWAV:  cpu time    0.0000: real time    0.0000
 Broyden mixing: mesh for mixing (old mesh)
   NGX = 13   NGY = 13   NGZ = 13
  (NGX  = 40   NGY  = 40   NGZ  = 40)
  gives a total of   2197 points

 initial charge density was supplied:
 charge density of overlapping atoms calculated
 number of electron      40.0000000 magnetization 
 keeping initial charge density in first step


--------------------------------------------------------------------------------------------------------


 Maximum index for augmentation-charges          385 (set IRDMAX)


--------------------------------------------------------------------------------------------------------


 First call to EWALD:  gamma=   0.441
 Maximum number of real-space cells 3x 3x 3
 Maximum number of reciprocal cells 3x 3x 3

 FEWALD executed in parallel
    FEWALD:  cpu time    0.0629: real time    0.0629


----------------------------------------- Iteration    1(   1)  ---------------------------------------


    POTLOK:  cpu time    0.8267: real time    0.8923
    SETDIJ:  cpu time    0.2048: real time    0.2050
     EDDAV:  cpu time    0.5483: real time    0.5486
       DOS:  cpu time    0.0006: real time    0.0006
    --------------------------------------------
      LOOP:  cpu time    1.5824: real time    1.6501

 eigenvalue-minimisations  :   960
 total energy-change (2. order) : 0.1434957E+03  (-0.1835532E+04)
 number of electron      40.0000000 magnetization 
 augmentation part       40.0000000 magnetization 

 Free energy of the ion-electron system (eV)
  ---------------------------------------------------
  alpha Z        PSCENC =       160.55816665
  Ewald energy   TEWEN  =     -3284.90117375
  -Hartree energ DENC   =      -534.94156288
  -exchange      EXHF   =         0.00000000
  -V(xc)+E(xc)   XCENC  =      -117.70346828
  PAW double counting   =      3226.95325816    -2978.06409795
  entropy T*S    EENTRO =         0.00118322
  eigenvalues    EBANDS =       432.61779525
  atomic energy  EATOM  =      3238.97557032
  Solvation  Ediel_sol  =         0.00000000
  ---------------------------------------------------
  free energy    TOTEN  =       143.49567072 eV

  energy without entropy =      143.49448750  energy(sigma->0) =      143.49527632


--------------------------------------------------------------------------------------------------------




----------------------------------------- Iteration    1(   2)  ---------------------------------------


     EDDAV:  cpu time    0.2357: real time    0.2357
       DOS:  cpu time    0.0004: real time    0.0004
    --------------------------------------------
      LOOP:  cpu time    0.2373: real time    0.2390

 eigenvalue-minimisations  :  1536
 total energy-change (2. order) :-0.1643530E+03  (-0.1640677E+03)
 number of electron      40.0000000 magnetization 
 augmentation part       40.0000000 magnetization 

 Free energy of the ion-electron system (eV)
  ---------------------------------------------------
  alpha Z        PSCENC =       160.55816665
  Ewald energy   TEWEN  =     -3284.90117375
  -Hartree energ DENC   =      -534.94156288
  -exchange      EXHF   =         0.00000000
  -V(xc)+E(xc)   XCENC  =      -117.70346828
  PAW double counting   =      3226.95325816    -2978.06409795
  entropy T*S    EENTRO =        -0.00294473
  eigenvalues    EBANDS =       268.26891371
  atomic energy  EATOM  =      3238.97557032
  Solvation  Ediel_sol  =         0.00000000
  ---------------------------------------------------
  free energy    TOTEN  =       -20.85733877 eV

  energy without entropy =      -20.85439404  energy(sigma->0) =      -20.85635719


--------------------------------------------------------------------------------------------------------




----------------------------------------- Iteration    1(   3)  ---------------------------------------


     EDDAV:  cpu time    0.1472: real time    0.1512
       DOS:  cpu time    0.0005: real time    0.0005
    --------------------------------------------
      LOOP:  cpu time    0.1486: real time    0.1674

 eigenvalue-minimisations  :   984
 total energy-change (2. order) :-0.8827845E+00  (-0.8698069E+00)
 number of electron      40.0000000 magnetization 
 augmentation part       40.0000000 magnetization 

 Free energy of the ion-electron system (eV)
  ---------------------------------------------------
  alpha Z        PSCENC =       160.55816665
  Ewald energy   TEWEN  =     -3284.90117375
  -Hartree energ DENC   =      -534.94156288
  -exchange      EXHF   =         0.00000000
  -V(xc)+E(xc)   XCENC  =      -117.70346828
  PAW double counting   =      3226.95325816    -2978.06409795
  entropy T*S    EENTRO =        -0.00774679
  eigenvalues    EBANDS =       267.39093130
  atomic energy  EATOM  =      3238.97557032
  Solvation  Ediel_sol  =         0.00000000
  ---------------------------------------------------
  free energy    TOTEN  =       -21.74012323 eV

  energy without entropy =      -21.73237644  energy(sigma->0) =      -21.73754097


--------------------------------------------------------------------------------------------------------




----------------------------------------- Iteration    1(   4)  ---------------------------------------


     EDDAV:  cpu time    0.1436: real time    0.1439
       DOS:  cpu time    0.0005: real time    0.0005
    --------------------------------------------
      LOOP:  cpu time    0.1452: real time    0.1523

 eigenvalue-minimisations  :  1056
 total energy-change (2. order) :-0.5684890E-02  (-0.5638429E-02)
 number of electron      40.0000000 magnetization 
 augmentation part       40.0000000 magnetization 

 Free energy of the ion-electron system (eV)
  ---------------------------------------------------
  alpha Z        PSCENC =       160.55816665
  Ewald energy   TEWEN  =     -3284.90117375
  -Hartree energ DENC   =      -534.94156288
  -exchange      EXHF   =         0.00000000
  -V(xc)+E(xc)   XCENC  =      -117.70346828
  PAW double counting   =      3226.95325816    -2978.06409795
  entropy T*S    EENTRO =        -0.00748974
  eigenvalues    EBANDS =       267.38498936
  atomic energy  EATOM  =      3238.97557032
  Solvation  Ediel_sol  =         0.00000000
  ---------------------------------------------------
  free energy    TOTEN  =       -21.74580812 eV

  energy without entropy =      -21.73831839  energy(sigma->0) =      -21.74331155


--------------------------------------------------------------------------------------------------------




----------------------------------------- Iteration    1(   5)  ---------------------------------------


     EDDAV:  cpu time    0.1479: real time    0.1480
       DOS:  cpu time    0.0004: real time    0.0004
    CHARGE:  cpu time    0.0077: real time    0.0078
    MIXING:  cpu time    0.0006: real time    0.0006
    --------------------------------------------
      LOOP:  cpu time    0.1576: real time    0.1609

 eigenvalue-minimisations  :  1104
 total energy-change (2. order) :-0.6202325E-04  (-0.6202068E-04)
 number of electron      40.0000151 magnetization 
 augmentation part       16.0276174 magnetization 

 Broyden mixing:
  rms(total) = 0.11780E+01    rms(broyden)= 0.11779E+01
  rms(prec ) = 0.18729E+01
  weight for this iteration     100.00

 Free energy of the ion-electron system (eV)
  ---------------------------------------------------
  alpha Z        PSCENC =       160.55816665
  Ewald energy   TEWEN  =     -3284.90117375
  -Hartree energ DENC   =      -534.94156288
  -exchange      EXHF   =         0.00000000
  -V(xc)+E(xc)   XCENC  =      -117.70346828
  PAW double counting   =      3226.95325816    -2978.06409795
  entropy T*S    EENTRO =        -0.00748789
  eigenvalues    EBANDS =       267.38492549
  atomic energy  EATOM  =      3238.97557032
  Solvation  Ediel_sol  =         0.00000000
  ---------------------------------------------------
  free energy    TOTEN  =       -21.74587015 eV

  energy without entropy =      -21.73838226  energy(sigma->0) =      -21.74337418


--------------------------------------------------------------------------------------------------------




----------------------------------------- Iteration    1(   6)  ---------------------------------------


    POTLOK:  cpu time    0.0054: real time    0.0054
    SETDIJ:  cpu time    0.0023: real time    0.0023
     EDDAV:  cpu time    0.1205: real time    0.1207
       DOS:  cpu time    0.0006: real time    0.0006
    CHARGE:  cpu time    0.0071: real time    0.0073
    MIXING:  cpu time    0.0004: real time    0.0004
    --------------------------------------------
      LOOP:  cpu time    0.1372: real time    0.1394

 eigenvalue-minimisations  :   960
 total energy-change (2. order) : 0.9604976E+00  (-0.5732320E+00)
 number of electron      40.0000154 magnetization 
 augmentation part       16.8143049 magnetization 

 Broyden mixing:
  rms(total) = 0.57222E+00    rms(broyden)= 0.57220E+00
  rms(prec ) = 0.58544E+00
  weight for this iteration     100.00

 eigenvalues of (default mixing * dielectric matrix)
  average eigenvalue GAMMA=   1.3693
  1.3693

 Free energy of the ion-electron system (eV)
  ---------------------------------------------------
  alpha Z        PSCENC =       160.55816665
  Ewald energy   TEWEN  =     -3284.90117375
  -Hartree energ DENC   =      -502.08157866
  -exchange      EXHF   =         0.00000000
  -V(xc)+E(xc)   XCENC  =      -118.66429934
  PAW double counting   =      3402.60308610    -3158.51710795
  entropy T*S    EENTRO =        -0.00499892
  eigenvalues    EBANDS =       241.24696296
  atomic energy  EATOM  =      3238.97557032
  Solvation  Ediel_sol  =         0.00000000
  ---------------------------------------------------
  free energy    TOTEN  =       -20.78537259 eV

  energy without entropy =      -20.78037367  energy(sigma->0) =      -20.78370628


--------------------------------------------------------------------------------------------------------




----------------------------------------- Iteration    1(   7)  ---------------------------------------


    POTLOK:  cpu time    0.0066: real time    0.0067
    SETDIJ:  cpu time    0.0021: real time    0.0021
     EDDAV:  cpu time    0.1220: real time    0.1223
       DOS:  cpu time    0.0004: real time    0.0004
    CHARGE:  cpu time    0.0071: real time    0.0071
    MIXING:  cpu time    0.0002: real time    0.0003
    --------------------------------------------
      LOOP:  cpu time    0.1396: real time    0.1448

 eigenvalue-minimisations  :   960
 total energy-change (2. order) : 0.2186313E-01  (-0.1278140E-02)
 number of electron      40.0000154 magnetization 
 augmentation part       16.8224743 magnetization 

 Broyden mixing:
  rms(total) = 0.31291E+00    rms(broyden)= 0.31291E+00
  rms(prec ) = 0.31971E+00
  weight for this iteration     100.00

 eigenvalues of (default mixing * dielectric matrix)
  average eigenvalue GAMMA=   1.7538
  1.0008  2.5068

 Free energy of the ion-electron system (eV)
  ---------------------------------------------------
  alpha Z        PSCENC =       160.55816665
  Ewald energy   TEWEN  =     -3284.90117375
  -Hartree energ DENC   =      -499.86578699
  -exchange      EXHF   =         0.00000000
  -V(xc)+E(xc)   XCENC  =      -118.73621292
  PAW double counting   =      3539.89123818    -3297.57706018
  entropy T*S    EENTRO =        -0.00531232
  eigenvalues    EBANDS =       240.89706155
  atomic energy  EATOM  =      3238.97557032
  Solvation  Ediel_sol  =         0.00000000
  ---------------------------------------------------
  free energy    TOTEN  =       -20.76350946 eV

  energy without entropy =      -20.75819714  energy(sigma->0) =      -20.76173869


--------------------------------------------------------------------------------------------------------




----------------------------------------- Iteration    1(   8)  ---------------------------------------


    POTLOK:  cpu time    0.0032: real time    0.0032
    SETDIJ:  cpu time    0.0020: real time    0.0020
     EDDAV:  cpu time    0.1323: real time    0.1325
       DOS:  cpu time    0.0004: real time    0.0004
    CHARGE:  cpu time    0.0076: real time    0.0077
    MIXING:  cpu time    0.0002: real time    0.0002
    --------------------------------------------
      LOOP:  cpu time    0.1470: real time    0.1496

 eigenvalue-minimisations  :  1008
 total energy-change (2. order) : 0.9035717E-02  (-0.3266013E-03)
 number of electron      40.0000154 magnetization 
 augmentation part       16.8298312 magnetization 

 Broyden mixing:
  rms(total) = 0.38536E-02    rms(broyden)= 0.38483E-02
  rms(prec ) = 0.53871E-02
  weight for this iteration     100.00

 eigenvalues of (default mixing * dielectric matrix)
  average eigenvalue GAMMA=   1.4999
  2.4903  0.9821  1.0272

 Free energy of the ion-electron system (eV)
  ---------------------------------------------------
  alpha Z        PSCENC =       160.55816665
  Ewald energy   TEWEN  =     -3284.90117375
  -Hartree energ DENC   =      -497.41491409
  -exchange      EXHF   =         0.00000000
  -V(xc)+E(xc)   XCENC  =      -118.81382211
  PAW double counting   =      3705.27832981    -3465.01534037
  entropy T*S    EENTRO =        -0.00544977
  eigenvalues    EBANDS =       240.58415957
  atomic energy  EATOM  =      3238.97557032
  Solvation  Ediel_sol  =         0.00000000
  ---------------------------------------------------
  free energy    TOTEN  =       -20.75447375 eV

  energy without entropy =      -20.74902398  energy(sigma->0) =      -20.75265716


--------------------------------------------------------------------------------------------------------




----------------------------------------- Iteration    1(   9)  ---------------------------------------


    POTLOK:  cpu time    0.0031: real time    0.0031
    SETDIJ:  cpu time    0.0021: real time    0.0021
     EDDAV:  cpu time    0.0781: real time    0.0782
       DOS:  cpu time    0.0004: real time    0.0004
    --------------------------------------------
      LOOP:  cpu time    0.0848: real time    0.0887

 eigenvalue-minimisations  :   576
 total energy-change (2. order) :-0.2419643E-04  (-0.2615262E-05)
 number of electron      40.0000154 magnetization 
 augmentation part       16.8298312 magnetization 

 Free energy of the ion-electron system (eV)
  ---------------------------------------------------
  alpha Z        PSCENC =       160.55816665
  Ewald energy   TEWEN  =     -3284.90117375
  -Hartree energ DENC   =      -497.45471139
  -exchange      EXHF   =         0.00000000
  -V(xc)+E(xc)   XCENC  =      -118.81295410
  PAW double counting   =      3705.58674113    -3465.26871370
  entropy T*S    EENTRO =        -0.00545105
  eigenvalues    EBANDS =       240.56802796
  atomic energy  EATOM  =      3238.97557032
  Solvation  Ediel_sol  =         0.00000000
  ---------------------------------------------------
  free energy    TOTEN  =       -20.75449794 eV

  energy without entropy =      -20.74904689  energy(sigma->0) =      -20.75268093


--------------------------------------------------------------------------------------------------------




 average (electrostatic) potential at core
  the test charge radii are     1.1199
  (the norm of the test charge is              1.0000)
       1 -71.7749       2 -71.7749       3 -71.7749       4 -71.7749
 
 
 
 E-fermi :   8.2417     XC(G=0): -12.5911     alpha+bet :-15.1656


 k-point     1 :       0.0625    0.0625    0.0625
  band No.  band energies     occupation 
      1       1.9555      2.00000
      2       3.6968      2.00000
      3       3.6968      2.00000
      4       3.6968      2.00000
      5       3.9367      2.00000
      6       3.9367      2.00000
      7       3.9367      2.00000
      8       5.7803      2.00000
      9       5.8652      2.00000
     10       5.8652      2.00000
     11       7.1802      2.00000
     12       7.1802      2.00000
     13       8.1161      2.07063
     14       8.1161      2.07063
     15       8.1161      2.07063
     16       8.2063      1.55954
     17       8.2063      1.55954
     18       8.2063      1.55954
     19       8.4400     -0.01686
     20       8.4400     -0.01686
     21       8.4400     -0.01686
     22      11.6990      0.00000
     23      11.6990      0.00000
     24      11.6990      0.00000

 k-point     2 :       0.1875    0.0625    0.0625
  band No.  band energies     occupation 
      1       2.2936      2.00000
      2       3.8404      2.00000
      3       3.8908      2.00000
      4       3.8908      2.00000
      5       4.0605      2.00000
      6       4.1330      2.00000
      7       4.1330      2.00000
      8       5.6299      2.00000
      9       5.9952      2.00000
     10       6.0000      2.00000
     11       7.0185      2.00000
     12       7.2601      2.00000
     13       7.4551      2.00000
     14       7.4551      2.00000
     15       7.8852      2.00001
     16       7.9084      2.00003
     17       7.9084      2.00003
     18       7.9322      2.00011
     19       8.2794      0.40991
     20       8.4223     -0.02839
     21       8.4223     -0.02839
     22      10.3161     -0.00000
     23      12.6782      0.00000
     24      12.6782      0.00000

 k-point     3 :       0.3125    0.0625    0.0625
  band No.  band energies     occupation 
      1       2.9193      2.00000
      2       4.0527      2.00000
      3       4.2271      2.00000
      4       4.2271      2.00000
      5       4.2961      2.00000
      6       4.5073      2.00000
      7       4.5073      2.00000
      8       5.3403      2.00000
      9       6.2401      2.00000
     10       6.2632      2.00000
     11       6.5483      2.00000
     12       6.5483      2.00000
     13       6.8052      2.00000
     14       7.3108      2.00000
     15       7.4103      2.00000
     16       7.5304      2.00000
     17       7.5304      2.00000
     18       7.5567      2.00000
     19       8.0663      2.03257
     20       8.4158     -0.03360
     21       8.4158     -0.03360
     22       8.7638     -0.00000
     23      14.0215      0.00000
     24      14.0215      0.00000

 k-point     4 :       0.4375    0.0625    0.0625
  band No.  band energies     occupation 
      1       3.6644      2.00000
      2       4.1098      2.00000
      3       4.5514      2.00000
      4       4.5514      2.00000
      5       4.6162      2.00000
      6       4.9814      2.00000
      7       5.0244      2.00000
      8       5.0244      2.00000
      9       5.7182      2.00000
     10       5.7182      2.00000
     11       6.3554      2.00000
     12       6.6378      2.00000
     13       6.6459      2.00000
     14       6.9669      2.00000
     15       7.0901      2.00000
     16       7.1907      2.00000
     17       7.1907      2.00000
     18       7.6115      2.00000
     19       7.6313      2.00000
     20       7.8389      2.00000
     21       8.4140     -0.03514
     22       8.4140     -0.03514
     23      15.4373      0.00000
     24      15.4373      0.00000

 k-point     5 :       0.1875    0.1875    0.0625
  band No.  band energies     occupation 
      1       2.6089      2.00000
      2       4.0080      2.00000
      3       4.0341      2.00000
      4       4.0341      2.00000
      5       4.2525      2.00000
      6       4.2525      2.00000
      7       4.3681      2.00000
      8       5.5799      2.00000
      9       6.0487      2.00000
     10       6.0705      2.00000
     11       6.9939      2.00000
     12       7.0851      2.00000
     13       7.0851      2.00000
     14       7.0912      2.00000
     15       7.2818      2.00000
     16       7.6718      2.00000
     17       7.8022      2.00000
     18       7.8022      2.00000
     19       8.2552      0.77317
     20       8.2552      0.77317
     21       8.2888      0.29209
     22      11.2282      0.00000
     23      11.2282      0.00000
     24      13.4598      0.00000

 k-point     6 :       0.3125    0.1875    0.0625
  band No.  band energies     occupation 
      1       3.1883      2.00000
      2       4.2425      2.00000
      3       4.2735      2.00000
      4       4.3744      2.00000
      5       4.4842      2.00000
      6       4.6114      2.00000
      7       4.7345      2.00000
      8       5.3770      2.00000
      9       6.1577      2.00000
     10       6.2425      2.00000
     11       6.2622      2.00000
     12       6.4193      2.00000
     13       6.5611      2.00000
     14       6.8908      2.00000
     15       7.3694      2.00000
     16       7.4512      2.00000
     17       7.5063      2.00000
     18       7.5124      2.00000
     19       8.0143      2.00598
     20       8.1892      1.76668
     21       8.1958      1.69299
     22       9.6560     -0.00000
     23      12.3834      0.00000
     24      14.6358      0.00000

 k-point     7 :       0.4375    0.1875    0.0625
  band No.  band energies     occupation 
      1       3.8783      2.00000
      2       4.3038      2.00000
      3       4.6447      2.00000
      4       4.7334      2.00000
      5       4.7768      2.00000
      6       5.0326      2.00000
      7       5.0601      2.00000
      8       5.0839      2.00000
      9       5.5764      2.00000
     10       5.7353      2.00000
     11       6.0711      2.00000
     12       6.1121      2.00000
     13       6.5886      2.00000
     14       7.0012      2.00000
     15       7.1114      2.00000
     16       7.1342      2.00000
     17       7.1775      2.00000
     18       7.6366      2.00000
     19       7.8708      2.00000
     20       8.1607      1.98520
     21       8.1609      1.98429
     22       8.4955     -0.00195
     23      13.5679      0.00000
     24      14.7442      0.00000

 k-point     8 :       0.3125    0.3125    0.0625
  band No.  band energies     occupation 
      1       3.6671      2.00000
      2       4.4339      2.00000
      3       4.5609      2.00000
      4       4.5609      2.00000
      5       4.8466      2.00000
      6       4.8466      2.00000
      7       5.0566      2.00000
      8       5.3659      2.00000
      9       5.8479      2.00000
     10       5.8479      2.00000
     11       6.1033      2.00000
     12       6.1200      2.00000
     13       6.3450      2.00000
     14       6.8172      2.00000
     15       7.1140      2.00000
     16       7.2886      2.00000
     17       7.2886      2.00000
     18       7.8525      2.00000
     19       7.8525      2.00000
     20       7.8992      2.00001
     21       7.9546      2.00038
     22      10.7085     -0.00000
     23      10.7085     -0.00000
     24      14.3447      0.00000

 k-point     9 :       0.4375    0.3125    0.0625
  band No.  band energies     occupation 
      1       4.2178      2.00000
      2       4.5837      2.00000
      3       4.7227      2.00000
      4       4.9304      2.00000
      5       5.1079      2.00000
      6       5.1117      2.00000
      7       5.2275      2.00000
      8       5.2575      2.00000
      9       5.4624      2.00000
     10       5.6569      2.00000
     11       5.7396      2.00000
     12       5.9039      2.00000
     13       6.5511      2.00000
     14       6.9035      2.00000
     15       6.9196      2.00000
     16       6.9962      2.00000
     17       7.0219      2.00000
     18       7.4359      2.00000
     19       7.7749      2.00000
     20       7.8075      2.00000
     21       8.5101     -0.00098
     22       9.4003     -0.00000
     23      11.8075      0.00000
     24      12.9906      0.00000

 k-point    10 :       0.4375    0.4375    0.0625
  band No.  band energies     occupation 
      1       4.5383      2.00000
      2       4.7781      2.00000
      3       4.7781      2.00000
      4       4.7790      2.00000
      5       5.3692      2.00000
      6       5.3827      2.00000
      7       5.3827      2.00000
      8       5.3890      2.00000
      9       5.5674      2.00000
     10       5.5674      2.00000
     11       5.7432      2.00000
     12       5.8383      2.00000
     13       6.5022      2.00000
     14       6.6925      2.00000
     15       6.7189      2.00000
     16       6.7189      2.00000
     17       7.0303      2.00000
     18       7.3574      2.00000
     19       7.3574      2.00000
     20       7.5008      2.00000
     21       9.3355     -0.00000
     22      10.3979     -0.00000
     23      10.3979     -0.00000
     24      11.5581      0.00000

 k-point    11 :       0.1875    0.1875    0.1875
  band No.  band energies     occupation 
      1       2.8803      2.00000
      2       4.1147      2.00000
      3       4.1147      2.00000
      4       4.1147      2.00000
      5       4.5067      2.00000
      6       4.5067      2.00000
      7       4.5067      2.00000
      8       5.6202      2.00000
      9       6.0706      2.00000
     10       6.0706      2.00000
     11       6.7994      2.00000
     12       6.7994      2.00000
     13       6.7994      2.00000
     14       7.1700      2.00000
     15       7.1700      2.00000
     16       7.3765      2.00000
     17       7.3765      2.00000
     18       7.3765      2.00000
     19       8.3336     -0.02917
     20       8.3336     -0.02917
     21       8.3336     -0.02917
     22      11.8631      0.00000
     23      11.8631      0.00000
     24      11.8631      0.00000

 k-point    12 :       0.3125    0.1875    0.1875
  band No.  band energies     occupation 
      1       3.3630      2.00000
      2       4.2440      2.00000
      3       4.3386      2.00000
      4       4.3386      2.00000
      5       4.7866      2.00000
      6       4.8603      2.00000
      7       4.8603      2.00000
      8       5.5547      2.00000
      9       6.1137      2.00000
     10       6.1599      2.00000
     11       6.2270      2.00000
     12       6.2270      2.00000
     13       6.3452      2.00000
     14       6.9958      2.00000
     15       7.1392      2.00000
     16       7.1392      2.00000
     17       7.1457      2.00000
     18       7.4555      2.00000
     19       8.2380      1.06232
     20       8.2380      1.06232
     21       8.2659      0.60289
     22      10.1244     -0.00000
     23      12.8017      0.00000
     24      12.8017      0.00000

 k-point    13 :       0.4375    0.1875    0.1875
  band No.  band energies     occupation 
      1       3.9054      2.00000
      2       4.2382      2.00000
      3       4.6787      2.00000
      4       4.6787      2.00000
      5       5.0069      2.00000
      6       5.0069      2.00000
      7       5.1346      2.00000
      8       5.3893      2.00000
      9       5.8507      2.00000
     10       5.8507      2.00000
     11       5.9754      2.00000
     12       5.9870      2.00000
     13       6.3476      2.00000
     14       6.6347      2.00000
     15       6.9330      2.00000
     16       6.9330      2.00000
     17       7.6309      2.00000
     18       7.7765      2.00000
     19       8.0666      2.03276
     20       8.1412      2.05119
     21       8.1412      2.05119
     22       8.6648     -0.00000
     23      13.7343      0.00000
     24      13.7343      0.00000

 k-point    14 :       0.3125    0.3125    0.1875
  band No.  band energies     occupation 
      1       3.6551      2.00000
      2       4.3574      2.00000
      3       4.3574      2.00000
      4       4.3937      2.00000
      5       5.1280      2.00000
      6       5.1462      2.00000
      7       5.1462      2.00000
      8       5.7822      2.00000
      9       5.9909      2.00000
     10       5.9909      2.00000
     11       6.0896      2.00000
     12       6.1197      2.00000
     13       6.1666      2.00000
     14       6.7930      2.00000
     15       6.7996      2.00000
     16       6.7996      2.00000
     17       7.2020      2.00000
     18       7.7624      2.00000
     19       8.1548      2.01144
     20       8.1883      1.77621
     21       8.1883      1.77621
     22      10.9360     -0.00000
     23      10.9360     -0.00000
     24      13.2796      0.00000

 k-point    15 :       0.4375    0.3125    0.1875
  band No.  band energies     occupation 
      1       3.9765      2.00000
      2       4.2357      2.00000
      3       4.5039      2.00000
      4       4.5056      2.00000
      5       5.2050      2.00000
      6       5.2205      2.00000
      7       5.5500      2.00000
      8       5.8272      2.00000
      9       5.8535      2.00000
     10       5.9387      2.00000
     11       6.0133      2.00000
     12       6.1501      2.00000
     13       6.2265      2.00000
     14       6.4686      2.00000
     15       6.6085      2.00000
     16       6.6530      2.00000
     17       7.5047      2.00000
     18       7.9510      2.00031
     19       8.0282      2.01009
     20       8.0378      2.01409
     21       8.3617     -0.07072
     22       9.3948     -0.00000
     23      11.8830      0.00000
     24      12.8523      0.00000

 k-point    16 :       0.4375    0.4375    0.1875
  band No.  band energies     occupation 
      1       4.1020      2.00000
      2       4.2837      2.00000
      3       4.2837      2.00000
      4       4.3686      2.00000
      5       5.4048      2.00000
      6       5.5253      2.00000
      7       5.5253      2.00000
      8       5.7468      2.00000
      9       6.1622      2.00000
     10       6.1710      2.00000
     11       6.1710      2.00000
     12       6.3294      2.00000
     13       6.3637      2.00000
     14       6.3727      2.00000
     15       6.4124      2.00000
     16       6.4124      2.00000
     17       7.4646      2.00000
     18       7.7717      2.00000
     19       7.7717      2.00000
     20       7.8295      2.00000
     21       9.1922     -0.00000
     22      10.3357     -0.00000
     23      10.3357     -0.00000
     24      11.4816      0.00000

 k-point    17 :       0.3125    0.3125    0.3125
  band No.  band energies     occupation 
      1       3.6946      2.00000
      2       4.2354      2.00000
      3       4.2354      2.00000
      4       4.2354      2.00000
      5       5.3475      2.00000
      6       5.3475      2.00000
      7       5.3475      2.00000
      8       5.9964      2.00000
      9       5.9964      2.00000
     10       6.2836      2.00000
     11       6.2836      2.00000
     12       6.2836      2.00000
     13       6.4407      2.00000
     14       6.4407      2.00000
     15       6.4407      2.00000
     16       6.4963      2.00000
     17       7.6168      2.00000
     18       7.6168      2.00000
     19       8.2688      0.55891
     20       8.2688      0.55891
     21       8.2688      0.55891
     22      11.3463      0.00000
     23      11.3463      0.00000
     24      11.3463      0.00000

 k-point    18 :       0.4375    0.3125    0.3125
  band No.  band energies     occupation 
      1       3.8178      2.00000
      2       4.0142      2.00000
      3       4.1833      2.00000
      4       4.1833      2.00000
      5       5.4009      2.00000
      6       5.4009      2.00000
      7       5.6361      2.00000
      8       5.8661      2.00000
      9       6.0111      2.00000
     10       6.1653      2.00000
     11       6.2709      2.00000
     12       6.2709      2.00000
     13       6.4913      2.00000
     14       6.6022      2.00000
     15       6.6022      2.00000
     16       6.7295      2.00000
     17       7.9748      2.00105
     18       8.1721      1.91681
     19       8.1721      1.91681
     20       8.1914      1.74367
     21       8.2080      1.53592
     22       9.5906     -0.00000
     23      11.7307      0.00000
     24      11.7307      0.00000

 k-point    19 :       0.4375    0.4375    0.3125
  band No.  band energies     occupation 
      1       3.8023      2.00000
      2       3.9310      2.00000
      3       3.9310      2.00000
      4       3.9883      2.00000
      5       5.5660      2.00000
      6       5.6401      2.00000
      7       5.6401      2.00000
      8       5.8195      2.00000
      9       5.9195      2.00000
     10       6.0257      2.00000
     11       6.0257      2.00000
     12       6.0574      2.00000
     13       7.0458      2.00000
     14       7.0458      2.00000
     15       7.0527      2.00000
     16       7.3258      2.00000
     17       7.8659      2.00000
     18       8.1124      2.06961
     19       8.1125      2.06965
     20       8.1125      2.06965
     21       8.9108     -0.00000
     22      10.1822     -0.00000
     23      10.1822     -0.00000
     24      11.0247      0.00000

 k-point    20 :       0.4375    0.4375    0.4375
  band No.  band energies     occupation 
      1       3.6837      2.00000
      2       3.7494      2.00000
      3       3.7494      2.00000
      4       3.7494      2.00000
      5       5.7258      2.00000
      6       5.7258      2.00000
      7       5.7258      2.00000
      8       5.8165      2.00000
      9       5.8165      2.00000
     10       5.8649      2.00000
     11       5.8649      2.00000
     12       5.8649      2.00000
     13       7.7068      2.00000
     14       7.7068      2.00000
     15       7.7068      2.00000
     16       8.1410      2.05161
     17       8.1410      2.05161
     18       8.2290      1.21366
     19       8.2290      1.21366
     20       8.2290      1.21366
     21       8.8481     -0.00000
     22       9.9794     -0.00000
     23       9.9794     -0.00000
     24       9.9794     -0.00000


--------------------------------------------------------------------------------------------------------


 soft charge-density along one line, spin component           1
         0         1         2         3         4         5         6         7         8         9
 total charge-density along one line
 
 pseudopotential strength for first ion, spin component:           1
 -2.737   0.000  -0.000  -0.000   0.000  -2.960   0.000  -0.000
  0.000  -2.737  -0.000   0.000   0.000   0.000  -2.960  -0.000
 -0.000  -0.000  -2.707   0.000   0.000  -0.000  -0.000  -2.932
 -0.000   0.000   0.000  -2.737  -0.000  -0.000   0.000   0.000
  0.000   0.000   0.000  -0.000  -2.707   0.000   0.000  -0.000
 -2.960   0.000  -0.000  -0.000   0.000  -3.150   0.000  -0.000
  0.000  -2.960  -0.000   0.000   0.000   0.000  -3.150  -0.000
 -0.000  -0.000  -2.932   0.000  -0.000  -0.000  -0.000  -3.123
 -0.000   0.000   0.000  -2.960  -0.000  -0.000   0.000   0.000
  0.000   0.000  -0.000  -0.000  -2.932   0.000   0.000   0.000
 -0.000   0.000  -0.000  -0.000  -0.000  -0.000   0.000  -0.000
 -0.000   0.000  -0.000  -0.000  -0.000  -0.000   0.000  -0.000
 -0.000   0.000   0.000   0.000   0.000  -0.000   0.000   0.000
  0.000  -0.000   0.000   0.000   0.000   0.000  -0.000   0.000
 -0.000   0.000   0.000   0.000   0.000  -0.000   0.000  -0.000
 -0.000   0.000   0.000   0.000   0.000  -0.000   0.000   0.000
  0.000  -0.000   0.000  -0.000   0.000   0.000  -0.000   0.000
 -0.000   0.000  -0.000   0.000   0.000  -0.000   0.000  -0.000
 total augmentation occupancy for first ion, spin component:           1
  2.605   0.000   0.000   0.000  -0.000  -1.315  -0.000   0.000   0.000  -0.000   0.000  -0.000   0.000   0.000  -0.000   0.000
 -0.000   2.605   0.000   0.000   0.000   0.000  -1.315   0.000   0.000  -0.000  -0.000  -0.000   0.000   0.000   0.000  -0.000
 -0.000  -0.000   3.082  -0.000   0.000  -0.000   0.000  -1.410   0.000   0.000   0.000  -0.000  -0.000  -0.000   0.000  -0.000
 -0.000   0.000  -0.000   2.605   0.000  -0.000   0.000   0.000  -1.315   0.000  -0.000  -0.000  -0.000   0.000  -0.000  -0.000
 -0.000   0.000  -0.000  -0.000   3.082   0.000  -0.000   0.000  -0.000  -1.410   0.000   0.000  -0.000   0.000  -0.000   0.000
 -1.315  -0.000  -0.000  -0.000   0.000   1.770   0.000   0.000   0.000  -0.000   0.000   0.000  -0.000   0.000   0.000   0.000
  0.000  -1.315   0.000   0.000  -0.000  -0.000   1.770  -0.000   0.000   0.000   0.000  -0.000   0.000   0.000   0.000   0.000
  0.000   0.000  -1.410   0.000   0.000   0.000  -0.000   1.592  -0.000  -0.000  -0.000  -0.000   0.000   0.000   0.000   0.000
  0.000   0.000   0.000  -1.315  -0.000   0.000   0.000   0.000   1.770   0.000  -0.000  -0.000   0.000   0.000  -0.000  -0.000
 -0.000  -0.000   0.000   0.000  -1.410  -0.000  -0.000  -0.000   0.000   1.592   0.000  -0.000   0.000   0.000   0.000  -0.000
 -0.000  -0.000   0.000  -0.000   0.000   0.000   0.000  -0.000   0.000  -0.000   1.860  -0.285  -0.000   0.000  -0.000  -0.000
 -0.000  -0.000  -0.000  -0.000  -0.000   0.000  -0.000  -0.000  -0.000   0.000  -0.285   0.046  -0.000  -0.000  -0.000   0.000
  0.000   0.000   0.000  -0.000  -0.000   0.000  -0.000   0.000  -0.000  -0.000   0.000  -0.000   0.203   0.000   0.000  -0.012
 -0.000   0.000  -0.000   0.000   0.000   0.000   0.000  -0.000  -0.000   0.000  -0.000  -0.000   0.000   0.203   0.000  -0.000
 -0.000  -0.000   0.000  -0.000   0.000   0.000   0.000   0.000  -0.000   0.000   0.000  -0.000   0.000  -0.000   0.203  -0.000
  0.000   0.000  -0.000  -0.000   0.000  -0.000   0.000   0.000   0.000   0.000   0.000   0.000  -0.012  -0.000  -0.000   0.001
  0.000   0.000   0.000  -0.000  -0.000  -0.000  -0.000   0.000   0.000  -0.000  -0.000   0.000  -0.000  -0.012   0.000  -0.000
 -0.000  -0.000   0.000  -0.000   0.000  -0.000   0.000   0.000   0.000  -0.000  -0.000  -0.000  -0.000  -0.000  -0.012  -0.000


------------------------ aborting loop because EDIFF is reached ----------------------------------------


    CHARGE:  cpu time    0.0091: real time    0.0092
    FORLOC:  cpu time    0.0001: real time    0.0001
    FORNL :  cpu time    0.0286: real time    0.0286
    STRESS:  cpu time    0.1322: real time    0.1325
    FORCOR:  cpu time    0.0031: real time    0.0031
    FORHAR:  cpu time    0.0019: real time    0.0019
    MIXING:  cpu time    0.0003: real time    0.0003
    OFIELD:  cpu time    0.0000: real time    0.0000

  FORCE on cell =-STRESS in cart. coord.  units (eV):
  Direction    XX          YY          ZZ          XY          YZ          ZX
  --------------------------------------------------------------------------------------
  Alpha Z   160.55817   160.55817   160.55817
  Ewald   -1094.96754 -1094.96754 -1094.96754     0.00000     0.00000    -0.00000
  Hartree   165.83756   165.83756   165.83756    -0.00000    -0.00000    -0.00000
  E(xc)    -208.95157  -208.95157  -208.95157    -0.00000    -0.00000     0.00000
  Local     154.26252   154.26252   154.26252    -0.00000     0.00000    -0.00000
  n-local   -19.67823   -27.56449   -16.72120     8.91389     5.82419     5.77389
  augment   297.32328   297.32328   297.32328     0.00000     0.00000     0.00000
  Kinetic   549.47041   540.49657   540.90459     4.20370    -0.10328     1.94775
  Fock        0.00000     0.00000     0.00000     0.00000     0.00000     0.00000
  -------------------------------------------------------------------------------------
  Total      -3.63503    -3.63503    -3.63503    -0.00000     0.00000    -0.00000
  in kB     -89.67036   -89.67036   -89.67036    -0.00000     0.00000    -0.00000
  external pressure =      -89.67 kB  Pullay stress =        0.00 kB


 VOLUME and BASIS-vectors are now :
 -----------------------------------------------------------------------------
  energy-cutoff  :      400.00
  volume of cell :       64.95
      direct lattice vectors                 reciprocal lattice vectors
     4.019666667  0.000000000  0.000000000     0.248776847  0.000000000  0.000000000
     0.000000000  4.019666667  0.000000000     0.000000000  0.248776847  0.000000000
     0.000000000  0.000000000  4.019666667     0.000000000  0.000000000  0.248776847

  length of vectors
     4.019666667  4.019666667  4.019666667     0.248776847  0.248776847  0.248776847


 FORCES acting on ions
    electron-ion (+dipol)            ewald-force                    non-local-force                 convergence-correction
 -----------------------------------------------------------------------------------------------
   0.112E-13 0.376E-13 0.464E-14   -.127E-13 -.665E-14 -.102E-13   0.424E-23 0.662E-23 0.331E-23   -.191E-13 -.572E-14 0.141E-13
   0.110E-13 -.627E-13 -.990E-13   -.132E-13 0.758E-14 0.411E-14   0.165E-23 0.136E-22 0.290E-23   -.237E-13 0.209E-13 -.178E-13
   -.890E-13 0.420E-13 0.583E-12   0.117E-13 -.912E-14 0.395E-14   -.579E-23 -.662E-23 0.414E-24   0.318E-13 -.428E-14 -.413E-13
   -.891E-13 -.314E-13 -.487E-12   0.112E-13 0.512E-14 0.317E-14   0.662E-23 -.331E-23 -.414E-23   0.346E-13 0.321E-13 0.414E-13
 -----------------------------------------------------------------------------------------------
   -.156E-12 -.145E-13 0.159E-14   -.304E-14 -.308E-14 0.106E-14   0.672E-23 0.103E-22 0.248E-23   0.236E-13 0.430E-13 -.361E-14
 
 
 POSITION                                       TOTAL-FORCE (eV/Angst)
 -----------------------------------------------------------------------------------
      0.00000      0.00000      0.00000         0.000000      0.000000     -0.000000
      0.00000      2.00983      2.00983         0.000000     -0.000000      0.000000
      2.00983      0.00000      2.00983        -0.000000      0.000000      0.000000
      2.00983      2.00983      0.00000        -0.000000      0.000000      0.000000
 -----------------------------------------------------------------------------------
    total drift:                               -0.000000      0.000000     -0.000000


--------------------------------------------------------------------------------------------------------



  FREE ENERGIE OF THE ION-ELECTRON SYSTEM (eV)
  ---------------------------------------------------
  free  energy   TOTEN  =       -20.75449794 eV

  energy  without entropy=      -20.74904689  energy(sigma->0) =      -20.75268093
 


--------------------------------------------------------------------------------------------------------


    POTLOK:  cpu time    0.0056: real time    0.0056


--------------------------------------------------------------------------------------------------------


     LOOP+:  cpu time    2.9787: real time    3.1028
    4ORBIT:  cpu time    0.0000: real time    0.0000

 total amount of memory used by VASP on root node    34633. kBytes
========================================================================

   base      :      30000. kBytes
   nonl-proj :       3532. kBytes
   fftplans  :        147. kBytes
   grid      :        485. kBytes
   one-center:         62. kBytes
   wavefun   :        407. kBytes
 
  
  
 General timing and accounting informations for this job:
 ========================================================
  
                  Total CPU time used (sec):       18.074
                            User time (sec):       17.942
                          System time (sec):        0.133
                         Elapsed time (sec):       21.104
  
                   Maximum memory used (kb):       52904.
                   Average memory used (kb):           0.
  
                          Minor page faults:        16437
                          Major page faults:            9
                 Voluntary context switches:         1501
