<?xml version="1.0" encoding="ISO-8859-1"?>
<modeling>
 <generator>
  <i name="program" type="string">vasp </i>
  <i name="version" type="string">5.4.1  </i>
  <i name="subversion" type="string">05Feb16 (build Feb 08 2018 09:21:51) complex                          parallel </i>
  <i name="platform" type="string">LinuxIFC </i>
  <i name="date" type="string">2019 11 20 </i>
  <i name="time" type="string">21:33:08 </i>
 </generator>
 <incar>
  <i type="string" name="PREC">normal</i>
  <i name="ENCUT">    400.00000000</i>
  <i type="int" name="ISMEAR">     1</i>
  <i name="SIGMA">      0.10000000</i>
  <i type="logical" name="LWAVE"> F  </i>
  <i type="logical" name="LCHARG"> F  </i>
  <v type="int" name="KPOINT_BSE">    -1     0     0     0</v>
 </incar>
 <kpoints>
  <generation param="Monkhorst-Pack">
   <v type="int" name="divisions">       8        8        8 </v>
   <v name="usershift">      0.00000000       0.00000000       0.00000000 </v>
   <v name="genvec1">      0.12500000       0.00000000       0.00000000 </v>
   <v name="genvec2">      0.00000000       0.12500000       0.00000000 </v>
   <v name="genvec3">      0.00000000       0.00000000       0.12500000 </v>
   <v name="shift">      0.50000000       0.50000000       0.50000000 </v>
  </generation>
  <varray name="kpointlist" >
   <v>       0.06250000       0.06250000       0.06250000 </v>
   <v>       0.18750000       0.06250000       0.06250000 </v>
   <v>       0.31250000       0.06250000       0.06250000 </v>
   <v>       0.43750000       0.06250000       0.06250000 </v>
   <v>       0.18750000       0.18750000       0.06250000 </v>
   <v>       0.31250000       0.18750000       0.06250000 </v>
   <v>       0.43750000       0.18750000       0.06250000 </v>
   <v>       0.31250000       0.31250000       0.06250000 </v>
   <v>       0.43750000       0.31250000       0.06250000 </v>
   <v>       0.43750000       0.43750000       0.06250000 </v>
   <v>       0.18750000       0.18750000       0.18750000 </v>
   <v>       0.31250000       0.18750000       0.18750000 </v>
   <v>       0.43750000       0.18750000       0.18750000 </v>
   <v>       0.31250000       0.31250000       0.18750000 </v>
   <v>       0.43750000       0.31250000       0.18750000 </v>
   <v>       0.43750000       0.43750000       0.18750000 </v>
   <v>       0.31250000       0.31250000       0.31250000 </v>
   <v>       0.43750000       0.31250000       0.31250000 </v>
   <v>       0.43750000       0.43750000       0.31250000 </v>
   <v>       0.43750000       0.43750000       0.43750000 </v>
  </varray>
  <varray name="weights" >
   <v>       0.01562500 </v>
   <v>       0.04687500 </v>
   <v>       0.04687500 </v>
   <v>       0.04687500 </v>
   <v>       0.04687500 </v>
   <v>       0.09375000 </v>
   <v>       0.09375000 </v>
   <v>       0.04687500 </v>
   <v>       0.09375000 </v>
   <v>       0.04687500 </v>
   <v>       0.01562500 </v>
   <v>       0.04687500 </v>
   <v>       0.04687500 </v>
   <v>       0.04687500 </v>
   <v>       0.09375000 </v>
   <v>       0.04687500 </v>
   <v>       0.01562500 </v>
   <v>       0.04687500 </v>
   <v>       0.04687500 </v>
   <v>       0.01562500 </v>
  </varray>
 </kpoints>
 <parameters>
  <separator name="general" >
   <i type="string" name="SYSTEM">unknown system</i>
   <i type="logical" name="LCOMPAT"> F  </i>
  </separator>
  <separator name="electronic" >
   <i type="string" name="PREC">normal</i>
   <i name="ENMAX">    400.00000000</i>
   <i name="ENAUG">    416.23000000</i>
   <i name="EDIFF">      0.00010000</i>
   <i type="int" name="IALGO">    38</i>
   <i type="int" name="IWAVPR">    10</i>
   <i type="int" name="NBANDS">    24</i>
   <i name="NELECT">     40.00000000</i>
   <i type="int" name="TURBO">     0</i>
   <i type="int" name="IRESTART">     0</i>
   <i type="int" name="NREBOOT">     0</i>
   <i type="int" name="NMIN">     0</i>
   <i name="EREF">      0.00000000</i>
   <separator name="electronic smearing" >
    <i type="int" name="ISMEAR">     1</i>
    <i name="SIGMA">      0.10000000</i>
    <i name="KSPACING">      0.50000000</i>
    <i type="logical" name="KGAMMA"> T  </i>
   </separator>
   <separator name="electronic projectors" >
    <i type="logical" name="LREAL"> F  </i>
    <v name="ROPT">      0.00000000</v>
    <i type="int" name="LMAXPAW">  -100</i>
    <i type="int" name="LMAXMIX">     2</i>
    <i type="logical" name="NLSPLINE"> F  </i>
   </separator>
   <separator name="electronic startup" >
    <i type="int" name="ISTART">     0</i>
    <i type="int" name="ICHARG">     2</i>
    <i type="int" name="INIWAV">     1</i>
   </separator>
   <separator name="electronic spin" >
    <i type="int" name="ISPIN">     1</i>
    <i type="logical" name="LNONCOLLINEAR"> F  </i>
    <v name="MAGMOM">      1.00000000      1.00000000      1.00000000      1.00000000</v>
    <i name="NUPDOWN">     -1.00000000</i>
    <i type="logical" name="LSORBIT"> F  </i>
    <v name="SAXIS">      0.00000000      0.00000000      1.00000000</v>
    <i type="logical" name="LSPIRAL"> F  </i>
    <v name="QSPIRAL">      0.00000000      0.00000000      0.00000000</v>
    <i type="logical" name="LZEROZ"> F  </i>
   </separator>
   <separator name="electronic exchange-correlation" >
    <i type="logical" name="LASPH"> F  </i>
    <i type="logical" name="LMETAGGA"> F  </i>
   </separator>
   <separator name="electronic convergence" >
    <i type="int" name="NELM">    60</i>
    <i type="int" name="NELMDL">    -5</i>
    <i type="int" name="NELMIN">     2</i>
    <i name="ENINI">    400.00000000</i>
    <separator name="electronic convergence detail" >
     <i type="logical" name="LDIAG"> T  </i>
     <i type="logical" name="LSUBROT"> F  </i>
     <i name="WEIMIN">      0.00000000</i>
     <i name="EBREAK">      0.00000104</i>
     <i name="DEPER">      0.30000000</i>
     <i type="int" name="NRMM">     4</i>
     <i name="TIME">      0.40000000</i>
    </separator>
   </separator>
   <separator name="electronic mixer" >
    <i name="AMIX">      0.40000000</i>
    <i name="BMIX">      1.00000000</i>
    <i name="AMIN">      0.10000000</i>
    <i name="AMIX_MAG">      1.60000000</i>
    <i name="BMIX_MAG">      1.00000000</i>
    <separator name="electronic mixer details" >
     <i type="int" name="IMIX">     4</i>
     <i type="logical" name="MIXFIRST"> F  </i>
     <i type="int" name="MAXMIX">   -45</i>
     <i name="WC">    100.00000000</i>
     <i type="int" name="INIMIX">     1</i>
     <i type="int" name="MIXPRE">     1</i>
     <i type="int" name="MREMOVE">     5</i>
    </separator>
   </separator>
   <separator name="electronic dipolcorrection" >
    <i type="logical" name="LDIPOL"> F  </i>
    <i type="logical" name="LMONO"> F  </i>
    <i type="int" name="IDIPOL">     0</i>
    <i name="EPSILON">      1.00000000</i>
    <v name="DIPOL">   -100.00000000   -100.00000000   -100.00000000</v>
    <i name="EFIELD">      0.00000000</i>
   </separator>
  </separator>
  <separator name="grids" >
   <i type="int" name="NGX">    20</i>
   <i type="int" name="NGY">    20</i>
   <i type="int" name="NGZ">    20</i>
   <i type="int" name="NGXF">    40</i>
   <i type="int" name="NGYF">    40</i>
   <i type="int" name="NGZF">    40</i>
   <i type="logical" name="ADDGRID"> F  </i>
  </separator>
  <separator name="ionic" >
   <i type="int" name="NSW">     0</i>
   <i type="int" name="IBRION">    -1</i>
   <i type="int" name="ISIF">     2</i>
   <i name="PSTRESS">      0.00000000</i>
   <i name="EDIFFG">      0.00100000</i>
   <i type="int" name="NFREE">     0</i>
   <i name="POTIM">      0.50000000</i>
   <i name="SMASS">     -3.00000000</i>
   <i name="SCALEE">      1.00000000</i>
  </separator>
  <separator name="ionic md" >
   <i name="TEBEG">      0.00010000</i>
   <i name="TEEND">      0.00010000</i>
   <i type="int" name="NBLOCK">     1</i>
   <i type="int" name="KBLOCK">     1</i>
   <i type="int" name="NPACO">   256</i>
   <i name="APACO">     16.00000000</i>
  </separator>
  <separator name="symmetry" >
   <i type="int" name="ISYM">     2</i>
   <i name="SYMPREC">      0.00001000</i>
  </separator>
  <separator name="dos" >
   <i type="logical" name="LORBIT"> F  </i>
   <v name="RWIGS">     -1.00000000</v>
   <i type="int" name="NEDOS">   301</i>
   <i name="EMIN">     10.00000000</i>
   <i name="EMAX">    -10.00000000</i>
   <i name="EFERMI">      0.00000000</i>
  </separator>
  <separator name="writing" >
   <i type="int" name="NWRITE">     2</i>
   <i type="logical" name="LWAVE"> F  </i>
   <i type="logical" name="LCHARG"> F  </i>
   <i type="logical" name="LPARD"> F  </i>
   <i type="logical" name="LVTOT"> F  </i>
   <i type="logical" name="LVHAR"> F  </i>
   <i type="logical" name="LELF"> F  </i>
   <i type="logical" name="LOPTICS"> F  </i>
   <v name="STM">      0.00000000      0.00000000      0.00000000      0.00000000      0.00000000      0.00000000      0.00000000</v>
  </separator>
  <separator name="performance" >
   <i type="int" name="NPAR">    24</i>
   <i type="int" name="NSIM">     4</i>
   <i type="int" name="NBLK">    -1</i>
   <i type="logical" name="LPLANE"> T  </i>
   <i type="logical" name="LSCALAPACK"> F  </i>
   <i type="logical" name="LSCAAWARE"> F  </i>
   <i type="logical" name="LSCALU"> F  </i>
   <i type="logical" name="LASYNC"> F  </i>
   <i type="logical" name="LORBITALREAL"> F  </i>
  </separator>
  <separator name="miscellaneous" >
   <i type="int" name="IDIOT">     3</i>
   <i type="logical" name="LMUSIC"> F  </i>
   <v name="POMASS">    106.42000000</v>
   <v name="DARWINR">      0.00000000</v>
   <v name="DARWINV">      1.00000000</v>
   <i type="logical" name="LCORR"> T  </i>
  </separator>
  <i type="logical" name="GGA_COMPAT"> T  </i>
  <i type="logical" name="LBERRY"> F  </i>
  <i type="int" name="ICORELEVEL">     0</i>
  <i type="logical" name="LDAU"> F  </i>
  <i type="int" name="I_CONSTRAINED_M">     0</i>
  <separator name="electronic exchange-correlation" >
   <i type="string" name="GGA">--</i>
   <i type="int" name="VOSKOWN">     0</i>
   <i type="logical" name="LHFCALC"> F  </i>
   <i type="string" name="PRECFOCK"></i>
   <i type="logical" name="LSYMGRAD"> F  </i>
   <i type="logical" name="LHFONE"> F  </i>
   <i type="logical" name="LRHFCALC"> F  </i>
   <i type="logical" name="LTHOMAS"> F  </i>
   <i type="logical" name="LMODELHF"> F  </i>
   <i name="ENCUT4O">     -1.00000000</i>
   <i type="int" name="EXXOEP">     0</i>
   <i type="int" name="FOURORBIT">     0</i>
   <i name="AEXX">      0.00000000</i>
   <i name="HFALPHA">      0.00000000</i>
   <i name="MCALPHA">      0.00000000</i>
   <i name="ALDAX">      1.00000000</i>
   <i name="AGGAX">      1.00000000</i>
   <i name="ALDAC">      1.00000000</i>
   <i name="AGGAC">      1.00000000</i>
   <i type="int" name="NKREDX">     1</i>
   <i type="int" name="NKREDY">     1</i>
   <i type="int" name="NKREDZ">     1</i>
   <i type="logical" name="SHIFTRED"> F  </i>
   <i type="logical" name="ODDONLY"> F  </i>
   <i type="logical" name="EVENONLY"> F  </i>
   <i type="int" name="LMAXFOCK">     0</i>
   <i type="int" name="NMAXFOCKAE">     0</i>
   <i type="logical" name="LFOCKAEDFT"> F  </i>
   <i name="HFSCREEN">      0.00000000</i>
   <i name="HFSCREENC">      0.00000000</i>
   <i type="int" name="NBANDSGWLOW">     0</i>
  </separator>
  <separator name="vdW DFT" >
   <i type="logical" name="LUSE_VDW"> F  </i>
   <i name="Zab_VDW">     -0.84910000</i>
   <i name="PARAM1">      0.12340000</i>
   <i name="PARAM2">      1.00000000</i>
   <i name="PARAM3">      0.00000000</i>
  </separator>
  <separator name="model GW" >
   <i type="int" name="MODEL_GW">     0</i>
   <i name="MODEL_EPS0">      9.74229734</i>
   <i name="MODEL_ALPHA">      1.00000000</i>
  </separator>
  <separator name="linear response parameters" >
   <i type="logical" name="LEPSILON"> F  </i>
   <i type="logical" name="LRPA"> F  </i>
   <i type="logical" name="LNABLA"> F  </i>
   <i type="logical" name="LVEL"> F  </i>
   <i type="int" name="KINTER">     0</i>
   <i name="CSHIFT">      0.10000000</i>
   <i name="OMEGAMAX">     -1.00000000</i>
   <i name="DEG_THRESHOLD">      0.00200000</i>
  </separator>
  <separator name="orbital magnetization" >
   <i type="logical" name="NUCIND"> F  </i>
   <v name="MAGPOS">      0.00000000      0.00000000      0.00000000</v>
   <i type="logical" name="LNICSALL"> T  </i>
   <i type="logical" name="ORBITALMAG"> F  </i>
   <i type="logical" name="LMAGBLOCH"> F  </i>
   <i type="logical" name="LCHIMAG"> F  </i>
   <i type="logical" name="LGAUGE"> T  </i>
   <i type="int" name="MAGATOM">     0</i>
   <v name="MAGDIPOL">      0.00000000      0.00000000      0.00000000</v>
   <v name="AVECCONST">      0.00000000      0.00000000      0.00000000</v>
  </separator>
  <separator name="response functions" >
   <i type="logical" name="LADDER"> F  </i>
   <i type="logical" name="LFXC"> F  </i>
   <i type="logical" name="LHARTREE"> T  </i>
   <i type="int" name="IBSE">     0</i>
   <v type="int" name="KPOINT">    -1     0     0     0</v>
   <i type="logical" name="LTCTE"> F  </i>
   <i type="logical" name="LTETE"> F  </i>
   <i type="logical" name="LTRIPLET"> F  </i>
   <i type="logical" name="LFXCEPS"> F  </i>
   <i type="logical" name="LFXHEG"> F  </i>
   <i type="int" name="NATURALO">     0</i>
   <i type="logical" name="L2ORDER"> F  </i>
   <i type="logical" name="LUSEW"> F  </i>
   <i name="ENCUTGW">     -2.00000000</i>
   <i name="ENCUTGWSOFT">     -2.00000000</i>
   <i name="ENCUTLF">     -1.00000000</i>
   <i type="int" name="LMAXMP2">    -1</i>
   <i name="SCISSOR">      0.00000000</i>
   <i type="int" name="NOMEGA">     0</i>
   <i type="int" name="NOMEGAR">     0</i>
   <i type="int" name="NBANDSGW">    -1</i>
   <i type="int" name="NBANDSO">    -1</i>
   <i type="int" name="NBANDSV">    -1</i>
   <i type="int" name="NELM">     1</i>
   <i type="int" name="NELMHF">     1</i>
   <i type="int" name="DIM">     3</i>
   <i type="int" name="ANTIRES">     0</i>
   <i name="OMEGAMAX">    -30.00000000</i>
   <i name="OMEGAMIN">    -30.00000000</i>
   <i name="OMEGATL">   -200.00000000</i>
   <i type="int" name="OMEGAGRID">     0</i>
   <i name="CSHIFT">     -0.10000000</i>
   <i type="logical" name="SELFENERGY"> F  </i>
   <i type="logical" name="LSPECTRAL"> F  </i>
   <i type="logical" name="LSPECTRALGW"> F  </i>
   <i type="logical" name="LSINGLES"> F  </i>
   <i type="logical" name="LFERMIGW"> F  </i>
   <i type="logical" name="ODDONLYGW"> F  </i>
   <i type="logical" name="EVENONLYGW"> F  </i>
   <i type="int" name="NKREDLFX">     1</i>
   <i type="int" name="NKREDLFY">     1</i>
   <i type="int" name="NKREDLFZ">     1</i>
   <i type="int" name="MAXMEM">  1800</i>
   <i type="int" name="TELESCOPE">     0</i>
   <i type="int" name="TAUPAR">     1</i>
   <i type="int" name="OMEGAPAR">    -1</i>
   <i name="LAMBDA">      1.00000000</i>
  </separator>
  <separator name="External order field" >
   <i name="OFIELD_KAPPA">      0.00000000</i>
   <v name="OFIELD_K">      0.00000000      0.00000000      0.00000000</v>
   <i name="OFIELD_Q6_NEAR">      0.00000000</i>
   <i name="OFIELD_Q6_FAR">      0.00000000</i>
   <i name="OFIELD_A">      0.00000000</i>
  </separator>
 </parameters>
 <atominfo>
  <atoms>       4 </atoms>
  <types>       1 </types>
  <array name="atoms" >
   <dimension dim="1">ion</dimension>
   <field type="string">element</field>
   <field type="int">atomtype</field>
   <set>
    <rc><c>Pd</c><c>   1</c></rc>
    <rc><c>Pd</c><c>   1</c></rc>
    <rc><c>Pd</c><c>   1</c></rc>
    <rc><c>Pd</c><c>   1</c></rc>
   </set>
  </array>
  <array name="atomtypes" >
   <dimension dim="1">type</dimension>
   <field type="int">atomspertype</field>
   <field type="string">element</field>
   <field>mass</field>
   <field>valence</field>
   <field type="string">pseudopotential</field>
   <set>
    <rc><c>   4</c><c>Pd</c><c>    106.42000000</c><c>     10.00000000</c><c>  PAW_PBE Pd 04Jan2005                  </c></rc>
   </set>
  </array>
 </atominfo>
 <structure name="initialpos" >
  <crystal>
   <varray name="basis" >
    <v>       4.01966667       0.00000000       0.00000000 </v>
    <v>       0.00000000       4.01966667       0.00000000 </v>
    <v>       0.00000000       0.00000000       4.01966667 </v>
   </varray>
   <i name="volume">     64.94864894 </i>
   <varray name="rec_basis" >
    <v>       0.24877685       0.00000000       0.00000000 </v>
    <v>       0.00000000       0.24877685       0.00000000 </v>
    <v>       0.00000000       0.00000000       0.24877685 </v>
   </varray>
  </crystal>
  <varray name="positions" >
   <v>       0.00000000       0.00000000       0.00000000 </v>
   <v>       0.00000000       0.50000000       0.50000000 </v>
   <v>       0.50000000       0.00000000       0.50000000 </v>
   <v>       0.50000000       0.50000000       0.00000000 </v>
  </varray>
 </structure>
 <calculation>
  <scstep>
   <time name="dav">    0.55    0.55</time>
   <time name="total">    1.58    1.65</time>
   <energy>
    <i name="alphaZ">    160.55816665 </i>
    <i name="ewald">  -3284.90117375 </i>
    <i name="hartreedc">   -534.94156288 </i>
    <i name="XCdc">   -117.70346828 </i>
    <i name="pawpsdc">   3226.95325816 </i>
    <i name="pawaedc">  -2978.06409795 </i>
    <i name="eentropy">      0.00118322 </i>
    <i name="bandstr">    432.61779525 </i>
    <i name="atom">   3238.97557032 </i>
    <i name="e_fr_energy">    143.49567072 </i>
    <i name="e_wo_entrp">    143.49448750 </i>
    <i name="e_0_energy">    143.49527632 </i>
   </energy>
  </scstep>
  <scstep>
   <time name="dav">    0.24    0.24</time>
   <time name="total">    0.24    0.24</time>
   <energy>
    <i name="e_fr_energy">    -20.85733877 </i>
    <i name="e_wo_entrp">    -20.85439404 </i>
    <i name="e_0_energy">    -20.85635719 </i>
   </energy>
  </scstep>
  <scstep>
   <time name="dav">    0.15    0.15</time>
   <time name="total">    0.15    0.17</time>
   <energy>
    <i name="e_fr_energy">    -21.74012323 </i>
    <i name="e_wo_entrp">    -21.73237644 </i>
    <i name="e_0_energy">    -21.73754097 </i>
   </energy>
  </scstep>
  <scstep>
   <time name="dav">    0.14    0.14</time>
   <time name="total">    0.15    0.15</time>
   <energy>
    <i name="e_fr_energy">    -21.74580812 </i>
    <i name="e_wo_entrp">    -21.73831839 </i>
    <i name="e_0_energy">    -21.74331155 </i>
   </energy>
  </scstep>
  <scstep>
   <time name="dav">    0.15    0.15</time>
   <time name="total">    0.16    0.16</time>
   <energy>
    <i name="e_fr_energy">    -21.74587015 </i>
    <i name="e_wo_entrp">    -21.73838226 </i>
    <i name="e_0_energy">    -21.74337418 </i>
   </energy>
  </scstep>
  <scstep>
   <time name="dav">    0.12    0.12</time>
   <time name="total">    0.14    0.14</time>
   <energy>
    <i name="e_fr_energy">    -20.78537259 </i>
    <i name="e_wo_entrp">    -20.78037367 </i>
    <i name="e_0_energy">    -20.78370628 </i>
   </energy>
  </scstep>
  <scstep>
   <time name="dav">    0.12    0.12</time>
   <time name="total">    0.14    0.14</time>
   <energy>
    <i name="e_fr_energy">    -20.76350946 </i>
    <i name="e_wo_entrp">    -20.75819714 </i>
    <i name="e_0_energy">    -20.76173869 </i>
   </energy>
  </scstep>
  <scstep>
   <time name="dav">    0.13    0.13</time>
   <time name="total">    0.15    0.15</time>
   <energy>
    <i name="e_fr_energy">    -20.75447375 </i>
    <i name="e_wo_entrp">    -20.74902398 </i>
    <i name="e_0_energy">    -20.75265716 </i>
   </energy>
  </scstep>
  <scstep>
   <time name="dav">    0.08    0.08</time>
   <time name="total">    0.08    0.09</time>
   <energy>
    <i name="alphaZ">    160.55816665 </i>
    <i name="ewald">  -3284.90117375 </i>
    <i name="hartreedc">   -497.45471139 </i>
    <i name="XCdc">   -118.81295410 </i>
    <i name="pawpsdc">   3705.58674113 </i>
    <i name="pawaedc">  -3465.26871370 </i>
    <i name="eentropy">     -0.00545105 </i>
    <i name="bandstr">    240.56802796 </i>
    <i name="atom">   3238.97557032 </i>
    <i name="e_fr_energy">    -20.75449794 </i>
    <i name="e_wo_entrp">    -20.74904689 </i>
    <i name="e_0_energy">    -20.75268093 </i>
   </energy>
  </scstep>
  <structure>
   <crystal>
    <varray name="basis" >
     <v>       4.01966667       0.00000000       0.00000000 </v>
     <v>       0.00000000       4.01966667       0.00000000 </v>
     <v>       0.00000000       0.00000000       4.01966667 </v>
    </varray>
    <i name="volume">     64.94864894 </i>
    <varray name="rec_basis" >
     <v>       0.24877685       0.00000000       0.00000000 </v>
     <v>       0.00000000       0.24877685       0.00000000 </v>
     <v>       0.00000000       0.00000000       0.24877685 </v>
    </varray>
   </crystal>
   <varray name="positions" >
    <v>       0.00000000       0.00000000       0.00000000 </v>
    <v>       0.00000000       0.50000000       0.50000000 </v>
    <v>       0.50000000       0.00000000       0.50000000 </v>
    <v>       0.50000000       0.50000000       0.00000000 </v>
   </varray>
  </structure>
  <varray name="forces" >
   <v>       0.00000000       0.00000000      -0.00000000 </v>
   <v>       0.00000000      -0.00000000       0.00000000 </v>
   <v>      -0.00000000       0.00000000       0.00000000 </v>
   <v>      -0.00000000       0.00000000       0.00000000 </v>
  </varray>
  <varray name="stress" >
   <v>     -89.67035862       0.00000000      -0.00000000 </v>
   <v>      -0.00000000     -89.67035862       0.00000000 </v>
   <v>      -0.00000000       0.00000000     -89.67035862 </v>
  </varray>
  <energy>
   <i name="e_fr_energy">    -20.75449794 </i>
   <i name="e_wo_entrp">    -20.75268093 </i>
   <i name="e_0_energy">     -0.00545105 </i>
  </energy>
  <time name="totalsc">    2.98    3.10</time>
  <eigenvalues>
   <array>
    <dimension dim="1">band</dimension>
    <dimension dim="2">kpoint</dimension>
    <dimension dim="3">spin</dimension>
    <field>eigene</field>
    <field>occ</field>
    <set>
     <set comment="spin 1">
      <set comment="kpoint 1">
       <r>    1.9555    1.0000 </r>
       <r>    3.6968    1.0000 </r>
       <r>    3.6968    1.0000 </r>
       <r>    3.6968    1.0000 </r>
       <r>    3.9367    1.0000 </r>
       <r>    3.9367    1.0000 </r>
       <r>    3.9367    1.0000 </r>
       <r>    5.7803    1.0000 </r>
       <r>    5.8652    1.0000 </r>
       <r>    5.8652    1.0000 </r>
       <r>    7.1802    1.0000 </r>
       <r>    7.1802    1.0000 </r>
       <r>    8.1161    1.0353 </r>
       <r>    8.1161    1.0353 </r>
       <r>    8.1161    1.0353 </r>
       <r>    8.2063    0.7798 </r>
       <r>    8.2063    0.7798 </r>
       <r>    8.2063    0.7798 </r>
       <r>    8.4400   -0.0084 </r>
       <r>    8.4400   -0.0084 </r>
       <r>    8.4400   -0.0084 </r>
       <r>   11.6990    0.0000 </r>
       <r>   11.6990    0.0000 </r>
       <r>   11.6990    0.0000 </r>
      </set>
      <set comment="kpoint 2">
       <r>    2.2936    1.0000 </r>
       <r>    3.8404    1.0000 </r>
       <r>    3.8908    1.0000 </r>
       <r>    3.8908    1.0000 </r>
       <r>    4.0605    1.0000 </r>
       <r>    4.1330    1.0000 </r>
       <r>    4.1330    1.0000 </r>
       <r>    5.6299    1.0000 </r>
       <r>    5.9952    1.0000 </r>
       <r>    6.0000    1.0000 </r>
       <r>    7.0185    1.0000 </r>
       <r>    7.2601    1.0000 </r>
       <r>    7.4551    1.0000 </r>
       <r>    7.4551    1.0000 </r>
       <r>    7.8852    1.0000 </r>
       <r>    7.9084    1.0000 </r>
       <r>    7.9084    1.0000 </r>
       <r>    7.9322    1.0001 </r>
       <r>    8.2794    0.2050 </r>
       <r>    8.4223   -0.0142 </r>
       <r>    8.4223   -0.0142 </r>
       <r>   10.3161   -0.0000 </r>
       <r>   12.6782    0.0000 </r>
       <r>   12.6782    0.0000 </r>
      </set>
      <set comment="kpoint 3">
       <r>    2.9193    1.0000 </r>
       <r>    4.0527    1.0000 </r>
       <r>    4.2271    1.0000 </r>
       <r>    4.2271    1.0000 </r>
       <r>    4.2961    1.0000 </r>
       <r>    4.5073    1.0000 </r>
       <r>    4.5073    1.0000 </r>
       <r>    5.3403    1.0000 </r>
       <r>    6.2401    1.0000 </r>
       <r>    6.2632    1.0000 </r>
       <r>    6.5483    1.0000 </r>
       <r>    6.5483    1.0000 </r>
       <r>    6.8052    1.0000 </r>
       <r>    7.3108    1.0000 </r>
       <r>    7.4103    1.0000 </r>
       <r>    7.5304    1.0000 </r>
       <r>    7.5304    1.0000 </r>
       <r>    7.5567    1.0000 </r>
       <r>    8.0663    1.0163 </r>
       <r>    8.4158   -0.0168 </r>
       <r>    8.4158   -0.0168 </r>
       <r>    8.7638   -0.0000 </r>
       <r>   14.0215    0.0000 </r>
       <r>   14.0215    0.0000 </r>
      </set>
      <set comment="kpoint 4">
       <r>    3.6644    1.0000 </r>
       <r>    4.1098    1.0000 </r>
       <r>    4.5514    1.0000 </r>
       <r>    4.5514    1.0000 </r>
       <r>    4.6162    1.0000 </r>
       <r>    4.9814    1.0000 </r>
       <r>    5.0244    1.0000 </r>
       <r>    5.0244    1.0000 </r>
       <r>    5.7182    1.0000 </r>
       <r>    5.7182    1.0000 </r>
       <r>    6.3554    1.0000 </r>
       <r>    6.6378    1.0000 </r>
       <r>    6.6459    1.0000 </r>
       <r>    6.9669    1.0000 </r>
       <r>    7.0901    1.0000 </r>
       <r>    7.1907    1.0000 </r>
       <r>    7.1907    1.0000 </r>
       <r>    7.6115    1.0000 </r>
       <r>    7.6313    1.0000 </r>
       <r>    7.8389    1.0000 </r>
       <r>    8.4140   -0.0176 </r>
       <r>    8.4140   -0.0176 </r>
       <r>   15.4373    0.0000 </r>
       <r>   15.4373    0.0000 </r>
      </set>
      <set comment="kpoint 5">
       <r>    2.6089    1.0000 </r>
       <r>    4.0080    1.0000 </r>
       <r>    4.0341    1.0000 </r>
       <r>    4.0341    1.0000 </r>
       <r>    4.2525    1.0000 </r>
       <r>    4.2525    1.0000 </r>
       <r>    4.3681    1.0000 </r>
       <r>    5.5799    1.0000 </r>
       <r>    6.0487    1.0000 </r>
       <r>    6.0705    1.0000 </r>
       <r>    6.9939    1.0000 </r>
       <r>    7.0851    1.0000 </r>
       <r>    7.0851    1.0000 </r>
       <r>    7.0912    1.0000 </r>
       <r>    7.2818    1.0000 </r>
       <r>    7.6718    1.0000 </r>
       <r>    7.8022    1.0000 </r>
       <r>    7.8022    1.0000 </r>
       <r>    8.2552    0.3866 </r>
       <r>    8.2552    0.3866 </r>
       <r>    8.2888    0.1460 </r>
       <r>   11.2282    0.0000 </r>
       <r>   11.2282    0.0000 </r>
       <r>   13.4598    0.0000 </r>
      </set>
      <set comment="kpoint 6">
       <r>    3.1883    1.0000 </r>
       <r>    4.2425    1.0000 </r>
       <r>    4.2735    1.0000 </r>
       <r>    4.3744    1.0000 </r>
       <r>    4.4842    1.0000 </r>
       <r>    4.6114    1.0000 </r>
       <r>    4.7345    1.0000 </r>
       <r>    5.3770    1.0000 </r>
       <r>    6.1577    1.0000 </r>
       <r>    6.2425    1.0000 </r>
       <r>    6.2622    1.0000 </r>
       <r>    6.4193    1.0000 </r>
       <r>    6.5611    1.0000 </r>
       <r>    6.8908    1.0000 </r>
       <r>    7.3694    1.0000 </r>
       <r>    7.4512    1.0000 </r>
       <r>    7.5063    1.0000 </r>
       <r>    7.5124    1.0000 </r>
       <r>    8.0143    1.0030 </r>
       <r>    8.1892    0.8833 </r>
       <r>    8.1958    0.8465 </r>
       <r>    9.6560   -0.0000 </r>
       <r>   12.3834    0.0000 </r>
       <r>   14.6358    0.0000 </r>
      </set>
      <set comment="kpoint 7">
       <r>    3.8783    1.0000 </r>
       <r>    4.3038    1.0000 </r>
       <r>    4.6447    1.0000 </r>
       <r>    4.7334    1.0000 </r>
       <r>    4.7768    1.0000 </r>
       <r>    5.0326    1.0000 </r>
       <r>    5.0601    1.0000 </r>
       <r>    5.0839    1.0000 </r>
       <r>    5.5764    1.0000 </r>
       <r>    5.7353    1.0000 </r>
       <r>    6.0711    1.0000 </r>
       <r>    6.1121    1.0000 </r>
       <r>    6.5886    1.0000 </r>
       <r>    7.0012    1.0000 </r>
       <r>    7.1114    1.0000 </r>
       <r>    7.1342    1.0000 </r>
       <r>    7.1775    1.0000 </r>
       <r>    7.6366    1.0000 </r>
       <r>    7.8708    1.0000 </r>
       <r>    8.1607    0.9926 </r>
       <r>    8.1609    0.9921 </r>
       <r>    8.4955   -0.0010 </r>
       <r>   13.5679    0.0000 </r>
       <r>   14.7442    0.0000 </r>
      </set>
      <set comment="kpoint 8">
       <r>    3.6671    1.0000 </r>
       <r>    4.4339    1.0000 </r>
       <r>    4.5609    1.0000 </r>
       <r>    4.5609    1.0000 </r>
       <r>    4.8466    1.0000 </r>
       <r>    4.8466    1.0000 </r>
       <r>    5.0566    1.0000 </r>
       <r>    5.3659    1.0000 </r>
       <r>    5.8479    1.0000 </r>
       <r>    5.8479    1.0000 </r>
       <r>    6.1033    1.0000 </r>
       <r>    6.1200    1.0000 </r>
       <r>    6.3450    1.0000 </r>
       <r>    6.8172    1.0000 </r>
       <r>    7.1140    1.0000 </r>
       <r>    7.2886    1.0000 </r>
       <r>    7.2886    1.0000 </r>
       <r>    7.8525    1.0000 </r>
       <r>    7.8525    1.0000 </r>
       <r>    7.8992    1.0000 </r>
       <r>    7.9546    1.0002 </r>
       <r>   10.7085   -0.0000 </r>
       <r>   10.7085   -0.0000 </r>
       <r>   14.3447    0.0000 </r>
      </set>
      <set comment="kpoint 9">
       <r>    4.2178    1.0000 </r>
       <r>    4.5837    1.0000 </r>
       <r>    4.7227    1.0000 </r>
       <r>    4.9304    1.0000 </r>
       <r>    5.1079    1.0000 </r>
       <r>    5.1117    1.0000 </r>
       <r>    5.2275    1.0000 </r>
       <r>    5.2575    1.0000 </r>
       <r>    5.4624    1.0000 </r>
       <r>    5.6569    1.0000 </r>
       <r>    5.7396    1.0000 </r>
       <r>    5.9039    1.0000 </r>
       <r>    6.5511    1.0000 </r>
       <r>    6.9035    1.0000 </r>
       <r>    6.9196    1.0000 </r>
       <r>    6.9962    1.0000 </r>
       <r>    7.0219    1.0000 </r>
       <r>    7.4359    1.0000 </r>
       <r>    7.7749    1.0000 </r>
       <r>    7.8075    1.0000 </r>
       <r>    8.5101   -0.0005 </r>
       <r>    9.4003   -0.0000 </r>
       <r>   11.8075    0.0000 </r>
       <r>   12.9906    0.0000 </r>
      </set>
      <set comment="kpoint 10">
       <r>    4.5383    1.0000 </r>
       <r>    4.7781    1.0000 </r>
       <r>    4.7781    1.0000 </r>
       <r>    4.7790    1.0000 </r>
       <r>    5.3692    1.0000 </r>
       <r>    5.3827    1.0000 </r>
       <r>    5.3827    1.0000 </r>
       <r>    5.3890    1.0000 </r>
       <r>    5.5674    1.0000 </r>
       <r>    5.5674    1.0000 </r>
       <r>    5.7432    1.0000 </r>
       <r>    5.8383    1.0000 </r>
       <r>    6.5022    1.0000 </r>
       <r>    6.6925    1.0000 </r>
       <r>    6.7189    1.0000 </r>
       <r>    6.7189    1.0000 </r>
       <r>    7.0303    1.0000 </r>
       <r>    7.3574    1.0000 </r>
       <r>    7.3574    1.0000 </r>
       <r>    7.5008    1.0000 </r>
       <r>    9.3355   -0.0000 </r>
       <r>   10.3979   -0.0000 </r>
       <r>   10.3979   -0.0000 </r>
       <r>   11.5581    0.0000 </r>
      </set>
      <set comment="kpoint 11">
       <r>    2.8803    1.0000 </r>
       <r>    4.1147    1.0000 </r>
       <r>    4.1147    1.0000 </r>
       <r>    4.1147    1.0000 </r>
       <r>    4.5067    1.0000 </r>
       <r>    4.5067    1.0000 </r>
       <r>    4.5067    1.0000 </r>
       <r>    5.6202    1.0000 </r>
       <r>    6.0706    1.0000 </r>
       <r>    6.0706    1.0000 </r>
       <r>    6.7994    1.0000 </r>
       <r>    6.7994    1.0000 </r>
       <r>    6.7994    1.0000 </r>
       <r>    7.1700    1.0000 </r>
       <r>    7.1700    1.0000 </r>
       <r>    7.3765    1.0000 </r>
       <r>    7.3765    1.0000 </r>
       <r>    7.3765    1.0000 </r>
       <r>    8.3336   -0.0146 </r>
       <r>    8.3336   -0.0146 </r>
       <r>    8.3336   -0.0146 </r>
       <r>   11.8631    0.0000 </r>
       <r>   11.8631    0.0000 </r>
       <r>   11.8631    0.0000 </r>
      </set>
      <set comment="kpoint 12">
       <r>    3.3630    1.0000 </r>
       <r>    4.2440    1.0000 </r>
       <r>    4.3386    1.0000 </r>
       <r>    4.3386    1.0000 </r>
       <r>    4.7866    1.0000 </r>
       <r>    4.8603    1.0000 </r>
       <r>    4.8603    1.0000 </r>
       <r>    5.5547    1.0000 </r>
       <r>    6.1137    1.0000 </r>
       <r>    6.1599    1.0000 </r>
       <r>    6.2270    1.0000 </r>
       <r>    6.2270    1.0000 </r>
       <r>    6.3452    1.0000 </r>
       <r>    6.9958    1.0000 </r>
       <r>    7.1392    1.0000 </r>
       <r>    7.1392    1.0000 </r>
       <r>    7.1457    1.0000 </r>
       <r>    7.4555    1.0000 </r>
       <r>    8.2380    0.5312 </r>
       <r>    8.2380    0.5312 </r>
       <r>    8.2659    0.3014 </r>
       <r>   10.1244   -0.0000 </r>
       <r>   12.8017    0.0000 </r>
       <r>   12.8017    0.0000 </r>
      </set>
      <set comment="kpoint 13">
       <r>    3.9054    1.0000 </r>
       <r>    4.2382    1.0000 </r>
       <r>    4.6787    1.0000 </r>
       <r>    4.6787    1.0000 </r>
       <r>    5.0069    1.0000 </r>
       <r>    5.0069    1.0000 </r>
       <r>    5.1346    1.0000 </r>
       <r>    5.3893    1.0000 </r>
       <r>    5.8507    1.0000 </r>
       <r>    5.8507    1.0000 </r>
       <r>    5.9754    1.0000 </r>
       <r>    5.9870    1.0000 </r>
       <r>    6.3476    1.0000 </r>
       <r>    6.6347    1.0000 </r>
       <r>    6.9330    1.0000 </r>
       <r>    6.9330    1.0000 </r>
       <r>    7.6309    1.0000 </r>
       <r>    7.7765    1.0000 </r>
       <r>    8.0666    1.0164 </r>
       <r>    8.1412    1.0256 </r>
       <r>    8.1412    1.0256 </r>
       <r>    8.6648   -0.0000 </r>
       <r>   13.7343    0.0000 </r>
       <r>   13.7343    0.0000 </r>
      </set>
      <set comment="kpoint 14">
       <r>    3.6551    1.0000 </r>
       <r>    4.3574    1.0000 </r>
       <r>    4.3574    1.0000 </r>
       <r>    4.3937    1.0000 </r>
       <r>    5.1280    1.0000 </r>
       <r>    5.1462    1.0000 </r>
       <r>    5.1462    1.0000 </r>
       <r>    5.7822    1.0000 </r>
       <r>    5.9909    1.0000 </r>
       <r>    5.9909    1.0000 </r>
       <r>    6.0896    1.0000 </r>
       <r>    6.1197    1.0000 </r>
       <r>    6.1666    1.0000 </r>
       <r>    6.7930    1.0000 </r>
       <r>    6.7996    1.0000 </r>
       <r>    6.7996    1.0000 </r>
       <r>    7.2020    1.0000 </r>
       <r>    7.7624    1.0000 </r>
       <r>    8.1548    1.0057 </r>
       <r>    8.1883    0.8881 </r>
       <r>    8.1883    0.8881 </r>
       <r>   10.9360   -0.0000 </r>
       <r>   10.9360   -0.0000 </r>
       <r>   13.2796    0.0000 </r>
      </set>
      <set comment="kpoint 15">
       <r>    3.9765    1.0000 </r>
       <r>    4.2357    1.0000 </r>
       <r>    4.5039    1.0000 </r>
       <r>    4.5056    1.0000 </r>
       <r>    5.2050    1.0000 </r>
       <r>    5.2205    1.0000 </r>
       <r>    5.5500    1.0000 </r>
       <r>    5.8272    1.0000 </r>
       <r>    5.8535    1.0000 </r>
       <r>    5.9387    1.0000 </r>
       <r>    6.0133    1.0000 </r>
       <r>    6.1501    1.0000 </r>
       <r>    6.2265    1.0000 </r>
       <r>    6.4686    1.0000 </r>
       <r>    6.6085    1.0000 </r>
       <r>    6.6530    1.0000 </r>
       <r>    7.5047    1.0000 </r>
       <r>    7.9510    1.0002 </r>
       <r>    8.0282    1.0050 </r>
       <r>    8.0378    1.0070 </r>
       <r>    8.3617   -0.0354 </r>
       <r>    9.3948   -0.0000 </r>
       <r>   11.8830    0.0000 </r>
       <r>   12.8523    0.0000 </r>
      </set>
      <set comment="kpoint 16">
       <r>    4.1020    1.0000 </r>
       <r>    4.2837    1.0000 </r>
       <r>    4.2837    1.0000 </r>
       <r>    4.3686    1.0000 </r>
       <r>    5.4048    1.0000 </r>
       <r>    5.5253    1.0000 </r>
       <r>    5.5253    1.0000 </r>
       <r>    5.7468    1.0000 </r>
       <r>    6.1622    1.0000 </r>
       <r>    6.1710    1.0000 </r>
       <r>    6.1710    1.0000 </r>
       <r>    6.3294    1.0000 </r>
       <r>    6.3637    1.0000 </r>
       <r>    6.3727    1.0000 </r>
       <r>    6.4124    1.0000 </r>
       <r>    6.4124    1.0000 </r>
       <r>    7.4646    1.0000 </r>
       <r>    7.7717    1.0000 </r>
       <r>    7.7717    1.0000 </r>
       <r>    7.8295    1.0000 </r>
       <r>    9.1922   -0.0000 </r>
       <r>   10.3357   -0.0000 </r>
       <r>   10.3357   -0.0000 </r>
       <r>   11.4816    0.0000 </r>
      </set>
      <set comment="kpoint 17">
       <r>    3.6946    1.0000 </r>
       <r>    4.2354    1.0000 </r>
       <r>    4.2354    1.0000 </r>
       <r>    4.2354    1.0000 </r>
       <r>    5.3475    1.0000 </r>
       <r>    5.3475    1.0000 </r>
       <r>    5.3475    1.0000 </r>
       <r>    5.9964    1.0000 </r>
       <r>    5.9964    1.0000 </r>
       <r>    6.2836    1.0000 </r>
       <r>    6.2836    1.0000 </r>
       <r>    6.2836    1.0000 </r>
       <r>    6.4407    1.0000 </r>
       <r>    6.4407    1.0000 </r>
       <r>    6.4407    1.0000 </r>
       <r>    6.4963    1.0000 </r>
       <r>    7.6168    1.0000 </r>
       <r>    7.6168    1.0000 </r>
       <r>    8.2688    0.2795 </r>
       <r>    8.2688    0.2795 </r>
       <r>    8.2688    0.2795 </r>
       <r>   11.3463    0.0000 </r>
       <r>   11.3463    0.0000 </r>
       <r>   11.3463    0.0000 </r>
      </set>
      <set comment="kpoint 18">
       <r>    3.8178    1.0000 </r>
       <r>    4.0142    1.0000 </r>
       <r>    4.1833    1.0000 </r>
       <r>    4.1833    1.0000 </r>
       <r>    5.4009    1.0000 </r>
       <r>    5.4009    1.0000 </r>
       <r>    5.6361    1.0000 </r>
       <r>    5.8661    1.0000 </r>
       <r>    6.0111    1.0000 </r>
       <r>    6.1653    1.0000 </r>
       <r>    6.2709    1.0000 </r>
       <r>    6.2709    1.0000 </r>
       <r>    6.4913    1.0000 </r>
       <r>    6.6022    1.0000 </r>
       <r>    6.6022    1.0000 </r>
       <r>    6.7295    1.0000 </r>
       <r>    7.9748    1.0005 </r>
       <r>    8.1721    0.9584 </r>
       <r>    8.1721    0.9584 </r>
       <r>    8.1914    0.8718 </r>
       <r>    8.2080    0.7680 </r>
       <r>    9.5906   -0.0000 </r>
       <r>   11.7307    0.0000 </r>
       <r>   11.7307    0.0000 </r>
      </set>
      <set comment="kpoint 19">
       <r>    3.8023    1.0000 </r>
       <r>    3.9310    1.0000 </r>
       <r>    3.9310    1.0000 </r>
       <r>    3.9883    1.0000 </r>
       <r>    5.5660    1.0000 </r>
       <r>    5.6401    1.0000 </r>
       <r>    5.6401    1.0000 </r>
       <r>    5.8195    1.0000 </r>
       <r>    5.9195    1.0000 </r>
       <r>    6.0257    1.0000 </r>
       <r>    6.0257    1.0000 </r>
       <r>    6.0574    1.0000 </r>
       <r>    7.0458    1.0000 </r>
       <r>    7.0458    1.0000 </r>
       <r>    7.0527    1.0000 </r>
       <r>    7.3258    1.0000 </r>
       <r>    7.8659    1.0000 </r>
       <r>    8.1124    1.0348 </r>
       <r>    8.1125    1.0348 </r>
       <r>    8.1125    1.0348 </r>
       <r>    8.9108   -0.0000 </r>
       <r>   10.1822   -0.0000 </r>
       <r>   10.1822   -0.0000 </r>
       <r>   11.0247    0.0000 </r>
      </set>
      <set comment="kpoint 20">
       <r>    3.6837    1.0000 </r>
       <r>    3.7494    1.0000 </r>
       <r>    3.7494    1.0000 </r>
       <r>    3.7494    1.0000 </r>
       <r>    5.7258    1.0000 </r>
       <r>    5.7258    1.0000 </r>
       <r>    5.7258    1.0000 </r>
       <r>    5.8165    1.0000 </r>
       <r>    5.8165    1.0000 </r>
       <r>    5.8649    1.0000 </r>
       <r>    5.8649    1.0000 </r>
       <r>    5.8649    1.0000 </r>
       <r>    7.7068    1.0000 </r>
       <r>    7.7068    1.0000 </r>
       <r>    7.7068    1.0000 </r>
       <r>    8.1410    1.0258 </r>
       <r>    8.1410    1.0258 </r>
       <r>    8.2290    0.6068 </r>
       <r>    8.2290    0.6068 </r>
       <r>    8.2290    0.6068 </r>
       <r>    8.8481   -0.0000 </r>
       <r>    9.9794   -0.0000 </r>
       <r>    9.9794   -0.0000 </r>
       <r>    9.9794   -0.0000 </r>
      </set>
     </set>
    </set>
   </array>
  </eigenvalues>
  <separator name="orbital magnetization" >
   <v name="MAGDIPOLOUT">      0.00000000      0.00000000      0.00000000</v>
  </separator>
  <dos>
   <i name="efermi">      8.24169207 </i>
   <total>
    <array>
     <dimension dim="1">gridpoints</dimension>
     <dimension dim="2">spin</dimension>
     <field>energy</field>
     <field>total</field>
     <field>integrated</field>
     <set>
      <set comment="spin 1">
       <r>     0.9555     0.0000     0.0000 </r>
       <r>     1.0071     0.0000     0.0000 </r>
       <r>     1.0587     0.0000     0.0000 </r>
       <r>     1.1103    -0.0000    -0.0000 </r>
       <r>     1.1619    -0.0000    -0.0000 </r>
       <r>     1.2135    -0.0000    -0.0000 </r>
       <r>     1.2651    -0.0000    -0.0000 </r>
       <r>     1.3168    -0.0000    -0.0000 </r>
       <r>     1.3684    -0.0000    -0.0000 </r>
       <r>     1.4200    -0.0000    -0.0000 </r>
       <r>     1.4716    -0.0000    -0.0000 </r>
       <r>     1.5232    -0.0000    -0.0000 </r>
       <r>     1.5748    -0.0000    -0.0000 </r>
       <r>     1.6264    -0.0000    -0.0000 </r>
       <r>     1.6780    -0.0002    -0.0000 </r>
       <r>     1.7296    -0.0017    -0.0001 </r>
       <r>     1.7812    -0.0082    -0.0005 </r>
       <r>     1.8328    -0.0114    -0.0011 </r>
       <r>     1.8844     0.0435     0.0011 </r>
       <r>     1.9360     0.1830     0.0106 </r>
       <r>     1.9876     0.2532     0.0236 </r>
       <r>     2.0392     0.1450     0.0311 </r>
       <r>     2.0908     0.0093     0.0316 </r>
       <r>     2.1424    -0.0490     0.0291 </r>
       <r>     2.1941    -0.0015     0.0290 </r>
       <r>     2.2457     0.3007     0.0445 </r>
       <r>     2.2973     0.7076     0.0810 </r>
       <r>     2.3489     0.6648     0.1153 </r>
       <r>     2.4005     0.2323     0.1273 </r>
       <r>     2.4521    -0.0465     0.1249 </r>
       <r>     2.5037    -0.0422     0.1227 </r>
       <r>     2.5553     0.2462     0.1355 </r>
       <r>     2.6069     0.6751     0.1703 </r>
       <r>     2.6585     0.6957     0.2062 </r>
       <r>     2.7101     0.2693     0.2201 </r>
       <r>     2.7617    -0.0434     0.2179 </r>
       <r>     2.8133     0.0060     0.2182 </r>
       <r>     2.8649     0.4324     0.2405 </r>
       <r>     2.9165     0.9196     0.2879 </r>
       <r>     2.9681     0.8244     0.3305 </r>
       <r>     3.0197     0.2534     0.3435 </r>
       <r>     3.0714    -0.0684     0.3400 </r>
       <r>     3.1230     0.2921     0.3551 </r>
       <r>     3.1746     1.1609     0.4150 </r>
       <r>     3.2262     1.4542     0.4900 </r>
       <r>     3.2778     0.8328     0.5330 </r>
       <r>     3.3294     0.5023     0.5589 </r>
       <r>     3.3810     0.6786     0.5940 </r>
       <r>     3.4326     0.5140     0.6205 </r>
       <r>     3.4842     0.0499     0.6231 </r>
       <r>     3.5358    -0.2046     0.6125 </r>
       <r>     3.5874     0.2415     0.6250 </r>
       <r>     3.6390     1.8616     0.7210 </r>
       <r>     3.6906     3.4366     0.8984 </r>
       <r>     3.7422     3.3043     1.0689 </r>
       <r>     3.7938     2.8517     1.2161 </r>
       <r>     3.8454     4.0636     1.4258 </r>
       <r>     3.8971     6.1593     1.7436 </r>
       <r>     3.9487     7.3010     2.1204 </r>
       <r>     4.0003     7.2920     2.4967 </r>
       <r>     4.0519     6.7283     2.8439 </r>
       <r>     4.1035     5.8387     3.1453 </r>
       <r>     4.1551     6.0825     3.4592 </r>
       <r>     4.2067     9.5971     3.9544 </r>
       <r>     4.2583    14.0524     4.6796 </r>
       <r>     4.3099    14.1972     5.4123 </r>
       <r>     4.3615    10.6621     5.9625 </r>
       <r>     4.4131     7.1579     6.3319 </r>
       <r>     4.4647     6.5272     6.6687 </r>
       <r>     4.5163     9.1998     7.1435 </r>
       <r>     4.5679    10.7117     7.6963 </r>
       <r>     4.6195     8.9733     8.1594 </r>
       <r>     4.6711     7.1942     8.5306 </r>
       <r>     4.7227     7.8578     8.9361 </r>
       <r>     4.7744     9.0650     9.4039 </r>
       <r>     4.8260     7.8388     9.8085 </r>
       <r>     4.8776     5.0539    10.0693 </r>
       <r>     4.9292     3.3544    10.2424 </r>
       <r>     4.9808     4.3565    10.4672 </r>
       <r>     5.0324     7.6125    10.8601 </r>
       <r>     5.0840    10.1940    11.3861 </r>
       <r>     5.1356    10.0008    11.9022 </r>
       <r>     5.1872     8.1997    12.3254 </r>
       <r>     5.2388     6.4649    12.6590 </r>
       <r>     5.2904     5.1499    12.9248 </r>
       <r>     5.3420     6.3319    13.2516 </r>
       <r>     5.3936     9.0530    13.7187 </r>
       <r>     5.4452     8.1687    14.1403 </r>
       <r>     5.4968     5.8657    14.4430 </r>
       <r>     5.5484     7.2101    14.8151 </r>
       <r>     5.6000     9.3169    15.2959 </r>
       <r>     5.6517     8.7880    15.7494 </r>
       <r>     5.7033     8.0231    16.1634 </r>
       <r>     5.7549     8.7914    16.6171 </r>
       <r>     5.8065    10.3566    17.1516 </r>
       <r>     5.8581    11.6688    17.7538 </r>
       <r>     5.9097    10.7941    18.3108 </r>
       <r>     5.9613     9.6594    18.8093 </r>
       <r>     6.0129    11.0888    19.3816 </r>
       <r>     6.0645    12.8825    20.0464 </r>
       <r>     6.1161    13.7470    20.7558 </r>
       <r>     6.1677    14.0232    21.4795 </r>
       <r>     6.2193    13.2544    22.1635 </r>
       <r>     6.2709    11.6001    22.7621 </r>
       <r>     6.3225     9.4764    23.2512 </r>
       <r>     6.3741     8.0303    23.6656 </r>
       <r>     6.4257     7.3277    24.0437 </r>
       <r>     6.4774     6.7800    24.3936 </r>
       <r>     6.5290     7.5591    24.7837 </r>
       <r>     6.5806     9.7782    25.2883 </r>
       <r>     6.6322    10.4629    25.8283 </r>
       <r>     6.6838     8.2106    26.2520 </r>
       <r>     6.7354     5.7253    26.5474 </r>
       <r>     6.7870     5.1359    26.8125 </r>
       <r>     6.8386     5.4098    27.0917 </r>
       <r>     6.8902     6.0694    27.4049 </r>
       <r>     6.9418     7.9243    27.8138 </r>
       <r>     6.9934    10.4084    28.3510 </r>
       <r>     7.0450    12.1018    28.9755 </r>
       <r>     7.0966    12.4997    29.6205 </r>
       <r>     7.1482    11.9408    30.2368 </r>
       <r>     7.1998     9.5625    30.7302 </r>
       <r>     7.2514     6.3717    31.0591 </r>
       <r>     7.3030     5.3332    31.3343 </r>
       <r>     7.3547     6.2812    31.6584 </r>
       <r>     7.4063     7.9322    32.0678 </r>
       <r>     7.4579    10.3394    32.6014 </r>
       <r>     7.5095    11.4712    33.1933 </r>
       <r>     7.5611     9.2436    33.6704 </r>
       <r>     7.6127     6.3011    33.9955 </r>
       <r>     7.6643     4.8476    34.2457 </r>
       <r>     7.7159     4.5853    34.4823 </r>
       <r>     7.7675     6.8041    34.8335 </r>
       <r>     7.8191    10.1887    35.3593 </r>
       <r>     7.8707    11.1736    35.9359 </r>
       <r>     7.9223     9.6745    36.4351 </r>
       <r>     7.9739     7.8321    36.8393 </r>
       <r>     8.0255     7.0775    37.2046 </r>
       <r>     8.0771     7.9128    37.6129 </r>
       <r>     8.1287    11.4393    38.2033 </r>
       <r>     8.1803    16.0601    39.0321 </r>
       <r>     8.2320    16.1923    39.8677 </r>
       <r>     8.2836    11.1006    40.4405 </r>
       <r>     8.3352     6.2856    40.7649 </r>
       <r>     8.3868     5.5247    41.0500 </r>
       <r>     8.4384     6.7625    41.3990 </r>
       <r>     8.4900     6.2436    41.7212 </r>
       <r>     8.5416     3.7754    41.9160 </r>
       <r>     8.5932     1.3577    41.9861 </r>
       <r>     8.6448     0.4710    42.0104 </r>
       <r>     8.6964     0.7025    42.0467 </r>
       <r>     8.7480     0.9277    42.0945 </r>
       <r>     8.7996     0.8858    42.1403 </r>
       <r>     8.8512     0.8113    42.1821 </r>
       <r>     8.9028     0.8881    42.2280 </r>
       <r>     8.9544     0.7641    42.2674 </r>
       <r>     9.0060     0.2993    42.2828 </r>
       <r>     9.0577    -0.0358    42.2810 </r>
       <r>     9.1093     0.0189    42.2820 </r>
       <r>     9.1609     0.3950    42.3023 </r>
       <r>     9.2125     0.6485    42.3358 </r>
       <r>     9.2641     0.5167    42.3625 </r>
       <r>     9.3157     0.9581    42.4119 </r>
       <r>     9.3673     2.5439    42.5432 </r>
       <r>     9.4189     3.4317    42.7203 </r>
       <r>     9.4705     2.1217    42.8298 </r>
       <r>     9.5221     0.5092    42.8561 </r>
       <r>     9.5737     0.5501    42.8845 </r>
       <r>     9.6253     1.5625    42.9651 </r>
       <r>     9.6769     1.9204    43.0642 </r>
       <r>     9.7285     1.1206    43.1220 </r>
       <r>     9.7801     0.1915    43.1319 </r>
       <r>     9.8317    -0.1245    43.1255 </r>
       <r>     9.8833    -0.0390    43.1235 </r>
       <r>     9.9350     0.2998    43.1389 </r>
       <r>     9.9866     0.6552    43.1728 </r>
       <r>    10.0382     0.6170    43.2046 </r>
       <r>    10.0898     0.6766    43.2395 </r>
       <r>    10.1414     1.4052    43.3120 </r>
       <r>    10.1930     1.8819    43.4091 </r>
       <r>    10.2446     1.4935    43.4862 </r>
       <r>    10.2962     1.6352    43.5706 </r>
       <r>    10.3478     2.7364    43.7118 </r>
       <r>    10.3994     2.9869    43.8660 </r>
       <r>    10.4510     1.7647    43.9570 </r>
       <r>    10.5026     0.4043    43.9779 </r>
       <r>    10.5542    -0.1615    43.9695 </r>
       <r>    10.6058    -0.0919    43.9648 </r>
       <r>    10.6574     0.5288    43.9921 </r>
       <r>    10.7090     1.3695    44.0628 </r>
       <r>    10.7607     1.3210    44.1309 </r>
       <r>    10.8123     0.4561    44.1545 </r>
       <r>    10.8639     0.2043    44.1650 </r>
       <r>    10.9155     0.9943    44.2163 </r>
       <r>    10.9671     1.7243    44.3053 </r>
       <r>    11.0187     1.5276    44.3842 </r>
       <r>    11.0703     0.7864    44.4247 </r>
       <r>    11.1219     0.2150    44.4358 </r>
       <r>    11.1735     0.4417    44.4586 </r>
       <r>    11.2251     1.2618    44.5237 </r>
       <r>    11.2767     1.5249    44.6024 </r>
       <r>    11.3283     1.1130    44.6599 </r>
       <r>    11.3799     0.7396    44.6980 </r>
       <r>    11.4315     0.6016    44.7291 </r>
       <r>    11.4831     0.8254    44.7717 </r>
       <r>    11.5347     1.0933    44.8281 </r>
       <r>    11.5863     0.8925    44.8742 </r>
       <r>    11.6380     0.6479    44.9076 </r>
       <r>    11.6896     1.2794    44.9736 </r>
       <r>    11.7412     2.3705    45.0959 </r>
       <r>    11.7928     2.9485    45.2481 </r>
       <r>    11.8444     3.2197    45.4143 </r>
       <r>    11.8960     2.9575    45.5669 </r>
       <r>    11.9476     1.6463    45.6519 </r>
       <r>    11.9992     0.3113    45.6679 </r>
       <r>    12.0508    -0.1282    45.6613 </r>
       <r>    12.1024    -0.0802    45.6572 </r>
       <r>    12.1540    -0.0258    45.6558 </r>
       <r>    12.2056    -0.0473    45.6534 </r>
       <r>    12.2572    -0.0726    45.6496 </r>
       <r>    12.3088     0.2199    45.6610 </r>
       <r>    12.3604     1.0397    45.7146 </r>
       <r>    12.4120     1.5259    45.7934 </r>
       <r>    12.4636     0.9246    45.8411 </r>
       <r>    12.5153     0.0961    45.8461 </r>
       <r>    12.5669    -0.1268    45.8395 </r>
       <r>    12.6185     0.3281    45.8565 </r>
       <r>    12.6701     1.1473    45.9157 </r>
       <r>    12.7217     1.5380    45.9950 </r>
       <r>    12.7733     1.7810    46.0869 </r>
       <r>    12.8249     2.4685    46.2143 </r>
       <r>    12.8765     2.4402    46.3403 </r>
       <r>    12.9281     1.5849    46.4220 </r>
       <r>    12.9797     1.3621    46.4923 </r>
       <r>    13.0313     1.3552    46.5623 </r>
       <r>    13.0829     0.6598    46.5963 </r>
       <r>    13.1345     0.0068    46.5967 </r>
       <r>    13.1861    -0.0548    46.5938 </r>
       <r>    13.2377     0.3188    46.6103 </r>
       <r>    13.2893     0.7021    46.6465 </r>
       <r>    13.3410     0.5840    46.6767 </r>
       <r>    13.3926     0.3033    46.6923 </r>
       <r>    13.4442     0.4868    46.7174 </r>
       <r>    13.4958     0.9651    46.7673 </r>
       <r>    13.5474     1.4428    46.8417 </r>
       <r>    13.5990     1.4897    46.9186 </r>
       <r>    13.6506     0.9834    46.9693 </r>
       <r>    13.7022     0.9978    47.0208 </r>
       <r>    13.7538     1.4382    47.0950 </r>
       <r>    13.8054     1.0448    47.1490 </r>
       <r>    13.8570     0.1943    47.1590 </r>
       <r>    13.9086    -0.1154    47.1530 </r>
       <r>    13.9602     0.3441    47.1708 </r>
       <r>    14.0118     1.2406    47.2348 </r>
       <r>    14.0634     1.4665    47.3105 </r>
       <r>    14.1150     0.7015    47.3467 </r>
       <r>    14.1666     0.0233    47.3479 </r>
       <r>    14.2183    -0.1122    47.3421 </r>
       <r>    14.2699     0.0808    47.3463 </r>
       <r>    14.3215     0.5134    47.3728 </r>
       <r>    14.3731     0.7615    47.4121 </r>
       <r>    14.4247     0.4547    47.4355 </r>
       <r>    14.4763     0.0140    47.4363 </r>
       <r>    14.5279    -0.0830    47.4320 </r>
       <r>    14.5795     0.3880    47.4520 </r>
       <r>    14.6311     1.2675    47.5174 </r>
       <r>    14.6827     1.8151    47.6111 </r>
       <r>    14.7343     1.8686    47.7075 </r>
       <r>    14.7859     1.4849    47.7841 </r>
       <r>    14.8375     0.6377    47.8171 </r>
       <r>    14.8891     0.0239    47.8183 </r>
       <r>    14.9407    -0.0794    47.8142 </r>
       <r>    14.9923    -0.0281    47.8127 </r>
       <r>    15.0439    -0.0042    47.8125 </r>
       <r>    15.0956    -0.0004    47.8125 </r>
       <r>    15.1472    -0.0006    47.8125 </r>
       <r>    15.1988    -0.0063    47.8121 </r>
       <r>    15.2504    -0.0364    47.8103 </r>
       <r>    15.3020    -0.0778    47.8063 </r>
       <r>    15.3536     0.1248    47.8127 </r>
       <r>    15.4052     0.8795    47.8581 </r>
       <r>    15.4568     1.5201    47.9365 </r>
       <r>    15.5084     1.0978    47.9932 </r>
       <r>    15.5600     0.2610    48.0066 </r>
       <r>    15.6116    -0.0681    48.0031 </r>
       <r>    15.6632    -0.0492    48.0006 </r>
       <r>    15.7148    -0.0104    48.0001 </r>
       <r>    15.7664    -0.0011    48.0000 </r>
       <r>    15.8180    -0.0001    48.0000 </r>
       <r>    15.8696    -0.0000    48.0000 </r>
       <r>    15.9213    -0.0000    48.0000 </r>
       <r>    15.9729    -0.0000    48.0000 </r>
       <r>    16.0245    -0.0000    48.0000 </r>
       <r>    16.0761    -0.0000    48.0000 </r>
       <r>    16.1277     0.0000    48.0000 </r>
       <r>    16.1793     0.0000    48.0000 </r>
       <r>    16.2309     0.0000    48.0000 </r>
       <r>    16.2825     0.0000    48.0000 </r>
       <r>    16.3341     0.0000    48.0000 </r>
       <r>    16.3857     0.0000    48.0000 </r>
       <r>    16.4373     0.0000    48.0000 </r>
      </set>
     </set>
    </array>
   </total>
  </dos>
 </calculation>
 <structure name="finalpos" >
  <crystal>
   <varray name="basis" >
    <v>       4.01966667       0.00000000       0.00000000 </v>
    <v>       0.00000000       4.01966667       0.00000000 </v>
    <v>       0.00000000       0.00000000       4.01966667 </v>
   </varray>
   <i name="volume">     64.94864894 </i>
   <varray name="rec_basis" >
    <v>       0.24877685       0.00000000       0.00000000 </v>
    <v>       0.00000000       0.24877685       0.00000000 </v>
    <v>       0.00000000       0.00000000       0.24877685 </v>
   </varray>
  </crystal>
  <varray name="positions" >
   <v>       0.00000000       0.00000000       0.00000000 </v>
   <v>       0.00000000       0.50000000       0.50000000 </v>
   <v>       0.50000000       0.00000000       0.50000000 </v>
   <v>       0.50000000       0.50000000       0.00000000 </v>
  </varray>
 </structure>
</modeling>
