unknown system                          
           1
     4.019667    0.000000    0.000000
     0.000000    4.019667    0.000000
     0.000000    0.000000    4.019667
   Pd
   4
Direct configuration=     1
   0.00000000  0.00000000  0.00000000
   0.00000000  0.50000000  0.50000000
   0.50000000  0.00000000  0.50000000
   0.50000000  0.50000000  0.00000000
