----- GAMESS execution script 'rungms' -----
This job is running on host crcfe02.crc.nd.edu
under operating system Linux at Thu Dec 12 13:22:06 EST 2019
Available scratch disk space (Kbyte units) at beginning of the job is
Filesystem      1K-blocks  Used  Available Use% Mounted on
AFS            2147483647     0 2147483647   0% /afs
GAMESS temporary binary files will be written to /afs/crc.nd.edu/user/c/cdrisko
GAMESS supplementary output files will be written to /afs/crc.nd.edu/user/c/cdrisko/scr
Copying input file acetaldehyde.inp to your run's scratch directory...

 Distributed Data Interface kickoff program.
 Initiating 1 compute processes on 1 nodes to run the following command:
 /afs/crc.nd.edu/x86_64_linux/g/gamess/nov-2017/gamess/gamess.00.x acetaldehyde 

          ******************************************************
          *         GAMESS VERSION = 11 NOV 2017 (R3)         *
          *             FROM IOWA STATE UNIVERSITY             *
          * M.W.SCHMIDT, K.K.BALDRIDGE, J.A.BOATZ, S.T.ELBERT, *
          *   M.S.GORDON, J.H.JENSEN, S.KOSEKI, N.MATSUNAGA,   *
          *          K.A.NGUYEN, S.J.SU, T.L.WINDUS,           *
          *       TOGETHER WITH M.DUPUIS, J.A.MONTGOMERY       *
          *         J.COMPUT.CHEM.  14, 1347-1363(1993)        *
          **************** 64 BIT INTEL VERSION ****************

  SINCE 1993, STUDENTS AND POSTDOCS WORKING AT IOWA STATE UNIVERSITY
  AND ALSO IN THEIR VARIOUS JOBS AFTER LEAVING ISU HAVE MADE IMPORTANT
  CONTRIBUTIONS TO THE CODE:
     IVANA ADAMOVIC, CHRISTINE AIKENS, YURI ALEXEEV, POOJA ARORA,
     ANDREY ASADCHEV, ROB BELL, PRADIPTA BANDYOPADHYAY, JONATHAN BENTZ,
     BRETT BODE, KURT BRORSEN, CALEB CARLIN, GALINA CHABAN, WEI CHEN,
     CHEOL HO CHOI, PAUL DAY, ALBERT DEFUSCO, NUWAN DESILVA, TIM DUDLEY,
     DMITRI FEDOROV, ALEX FINDLATER, GRAHAM FLETCHER, MARK FREITAG,
     KURT GLAESEMANN, ANASTASIA GUININA,
     DAN KEMP, GRANT MERRILL, NORIYUKI MINEZAWA, JONATHAN MULLIN,
     TAKESHI NAGATA, SEAN NEDD, HEATHER NETZLOFF, BOSILJKA NJEGIC, RYAN OLSON,
     MIKE PAK, BUU PHAM,
     SPENCER PRUITT, LUKE ROSKOP, JIM SHOEMAKER, LYUDMILA SLIPCHENKO,
     TONY SMITH, SAROM SOK LEANG, JIE SONG, TETSUYA TAKETSUGU, SIMON WEBB,
     PENG XU, SOOHAENG YOO, FEDERICO ZAHARIEV

  ADDITIONAL CODE HAS BEEN PROVIDED BY COLLABORATORS IN OTHER GROUPS:
     IOWA STATE UNIVERSITY:
          JOE IVANIC, AARON WEST, LAIMUTIS BYTAUTAS, KLAUS RUEDENBERG
     UNIVERSITY OF TOKYO: KIMIHIKO HIRAO, TAKAHITO NAKAJIMA,
          TAKAO TSUNEDA, MUNEAKI KAMIYA, SUSUMU YANAGISAWA,
          KIYOSHI YAGI, MAHITO CHIBA, SEIKEN TOKURA, NAOAKI KAWAKAMI
     UNIVERSITY OF AARHUS: FRANK JENSEN
     UNIVERSITY OF IOWA: VISVALDAS KAIRYS, HUI LI
     NATIONAL INST. OF STANDARDS AND TECHNOLOGY: WALT STEVENS, DAVID GARMER
     UNIVERSITY OF PISA: BENEDETTA MENNUCCI, JACOPO TOMASI
     UNIVERSITY OF MEMPHIS: HENRY KURTZ, PRAKASHAN KORAMBATH
     UNIVERSITY OF ALBERTA: TOBY ZENG, MARIUSZ KLOBUKOWSKI
     UNIVERSITY OF NEW ENGLAND: MARK SPACKMAN
     MIE UNIVERSITY: HIROAKI UMEDA
     NAT. INST. OF ADVANCED INDUSTRIAL SCIENCE AND TECHNOLOGY: KAZUO KITAURA
     MICHIGAN STATE UNIVERSITY:
          KAROL KOWALSKI, MARTA WLOCH, JEFFREY GOUR, JESSE LUTZ,
          WEI LI, PIOTR PIECUCH
     UNIVERSITY OF SILESIA: MONIKA MUSIAL, STANISLAW KUCHARSKI
     FACULTES UNIVERSITAIRES NOTRE-DAME DE LA PAIX:
          OLIVIER QUINET, BENOIT CHAMPAGNE
     UNIVERSITY OF CALIFORNIA - SANTA BARBARA: BERNARD KIRTMAN
     INSTITUTE FOR MOLECULAR SCIENCE:
          KAZUYA ISHIMURA, MICHIO KATOUDA, AND SHIGERU NAGASE
     UNIVERSITY OF NOTRE DAME: ANNA POMOGAEVA, DAN CHIPMAN
     KYUSHU UNIVERSITY:
          HARUYUKI NAKANO,
          FENG LONG GU, JACEK KORCHOWIEC, MARCIN MAKOWSKI, AND YURIKO AOKI,
          HIROTOSHI MORI AND EISAKU MIYOSHI
     PENNSYLVANIA STATE UNIVERSITY:
          TZVETELIN IORDANOV, CHET SWALINA, JONATHAN SKONE,
          SHARON HAMMES-SCHIFFER
     WASEDA UNIVERSITY:
          MASATO KOBAYASHI, TOMOKO AKAMA, TSUGUKI TOUMA,
          TAKESHI YOSHIKAWA, YASUHIRO IKABATA, JUNJI SEINO,
          YUYA NAKAJIMA, HIROMI NAKAI
     NANJING UNIVERSITY: SHUHUA LI
     UNIVERSITY OF NEBRASKA:
          PEIFENG SU, DEJUN SI, NANDUN THELLAMUREGE, YALI WANG, HUI LI
     UNIVERSITY OF ZURICH: ROBERTO PEVERATI, KIM BALDRIDGE
     N. COPERNICUS UNIVERSITY AND JACKSON STATE UNIVERSITY:
          MARIA BARYSZ
     UNIVERSITY OF COPENHAGEN: Jimmy Kromann, CASPER STEINMANN
     TOKYO INSTITUTE OF TECHNOLOGY: HIROYA NAKATA
     NAGOYA UNIVERSITY: YOSHIO NISHIMOTO, STEPHAN IRLE
     MOSCOW STATE UNIVERSITY: VLADIMIR MIRONOV

 EXECUTION OF GAMESS BEGUN Thu Dec 12 13:22:07 2019

            ECHO OF THE FIRST FEW INPUT CARDS -
 INPUT CARD> $CONTRL SCFTYP=RHF DFTTYP=B3LYP RUNTYP=ENERGY                                  
 INPUT CARD>       ISPHER=1 MULT=1 COORD=ZMT NZVAR=15 $END                                  
 INPUT CARD> $BASIS GBASIS=N31 NGAUSS=6 NDFUNC=1 $END                                       
 INPUT CARD> $STATPT IFREEZ(1)=9 $END                                                       
 INPUT CARD> $DATA                                                                          
 INPUT CARD>Title Single Point Energy Calculation of Acetaldehyde                           
 INPUT CARD>C1                                                                              
 INPUT CARD>C                                                                               
 INPUT CARD>C      1   1.5086892                                                            
 INPUT CARD>O      2   1.2107245  1  124.7161                                               
 INPUT CARD>H      2   1.1145804  1  114.7739  3  180.0000  0                               
 INPUT CARD>H      1   1.0926781  2  110.5176  3  280.      0                               
 INPUT CARD>H      1   1.0983769  2  109.8265  3  121.4889  0                               
 INPUT CARD>H      1   1.0983769  2  109.8265  3 -121.4889  0                               
 INPUT CARD> $END                                                                           
    1000000 WORDS OF MEMORY AVAILABLE

     BASIS OPTIONS
     -------------
     GBASIS=N31          IGAUSS=       6      POLAR=POPN31  
     NDFUNC=       1     NFFUNC=       0     DIFFSP=       F
     NPFUNC=       0      DIFFS=       F     BASNAM=        


     RUN TITLE
     ---------
 Title Single Point Energy Calculation of Acetaldehyde                           

 THE POINT GROUP OF THE MOLECULE IS C1      
 THE ORDER OF THE PRINCIPAL AXIS IS     0

 YOUR FULLY SUBSTITUTED Z-MATRIX IS
 C   
 C      1   1.5086892
 O      2   1.2107245  1  124.7161
 H      2   1.1145804  1  114.7739  3  180.0000  0
 H      1   1.0926781  2  110.5176  3  280.0000  0
 H      1   1.0983769  2  109.8265  3  121.4889  0
 H      1   1.0983769  2  109.8265  3 -121.4889  0

 THE MOMENTS OF INERTIA ARE (AMU-ANGSTROM**2)
 IXX=     8.446   IYY=    52.039   IZZ=    55.619

 ATOM      ATOMIC                      COORDINATES (BOHR)
           CHARGE         X                   Y                   Z
 C           6.0    -2.3649851564        0.3652081060       -0.1786266743
 C           6.0     0.2422156307       -0.7592071061        0.0791481892
 O           8.0     2.1922024911        0.4319593344       -0.0363160718
 H           1.0     0.2781198404       -2.8411550479        0.3961643334
 H           1.0    -2.9543445202        1.2405734940        1.5962104704
 H           1.0    -3.3650428397       -0.5314062956       -1.7610971601
 H           1.0    -3.4751140348       -0.0322397453        1.5295579388

          INTERNUCLEAR DISTANCES (ANGS.)
          ------------------------------

                1 C          2 C          3 O          4 H          5 H     

   1 C       0.0000000    1.5086892 *  2.4129941 *  2.2198436 *  1.0926781 *
   2 C       1.5086892 *  0.0000000    1.2107245 *  1.1145804 *  2.1507392 *
   3 O       2.4129941 *  1.2107245 *  0.0000000    2.0194911 *  2.8890338 *
   4 H       2.2198436 *  1.1145804 *  2.0194911 *  0.0000000    2.8274830 *
   5 H       1.0926781 *  2.1507392 *  2.8890338 *  2.8274830 *  0.0000000  
   6 H       1.0983769 *  2.1463151 *  3.1210656    2.5522231 *  2.0206050 *
   7 H       1.0983769 *  2.1463151 *  3.1210656    2.5522231 *  0.7285941 *

                6 H          7 H     

   1 C       1.0983769 *  1.0983769 *
   2 C       2.1463151 *  2.1463151 *
   3 O       3.1210656    3.1210656  
   4 H       2.5522231 *  2.5522231 *
   5 H       2.0206050 *  0.7285941 *
   6 H       0.0000000    1.7622233 *
   7 H       1.7622233 *  0.0000000  

  * ... LESS THAN  3.000


     ATOMIC BASIS SET
     ----------------
 THE CONTRACTED PRIMITIVE FUNCTIONS HAVE BEEN UNNORMALIZED
 THE CONTRACTED BASIS FUNCTIONS ARE NOW NORMALIZED TO UNITY

  SHELL TYPE  PRIMITIVE        EXPONENT          CONTRACTION COEFFICIENT(S)

 C         

      1   S       1          3047.5248800    0.001834737132
      1   S       2           457.3695180    0.014037322813
      1   S       3           103.9486850    0.068842622264
      1   S       4            29.2101553    0.232184443216
      1   S       5             9.2866630    0.467941348435
      1   S       6             3.1639270    0.362311985337

      2   L       7             7.8682723   -0.119332419775    0.068999066591
      2   L       8             1.8812885   -0.160854151696    0.316423960957
      2   L       9             0.5442493    1.143456437840    0.744308290898

      3   L      10             0.1687145    1.000000000000    1.000000000000

      4   D      11             0.8000000    1.000000000000

 C         

      5   S      12          3047.5248800    0.001834737132
      5   S      13           457.3695180    0.014037322813
      5   S      14           103.9486850    0.068842622264
      5   S      15            29.2101553    0.232184443216
      5   S      16             9.2866630    0.467941348435
      5   S      17             3.1639270    0.362311985337

      6   L      18             7.8682723   -0.119332419775    0.068999066591
      6   L      19             1.8812885   -0.160854151696    0.316423960957
      6   L      20             0.5442493    1.143456437840    0.744308290898

      7   L      21             0.1687145    1.000000000000    1.000000000000

      8   D      22             0.8000000    1.000000000000

 O         

      9   S      23          5484.6716600    0.001831074430
      9   S      24           825.2349460    0.013950172200
      9   S      25           188.0469580    0.068445078098
      9   S      26            52.9645000    0.232714335992
      9   S      27            16.8975704    0.470192897984
      9   S      28             5.7996353    0.358520852987

     10   L      29            15.5396162   -0.110777549525    0.070874268231
     10   L      30             3.5999336   -0.148026262701    0.339752839147
     10   L      31             1.0137618    1.130767015354    0.727158577316

     11   L      32             0.2700058    1.000000000000    1.000000000000

     12   D      33             0.8000000    1.000000000000

 H         

     13   S      34            18.7311370    0.033494604338
     13   S      35             2.8253944    0.234726953484
     13   S      36             0.6401217    0.813757326146

     14   S      37             0.1612778    1.000000000000

 H         

     15   S      38            18.7311370    0.033494604338
     15   S      39             2.8253944    0.234726953484
     15   S      40             0.6401217    0.813757326146

     16   S      41             0.1612778    1.000000000000

 H         

     17   S      42            18.7311370    0.033494604338
     17   S      43             2.8253944    0.234726953484
     17   S      44             0.6401217    0.813757326146

     18   S      45             0.1612778    1.000000000000

 H         

     19   S      46            18.7311370    0.033494604338
     19   S      47             2.8253944    0.234726953484
     19   S      48             0.6401217    0.813757326146

     20   S      49             0.1612778    1.000000000000

 TOTAL NUMBER OF BASIS SET SHELLS             =   20
 NUMBER OF CARTESIAN GAUSSIAN BASIS FUNCTIONS =   53
 NOTE: THIS RUN WILL RESTRICT THE MO VARIATION SPACE TO SPHERICAL HARMONICS.
 THE NUMBER OF ORBITALS KEPT IN THE VARIATIONAL SPACE WILL BE PRINTED LATER.
 NUMBER OF ELECTRONS                          =   24
 CHARGE OF MOLECULE                           =    0
 SPIN MULTIPLICITY                            =    1
 NUMBER OF OCCUPIED ORBITALS (ALPHA)          =   12
 NUMBER OF OCCUPIED ORBITALS (BETA )          =   12
 TOTAL NUMBER OF ATOMS                        =    7
 THE NUCLEAR REPULSION ENERGY IS       69.6989825120

     LEBEDEV GRID-BASED DFT OPTIONS
     ------------------------------
     DFTTYP=B3LYP   
     NRAD  =      96     NLEB  =     302
     NRAD0 =      24     NLEB0 =     110
     SWOFF =    5.00E-03 (PURE SCF -> DFT)
     SWITCH=    3.00E-04 (COARSE -> TIGHT GRID)
     THRESH=    0.00E+00 GTHRE=    1.00E+00

 GRIMME'S EMPIRICAL DISPERSION CORRECTION= F

     $CONTRL OPTIONS
     ---------------
 SCFTYP=RHF          RUNTYP=ENERGY       EXETYP=RUN     
 MPLEVL=       0     CITYP =NONE         CCTYP =NONE         VBTYP =NONE    
 DFTTYP=B3LYP        TDDFT =NONE    
 MULT  =       1     ICHARG=       0     NZVAR =      15     COORD =ZMT     
 PP    =NONE         RELWFN=NONE         LOCAL =NONE         NUMGRD=       F
 ISPHER=       1     NOSYM =       0     MAXIT =      30     UNITS =ANGS    
 PLTORB=       F     MOLPLT=       F     AIMPAC=       F     FRIEND=        
 NPRINT=       7     IREST =       0     GEOM  =INPUT   
 NORMF =       0     NORMP =       0     ITOL  =      20     ICUT  =       9
 INTTYP=BEST         GRDTYP=BEST         QMTTOL= 1.0E-06

     $SYSTEM OPTIONS
     ---------------
  REPLICATED MEMORY=     1000000 WORDS (ON EVERY NODE).
 DISTRIBUTED MEMDDI=           0 MILLION WORDS IN AGGREGATE,
 MEMDDI DISTRIBUTED OVER   1 PROCESSORS IS           0 WORDS/PROCESSOR.
 TOTAL MEMORY REQUESTED ON EACH PROCESSOR=     1000000 WORDS.
 TIMLIM=      525600.00 MINUTES, OR     365.0 DAYS.
 PARALL= F  BALTYP=  DLB     KDIAG=    0  COREFL= F
 MXSEQ2=     300 MXSEQ3=     150  mem10=         0

          ----------------
          PROPERTIES INPUT
          ----------------

     MOMENTS            FIELD           POTENTIAL          DENSITY
 IEMOM =       1   IEFLD =       0   IEPOT =       0   IEDEN =       0
 WHERE =COMASS     WHERE =NUCLEI     WHERE =NUCLEI     WHERE =NUCLEI  
 OUTPUT=BOTH       OUTPUT=BOTH       OUTPUT=BOTH       OUTPUT=BOTH    
 IEMINT=       0   IEFINT=       0                     IEDINT=       0
                                                       MORB  =       0
          EXTRAPOLATION IN EFFECT
          DIIS IN EFFECT
 ORBITAL PRINTING OPTION: NPREO=     1    53     2     1

     -------------------------------
     INTEGRAL TRANSFORMATION OPTIONS
     -------------------------------
     NWORD  =            0
     CUTOFF = 1.0E-09     MPTRAN =       0
     DIRTRF =       F     AOINTS =DUP     

          ----------------------
          INTEGRAL INPUT OPTIONS
          ----------------------
 NOPK  =       1 NORDER=       0 SCHWRZ=       T

   --- ENCODED Z MATRIX ---
 COORD  TYPE   I   J   K   L   M   N
    1      1    2   1
    2      1    3   2
    3      2    3   2   1
    4      1    4   2
    5      2    4   2   1
    6      3    4   2   1   3
    7      1    5   1
    8      2    5   1   2
    9      3    5   1   2   3
   10      1    6   1
   11      2    6   1   2
   12      3    6   1   2   3
   13      1    7   1
   14      2    7   1   2
   15      3    7   1   2   3

 THE DETERMINANT OF THE G MATRIX IS 10**(    -8)


                     --------------------
                     INTERNAL COORDINATES
                     --------------------

                 - - ATOMS - -         COORDINATE      COORDINATE
 NO.   TYPE    I  J  K  L  M  N        (BOHR,RAD)       (ANG,DEG)
 ----------------------------------------------------------------
   1 STRETCH   2  1                     2.8510092       1.5086892
   2 STRETCH   3  2                     2.2879376       1.2107245
   3 BEND      3  2  1                  2.1767066     124.7161000
   4 STRETCH   4  2                     2.1062515       1.1145804
   5 BEND      4  2  1                  2.0031825     114.7739000
   6 TORSION   4  2  1  3               3.1415927     180.0000000
   7 STRETCH   5  1                     2.0648622       1.0926781
   8 BEND      5  1  2                  1.9288960     110.5176000
   9 TORSION   5  1  2  3              -1.3962634     -80.0000000
  10 STRETCH   6  1                     2.0756314       1.0983769
  11 BEND      6  1  2                  1.9168340     109.8265000
  12 TORSION   6  1  2  3               2.1203813     121.4889000
  13 STRETCH   7  1                     2.0756314       1.0983769
  14 BEND      7  1  2                  1.9168340     109.8265000
  15 TORSION   7  1  2  3              -2.1203813    -121.4889000

     ------------------------------------------
     THE POINT GROUP IS C1 , NAXIS= 0, ORDER= 1
     ------------------------------------------

 -- VARIATIONAL SPACE WILL BE RESTRICTED TO PURE SPHERICAL HARMONICS ONLY --
 AFTER EXCLUDING CONTAMINANT COMBINATIONS FROM THE CARTESIAN GAUSSIAN BASIS
 SET, THE NUMBER OF SPHERICAL HARMONICS KEPT IN THE VARIATION SPACE IS   50

     DIMENSIONS OF THE SYMMETRY SUBSPACES ARE
 A   =   50

 ..... DONE SETTING UP THE RUN .....
 STEP CPU TIME =     0.01 TOTAL CPU TIME =          0.0 (      0.0 MIN)
 TOTAL WALL CLOCK TIME=          0.0 SECONDS, CPU UTILIZATION IS    50.00%

          ********************
          1 ELECTRON INTEGRALS
          ********************
 ...... END OF ONE-ELECTRON INTEGRALS ......
 STEP CPU TIME =     0.00 TOTAL CPU TIME =          0.0 (      0.0 MIN)
 TOTAL WALL CLOCK TIME=          0.0 SECONDS, CPU UTILIZATION IS    50.00%

          -------------
          GUESS OPTIONS
          -------------
          GUESS =HUCKEL            NORB  =       0          NORDER=       0
          MIX   =       F          PRTMO =       F          PUNMO =       F
          TOLZ  = 1.0E-08          TOLE  = 1.0E-05
          SYMDEN=       F          PURIFY=       F

 INITIAL GUESS ORBITALS GENERATED BY HUCKEL   ROUTINE.
 HUCKEL GUESS REQUIRES     27154 WORDS.

 STATISTICS FOR GENERATION OF SYMMETRY ORBITAL -Q- MATRIX
 NUMBER OF CARTESIAN ATOMIC ORBITALS=         53
 NUMBER OF SPHERICAL CONTAMINANTS DROPPED=     3
 NUMBER OF LINEARLY DEPENDENT MOS DROPPED=     0
 TOTAL NUMBER OF MOS IN VARIATION SPACE=      50

 SYMMETRIES FOR INITIAL GUESS ORBITALS FOLLOW.   BOTH SET(S).
    12 ORBITALS ARE OCCUPIED (    3 CORE ORBITALS).
     4=A        5=A        6=A        7=A        8=A        9=A       10=A   
    11=A       12=A       13=A       14=A       15=A       16=A       17=A   
    18=A       19=A       20=A       21=A       22=A   
 ...... END OF INITIAL ORBITAL SELECTION ......
 STEP CPU TIME =     0.01 TOTAL CPU TIME =          0.0 (      0.0 MIN)
 TOTAL WALL CLOCK TIME=          0.0 SECONDS, CPU UTILIZATION IS   100.00%

                    ----------------------
                    AO INTEGRAL TECHNOLOGY
                    ----------------------
     S,P,L SHELL ROTATED AXIS INTEGRALS, REPROGRAMMED BY
        KAZUYA ISHIMURA (IMS) AND JOSE SIERRA (SYNSTAR).
     S,P,D,L SHELL ROTATED AXIS INTEGRALS PROGRAMMED BY
        KAZUYA ISHIMURA (INSTITUTE FOR MOLECULAR SCIENCE).
     S,P,D,F,G SHELL TO TOTAL QUARTET ANGULAR MOMENTUM SUM 5,
        ERIC PROGRAM BY GRAHAM FLETCHER (ELORET AND NASA ADVANCED
        SUPERCOMPUTING DIVISION, AMES RESEARCH CENTER).
     S,P,D,F,G,L SHELL GENERAL RYS QUADRATURE PROGRAMMED BY
        MICHEL DUPUIS (PACIFIC NORTHWEST NATIONAL LABORATORY).

          --------------------
          2 ELECTRON INTEGRALS
          --------------------

 THE -PK- OPTION IS OFF, THE INTEGRALS ARE NOT IN SUPERMATRIX FORM.
 STORING   15000 INTEGRALS/RECORD ON DISK, USING 12 BYTES/INTEGRAL.
 TWO ELECTRON INTEGRAL EVALUATION REQUIRES   90606 WORDS OF MEMORY.
 SCHWARZ INEQUALITY OVERHEAD:      1430 INTEGRALS, T=        0.00
 II,JST,KST,LST =  1  1  1  1 NREC =         1 INTLOC =    1
 II,JST,KST,LST =  2  1  1  1 NREC =         1 INTLOC =    2
 II,JST,KST,LST =  3  1  1  1 NREC =         1 INTLOC =   34
 II,JST,KST,LST =  4  1  1  1 NREC =         1 INTLOC =  214
 II,JST,KST,LST =  5  1  1  1 NREC =         1 INTLOC = 1189
 II,JST,KST,LST =  6  1  1  1 NREC =         1 INTLOC = 3237
 II,JST,KST,LST =  7  1  1  1 NREC =         2 INTLOC =  986
 II,JST,KST,LST =  8  1  1  1 NREC =         3 INTLOC = 8245
 II,JST,KST,LST =  9  1  1  1 NREC =         7 INTLOC = 6182
 II,JST,KST,LST = 10  1  1  1 NREC =         8 INTLOC = 3614
 II,JST,KST,LST = 11  1  1  1 NREC =        13 INTLOC = 1236
 II,JST,KST,LST = 12  1  1  1 NREC =        20 INTLOC =    9
 II,JST,KST,LST = 13  1  1  1 NREC =        34 INTLOC =11005
 II,JST,KST,LST = 14  1  1  1 NREC =        37 INTLOC =14012
 II,JST,KST,LST = 15  1  1  1 NREC =        41 INTLOC = 5589
 II,JST,KST,LST = 16  1  1  1 NREC =        44 INTLOC =13716
 II,JST,KST,LST = 17  1  1  1 NREC =        48 INTLOC =12082
 II,JST,KST,LST = 18  1  1  1 NREC =        52 INTLOC =11340
 II,JST,KST,LST = 19  1  1  1 NREC =        57 INTLOC = 2095
 II,JST,KST,LST = 20  1  1  1 NREC =        61 INTLOC = 8615
 SCHWARZ INEQUALITY TEST SKIPPED         851 INTEGRAL BLOCKS.
 TOTAL NUMBER OF NONZERO TWO-ELECTRON INTEGRALS =              982360
         66 INTEGRAL RECORDS WERE STORED ON DISK FILE  8.
  ...... END OF TWO-ELECTRON INTEGRALS .....
 STEP CPU TIME =     0.09 TOTAL CPU TIME =          0.1 (      0.0 MIN)
 TOTAL WALL CLOCK TIME=          0.1 SECONDS, CPU UTILIZATION IS   100.00%

          --------------------------
             R-B3LYP SCF CALCULATION
          --------------------------

     NUCLEAR ENERGY =        69.6989825120
     MAXIT =   30     NPUNCH=    2
     EXTRAP=T  DAMP=F  SHIFT=F  RSTRCT=F  DIIS=T  DEM=F  SOSCF=F
         DENSITY MATRIX CONVERGENCE THRESHOLD=  1.00E-05
     COARSE -> FINE DFT GRID SWITCH THRESHOLD=  3.00E-04 (SWITCH IN $DFT)
                   HF -> DFT SWITCH THRESHOLD=  5.00E-03 (SWOFF IN $DFT)
     MEMORY REQUIRED FOR RHF ITERS=    307426 WORDS.

 DFT CODE IS SWITCHING FROM THE FINE GRID NRAD= 96,  NLEB=  302
                      TO THE COARSE GRID NRAD0= 24, NLEB0=  110

     EXCHANGE FUNCTIONAL   =B88&HFX   
     CORRELATION FUNCTIONAL=LYP88&VWN5
     DFT THRESHOLD         =.197E-07
     GRID CHANGE THRESHOLD =.300E-03
 FOR AN EULER-MACLAURIN QUADRATURE USING  96 RADIAL POINTS:
 SMALLEST GAUSSIAN PRIMITIVE EXPONENT=        0.1612777588 OF TYPE -S-
 ON ATOM NUMBER   4 HAS RADIAL NORMALIZATION=  1.000000
  LARGEST GAUSSIAN PRIMITIVE EXPONENT=     5484.6716600000 OF TYPE -S-
 ON ATOM NUMBER   3 HAS RADIAL NORMALIZATION=  1.000000
 DFT IS SWITCHED OFF, PERFORMING PURE SCF UNTIL SWOFF THRESHOLD IS REACHED.

 ITER EX DEM     TOTAL ENERGY        E CHANGE  DENSITY CHANGE    DIIS ERROR
          * * *   INITIATING DIIS PROCEDURE   * * *
   1  0  0     -152.1996365303  -152.1996365303   0.263335049   0.495521659
   2  1  0     -152.6696093716    -0.4699728413   0.126557251   0.110744600
   3  2  0     -152.7059153460    -0.0363059743   0.060366206   0.075145271
   4  3  0     -152.7221322294    -0.0162168835   0.029911919   0.008816025
   5  4  0     -152.7229446980    -0.0008124685   0.010567618   0.002873077
   6  5  0     -152.7230397329    -0.0000950349   0.005856592   0.000779027
   7  6  0     -152.7230551284    -0.0000153955   0.002274166   0.000342211
 CONVERGED TO SWOFF, SO DFT CALCULATION IS NOW SWITCHED ON.
          * * *   INITIATING DIIS PROCEDURE   * * *
   8  7  0     -153.5463095484    -0.8232544200   0.078706532   0.051192960
   9  8  0     -153.5571055769    -0.0107960285   0.056852357   0.032683279
  10  9  0     -153.5544722884     0.0026332884   0.042599129   0.045764616
  11 10  0     -153.5601620245    -0.0056897360   0.007602755   0.009052189
  12 11  0     -153.5603315244    -0.0001694999   0.002748917   0.000773024
  13 12  0     -153.5603356562    -0.0000041318   0.000560865   0.000168910
  14 13  0     -153.5603358547    -0.0000001985   0.000089189   0.000062827
 DFT CODE IS SWITCHING BACK TO THE FINE GRID
          * * *   INITIATING DIIS PROCEDURE   * * *
  15 14  0     -153.5597856370     0.0005502177   0.002211783   0.001829928
  16 15  0     -153.5597935004    -0.0000078634   0.000914319   0.000316328
  17 16  0     -153.5597928549     0.0000006455   0.000545808   0.000549721
  18 17  0     -153.5597938973    -0.0000010424   0.000060070   0.000054297
  19 18  0     -153.5597939052    -0.0000000080   0.000045966   0.000019340
  20 19  0     -153.5597939072    -0.0000000020   0.000013804   0.000005066
  21 20  0     -153.5597939073    -0.0000000001   0.000002475   0.000001254
  22 21  0     -153.5597939074    -0.0000000000   0.000000160   0.000000100

          -----------------
          DENSITY CONVERGED
          -----------------
     TIME TO FORM FOCK OPERATORS=       5.7 SECONDS (       0.3 SEC/ITER)
     TIME TO SOLVE SCF EQUATIONS=       0.1 SECONDS (       0.0 SEC/ITER)

 FINAL R-B3LYP ENERGY IS     -153.5597939074 AFTER  22 ITERATIONS
 DFT EXCHANGE + CORRELATION ENERGY =       -16.8272824527
 TOTAL ELECTRON NUMBER             =        23.9999565367

          ------------
          EIGENVECTORS
          ------------

                      1          2          3          4          5
                  -19.1436   -10.2714   -10.1894    -1.0403    -0.8279
                     A          A          A          A          A   
    1  C  1  S   -0.000009   0.000958   0.995134  -0.018855  -0.160337
    2  C  1  S   -0.000505  -0.001024   0.035932   0.036777   0.314936
    3  C  1  X   -0.000260  -0.000942  -0.000581   0.022828  -0.050547
    4  C  1  Y    0.000057   0.000365  -0.001281  -0.006003  -0.024103
    5  C  1  Z   -0.000020   0.000002   0.001517   0.007173   0.142487
    6  C  1  S    0.000689   0.005606  -0.027568   0.015540   0.216955
    7  C  1  X   -0.001124   0.002692  -0.000336   0.003971  -0.017219
    8  C  1  Y   -0.001452  -0.002049   0.004129   0.005101  -0.015268
    9  C  1  Z    0.000094   0.000133  -0.001775   0.001325   0.020229
   10  C  1 XX   -0.000378  -0.000976   0.000010   0.004522  -0.004578
   11  C  1 YY    0.000368   0.000254  -0.000192  -0.003498  -0.015816
   12  C  1 ZZ    0.000010   0.000722   0.000182  -0.001024   0.020394
   13  C  1 XY   -0.000166   0.000697  -0.000037  -0.002197  -0.002138
   14  C  1 XZ    0.000022  -0.000184  -0.000166   0.000408  -0.012975
   15  C  1 YZ   -0.000084   0.000143   0.000231   0.000505   0.006494
   16  C  2  S    0.000231   0.995152  -0.000913  -0.117211  -0.041033
   17  C  2  S    0.000032   0.035717  -0.001184   0.223597   0.077909
   18  C  2  X   -0.000047   0.001699   0.000452   0.155673  -0.118822
   19  C  2  Y   -0.000230   0.001320  -0.000428   0.098590  -0.000128
   20  C  2  Z    0.000031  -0.000180   0.000088  -0.009236   0.008476
   21  C  2  S    0.008877  -0.016138   0.005740   0.086053   0.069925
   22  C  2  X    0.005239   0.005870  -0.004369  -0.014036  -0.024401
   23  C  2  Y    0.005046   0.002453   0.000670  -0.017740   0.002638
   24  C  2  Z   -0.000559  -0.000126  -0.000098   0.003048   0.006352
   25  C  2 XX   -0.000547   0.001341  -0.000873   0.016853   0.004586
   26  C  2 YY    0.000265  -0.000173   0.000419  -0.001891  -0.001000
   27  C  2 ZZ    0.000281  -0.001168   0.000454  -0.014962  -0.003586
   28  C  2 XY   -0.000783   0.001266   0.000717   0.022436  -0.010571
   29  C  2 XZ    0.000084  -0.000105  -0.000167  -0.002179  -0.000605
   30  C  2 YZ   -0.000021  -0.000133   0.000030  -0.001463   0.000507
   31  O  3  S    0.995115  -0.000049  -0.000027  -0.194596   0.036102
   32  O  3  S    0.029432   0.000442  -0.000636   0.430202  -0.081245
   33  O  3  X   -0.001951   0.000967   0.000146  -0.139274   0.001186
   34  O  3  Y   -0.001190   0.000525  -0.000033  -0.085160   0.015184
   35  O  3  Z    0.000127  -0.000040   0.000015   0.008879   0.001078
   36  O  3  S   -0.019399  -0.005820   0.001886   0.375060  -0.082549
   37  O  3  X    0.005089   0.003662  -0.000456  -0.040628   0.000283
   38  O  3  Y    0.002741   0.002701  -0.000585  -0.024346   0.001991
   39  O  3  Z   -0.000258  -0.000303   0.000036   0.002805  -0.001051
   40  O  3 XX   -0.000186  -0.001118  -0.000000   0.005816   0.001195
   41  O  3 YY    0.000104   0.000013   0.000211  -0.003133  -0.000736
   42  O  3 ZZ    0.000082   0.001105  -0.000211  -0.002683  -0.000459
   43  O  3 XY   -0.000115  -0.001498   0.000108   0.010133  -0.000758
   44  O  3 XZ    0.000008   0.000137  -0.000009  -0.001253  -0.000018
   45  O  3 YZ   -0.000005   0.000140  -0.000063   0.000293  -0.000053
   46  H  4  S   -0.000236  -0.000972  -0.000504   0.027823   0.023129
   47  H  4  S    0.001177   0.004949   0.000569  -0.012259   0.000886
   48  H  5  S    0.000101  -0.000400  -0.000918   0.011414   0.235707
   49  H  5  S    0.000018   0.000950   0.001882   0.001242   0.054554
   50  H  6  S   -0.000065  -0.000508  -0.000721   0.005647   0.072880
   51  H  6  S   -0.000580   0.000561   0.005478   0.000336   0.005255
   52  H  7  S   -0.000068  -0.000359  -0.000706   0.011040   0.241162
   53  H  7  S   -0.000542   0.000170   0.005373  -0.000127   0.056082

                      6          7          8          9         10
                   -0.6216    -0.5153    -0.4669    -0.4238    -0.3744
                     A          A          A          A          A   
    1  C  1  S   -0.029374   0.085903   0.008748   0.005072  -0.014174
    2  C  1  S    0.048215  -0.164016  -0.012321  -0.018012   0.024160
    3  C  1  X    0.177505  -0.004662   0.256293   0.182756  -0.067134
    4  C  1  Y   -0.121620   0.082838   0.082042  -0.043610  -0.043061
    5  C  1  Z   -0.151866   0.248709   0.136719   0.106434  -0.072315
    6  C  1  S    0.083511  -0.237525  -0.032357   0.016348   0.056008
    7  C  1  X    0.046520   0.015115   0.111494   0.099010  -0.038293
    8  C  1  Y   -0.030439   0.031304   0.044599  -0.032259  -0.024956
    9  C  1  Z   -0.020789   0.067441   0.052517   0.053238  -0.017840
   10  C  1 XX    0.007658  -0.005019   0.006065  -0.002735   0.000143
   11  C  1 YY    0.007145  -0.000431  -0.005290   0.004223   0.000192
   12  C  1 ZZ   -0.014803   0.005451  -0.000774  -0.001489  -0.000335
   13  C  1 XY   -0.007947  -0.007727  -0.009992  -0.010676   0.007158
   14  C  1 XZ    0.016665  -0.012137   0.001812   0.003513   0.013036
   15  C  1 YZ   -0.000947  -0.011557  -0.005021  -0.008995   0.000133
   16  C  2  S   -0.140129  -0.059131  -0.037512   0.012918   0.006008
   17  C  2  S    0.292289   0.125133   0.087892  -0.040810  -0.013669
   18  C  2  X   -0.158451   0.123731  -0.096727  -0.338343   0.043193
   19  C  2  Y   -0.112142  -0.214462   0.334089  -0.105656   0.062172
   20  C  2  Z   -0.017231   0.113668   0.011042   0.086536   0.334209
   21  C  2  S    0.248105   0.128704   0.051015   0.008425  -0.019458
   22  C  2  X   -0.058877   0.016586  -0.057442  -0.060399   0.011489
   23  C  2  Y   -0.062746  -0.081245   0.084816  -0.013783   0.037856
   24  C  2  Z   -0.004437   0.054127   0.022559   0.048912   0.198681
   25  C  2 XX   -0.005821  -0.007213  -0.001516  -0.009494   0.002796
   26  C  2 YY    0.009351   0.010452   0.000354   0.007480  -0.000241
   27  C  2 ZZ   -0.003530  -0.003239   0.001161   0.002014  -0.002555
   28  C  2 XY   -0.009215  -0.000726   0.000575  -0.011438   0.005821
   29  C  2 XZ    0.004763  -0.004471  -0.001682   0.002289   0.024708
   30  C  2 YZ   -0.004359   0.001207   0.003114   0.001921   0.013685
   31  O  3  S    0.073108   0.039040   0.042697  -0.069688   0.005070
   32  O  3  S   -0.173481  -0.090193  -0.098686   0.150981  -0.009512
   33  O  3  X   -0.068799  -0.026647  -0.282009   0.361073  -0.049039
   34  O  3  Y   -0.048235  -0.163789   0.100764   0.308444   0.018695
   35  O  3  Z   -0.007570   0.071291   0.025424   0.047752   0.496448
   36  O  3  S   -0.186150  -0.128922  -0.148692   0.302175  -0.030923
   37  O  3  X   -0.046692  -0.013609  -0.154500   0.185239  -0.024793
   38  O  3  Y   -0.026886  -0.083992   0.056862   0.165264   0.014506
   39  O  3  Z   -0.002565   0.033698   0.011401   0.027490   0.309756
   40  O  3 XX    0.004390  -0.005025   0.019519  -0.008085   0.001103
   41  O  3 YY    0.000554   0.008241  -0.014102  -0.003067  -0.003298
   42  O  3 ZZ   -0.004944  -0.003216  -0.005417   0.011152   0.002195
   43  O  3 XY    0.005863   0.009399  -0.000910  -0.017055  -0.001164
   44  O  3 XZ    0.000596  -0.004950  -0.002312  -0.002919  -0.026828
   45  O  3 YZ   -0.000210  -0.003701  -0.000203  -0.000905  -0.016646
   46  H  4  S    0.152805   0.167753  -0.134020   0.052402  -0.016592
   47  H  4  S    0.055131   0.098723  -0.122212   0.053067  -0.011978
   48  H  5  S   -0.171977   0.119733   0.030436  -0.013308  -0.060605
   49  H  5  S   -0.079645   0.066822   0.044179  -0.005353  -0.041594
   50  H  6  S    0.059480  -0.203531  -0.165495  -0.108999   0.095596
   51  H  6  S    0.035434  -0.128074  -0.113378  -0.084018   0.088761
   52  H  7  S   -0.155193   0.097031  -0.037122  -0.022577  -0.033703
   53  H  7  S   -0.076427   0.079121  -0.046004  -0.016831  -0.034205

                     11         12         13         14         15
                   -0.2552    -0.2406    -0.0279     0.0575     0.1160
                     A          A          A          A          A   
    1  C  1  S    0.063514  -0.014598  -0.028302  -0.129699  -0.019547
    2  C  1  S   -0.132361   0.036732   0.035206   0.171685   0.052622
    3  C  1  X   -0.207005  -0.066982  -0.051806  -0.208489   0.053715
    4  C  1  Y   -0.241459   0.416766   0.039397   0.024889   0.110958
    5  C  1  Z    0.046260  -0.134217   0.044874   0.197223  -0.290970
    6  C  1  S   -0.322470  -0.047085   0.296322   1.900071  -0.051218
    7  C  1  X   -0.110904  -0.103510  -0.070194  -0.511808  -0.047588
    8  C  1  Y   -0.119930   0.307726   0.089224   0.018357   0.246673
    9  C  1  Z    0.037504  -0.125751   0.184781   0.527170  -0.851118
   10  C  1 XX    0.000712  -0.000363  -0.001796   0.005498   0.019729
   11  C  1 YY    0.004105  -0.001359  -0.004326  -0.010185  -0.001068
   12  C  1 ZZ   -0.004817   0.001722   0.006122   0.004687  -0.018661
   13  C  1 XY    0.012916  -0.004708   0.007032   0.001079   0.006328
   14  C  1 XZ   -0.007690   0.002403   0.026769  -0.025779  -0.005737
   15  C  1 YZ   -0.015186   0.023638  -0.008195  -0.004265  -0.023457
   16  C  2  S   -0.002971   0.002645   0.005395   0.009233   0.013838
   17  C  2  S    0.003088  -0.022049  -0.014853   0.025574  -0.026792
   18  C  2  X    0.038945   0.072895   0.006561   0.024292  -0.019106
   19  C  2  Y   -0.042297  -0.135842   0.063868  -0.054048   0.114158
   20  C  2  Z    0.011260   0.009041   0.485764  -0.079897   0.033513
   21  C  2  S   -0.025362   0.108375  -0.026547  -0.212957  -0.066122
   22  C  2  X   -0.092319  -0.000227  -0.004514   0.050986  -0.057521
   23  C  2  Y    0.010332   0.044243   0.082420  -0.076471   0.334137
   24  C  2  Z   -0.003909  -0.020492   0.514786  -0.189737   0.180266
   25  C  2 XX   -0.022983  -0.033342   0.001124   0.005405  -0.001322
   26  C  2 YY    0.022873   0.035109  -0.002560   0.006190   0.001155
   27  C  2 ZZ    0.000109  -0.001766   0.001435  -0.011595   0.000166
   28  C  2 XY    0.026999  -0.001661  -0.003625   0.000072  -0.008189
   29  C  2 XZ   -0.006764   0.004578  -0.026187   0.000433   0.006255
   30  C  2 YZ   -0.004126  -0.004829  -0.016341   0.000300  -0.016679
   31  O  3  S   -0.004588   0.006042  -0.000232  -0.007995   0.006194
   32  O  3  S    0.007792  -0.013664   0.001932   0.019115  -0.012694
   33  O  3  X   -0.306589  -0.097796   0.006173  -0.047769   0.040905
   34  O  3  Y    0.401321   0.293265  -0.056153   0.032340  -0.036587
   35  O  3  Z   -0.085600   0.004352  -0.426812   0.070808  -0.009125
   36  O  3  S    0.062054  -0.059426  -0.004725   0.078430  -0.089374
   37  O  3  X   -0.225011  -0.059032   0.010380  -0.073516   0.080788
   38  O  3  Y    0.271657   0.218983  -0.058336   0.025114  -0.064413
   39  O  3  Z   -0.059921   0.008153  -0.439203   0.089909  -0.060187
   40  O  3 XX    0.014635   0.003842  -0.000111   0.002628  -0.000664
   41  O  3 YY   -0.014433  -0.004285   0.000706   0.000693   0.000767
   42  O  3 ZZ   -0.000201   0.000443  -0.000595  -0.003321  -0.000103
   43  O  3 XY   -0.004843  -0.006555  -0.000278   0.001649  -0.002418
   44  O  3 XZ    0.001649  -0.000738   0.000050  -0.000350   0.004599
   45  O  3 YZ    0.002840  -0.000361   0.000187  -0.000628  -0.003904
   46  H  4  S    0.091050   0.170174   0.011420   0.039123   0.022960
   47  H  4  S    0.154046   0.270432   0.036108   0.022880   0.478421
   48  H  5  S   -0.059282   0.111336  -0.073824  -0.092372  -0.186331
   49  H  5  S   -0.202050   0.310489  -0.278903  -1.171919  -0.938700
   50  H  6  S    0.038159   0.017853   0.069904  -0.111364  -0.127613
   51  H  6  S    0.061997   0.047976   0.155269  -0.762100  -0.955135
   52  H  7  S    0.131612  -0.123193  -0.097219   0.008956   0.124566
   53  H  7  S    0.316384  -0.290441  -0.202103  -0.720410   1.910405

                     16         17         18         19         20
                    0.1342     0.1851     0.2588     0.2905     0.5182
                     A          A          A          A          A   
    1  C  1  S    0.018658  -0.056239  -0.070056  -0.028830   0.054007
    2  C  1  S   -0.005117   0.055771   0.045494   0.055345  -0.088348
    3  C  1  X   -0.170527  -0.048892   0.138804   0.180641  -0.380837
    4  C  1  Y   -0.029075  -0.282824  -0.035495   0.119212   0.186387
    5  C  1  Z   -0.157533  -0.241397  -0.018905  -0.037345  -0.062468
    6  C  1  S   -0.293280   1.005871   1.660185  -0.134934  -0.288561
    7  C  1  X   -0.537297  -0.010381   1.659075   0.722238   0.483580
    8  C  1  Y    0.041169  -1.101214  -0.467080   0.513001  -0.203876
    9  C  1  Z   -0.605483  -0.892972   0.045199  -0.017797  -0.452117
   10  C  1 XX    0.010406  -0.010624  -0.031011  -0.037659   0.002537
   11  C  1 YY    0.002419   0.013795  -0.009838   0.024683  -0.050864
   12  C  1 ZZ   -0.012825  -0.003171   0.040849   0.012975   0.048327
   13  C  1 XY   -0.011341   0.002127   0.019105  -0.008745  -0.020001
   14  C  1 XZ    0.000771   0.011300  -0.001174   0.003113  -0.045979
   15  C  1 YZ   -0.000337   0.017470   0.002859  -0.000971   0.015682
   16  C  2  S   -0.111999   0.063083   0.041526   0.065108  -0.036239
   17  C  2  S    0.165953  -0.067745  -0.084703  -0.045669   0.114453
   18  C  2  X   -0.069876   0.041536   0.370590   0.046573  -0.134869
   19  C  2  Y   -0.276764   0.047342  -0.278196  -0.286924   0.270312
   20  C  2  Z    0.073542   0.014211   0.062360   0.066805   0.685638
   21  C  2  S    1.761757  -1.150351  -0.752421  -1.793784  -0.230409
   22  C  2  X   -0.247686   0.235241   1.790490  -1.464583  -0.248830
   23  C  2  Y   -0.576821   0.192954  -0.750936  -1.451939  -0.144078
   24  C  2  Z    0.233769   0.241837   0.222875   0.168330  -0.594653
   25  C  2 XX   -0.003035   0.011862  -0.007707   0.000550  -0.059692
   26  C  2 YY   -0.003690  -0.005852   0.004907   0.011980   0.010750
   27  C  2 ZZ    0.006725  -0.006010   0.002801  -0.012530   0.048942
   28  C  2 XY    0.004438   0.011607  -0.013226  -0.001386   0.024214
   29  C  2 XZ    0.001265   0.005705   0.005160   0.003194   0.022812
   30  C  2 YZ   -0.003355  -0.004257  -0.005551  -0.008342  -0.002739
   31  O  3  S    0.006994  -0.017051   0.034144  -0.098926   0.001171
   32  O  3  S   -0.016484   0.044608  -0.055069   0.138117  -0.026263
   33  O  3  X    0.026384  -0.084422  -0.041768  -0.150870   0.087534
   34  O  3  Y    0.088882  -0.031919   0.145625  -0.075343  -0.037789
   35  O  3  Z   -0.038755  -0.044309  -0.023151   0.010975   0.024120
   36  O  3  S   -0.054644   0.139278  -0.660609   2.044284   0.205244
   37  O  3  X    0.018057  -0.127824   0.015079  -0.822583  -0.005542
   38  O  3  Y    0.153196  -0.061126   0.444634  -0.380133  -0.086843
   39  O  3  Z   -0.073105  -0.070660  -0.083541   0.024171   0.043006
   40  O  3 XX   -0.004395   0.002492  -0.011655   0.023140   0.027700
   41  O  3 YY   -0.001567  -0.000137   0.008887   0.004482  -0.028750
   42  O  3 ZZ    0.005962  -0.002355   0.002768  -0.027623   0.001051
   43  O  3 XY    0.003883   0.001731  -0.011910   0.038893   0.000726
   44  O  3 XZ    0.000445   0.002190   0.002628  -0.004095  -0.038627
   45  O  3 YZ    0.000400  -0.000433  -0.002837  -0.006043  -0.029678
   46  H  4  S   -0.072720   0.041021   0.011108   0.076492   0.027271
   47  H  4  S   -1.667801   0.640236  -0.823615  -0.653898   0.030623
   48  H  5  S   -0.008814   0.080411   0.052911   0.058294   0.409024
   49  H  5  S    0.530737   2.037829  -0.420201  -0.498505  -0.004226
   50  H  6  S   -0.024298   0.050173   0.085882  -0.014013   0.028381
   51  H  6  S   -0.783418  -1.619923   0.099718   0.330774  -0.179922
   52  H  7  S   -0.001625  -0.062069   0.142443  -0.012727   0.413940
   53  H  7  S   -0.039441  -1.304270   0.499817   0.693321  -0.071350

                     21         22         23         24         25
                    0.5330     0.5931     0.6083     0.6736     0.7046
                     A          A          A          A          A   
    1  C  1  S    0.015929  -0.023387   0.061764  -0.007073   0.015619
    2  C  1  S   -0.084963   0.232672   0.150637  -0.046055  -0.198547
    3  C  1  X   -0.572283   0.445598   0.393962  -0.200516  -0.208892
    4  C  1  Y    0.547087   0.560654  -0.119031   0.205293  -0.180938
    5  C  1  Z   -0.213327  -0.491410   0.027143   0.195033  -0.412425
    6  C  1  S   -0.074725   0.530623  -0.134360   0.810418   0.504664
    7  C  1  X    0.694243  -0.485331  -0.207500   0.738907   0.520305
    8  C  1  Y   -0.492447  -0.756694   0.075705  -0.399669   0.431552
    9  C  1  Z    0.129000   1.086379  -0.732334  -0.570576   1.416586
   10  C  1 XX   -0.001822   0.037796   0.043290  -0.008892   0.043352
   11  C  1 YY   -0.019579  -0.007025  -0.089346   0.035362  -0.013445
   12  C  1 ZZ    0.021401  -0.030771   0.046056  -0.026470  -0.029907
   13  C  1 XY    0.007215  -0.018688  -0.047855  -0.094977   0.036862
   14  C  1 XZ    0.001595   0.046928  -0.051269  -0.010010   0.051997
   15  C  1 YZ    0.037805   0.062158   0.030179  -0.020525   0.005789
   16  C  2  S   -0.044275  -0.000760   0.004376   0.039129   0.038913
   17  C  2  S    0.004897   0.287017   0.495940  -0.501708   0.079012
   18  C  2  X    0.038150  -0.111237  -0.341023  -0.777338  -0.582818
   19  C  2  Y    0.023336   0.146143   0.139730  -0.026323  -0.439479
   20  C  2  Z   -0.591298   0.233218  -0.405597  -0.055676   0.108234
   21  C  2  S   -0.249599  -0.249212  -0.512030  -0.123596  -1.074399
   22  C  2  X   -0.314606   0.711683   0.346936   1.275241   0.588220
   23  C  2  Y    0.098146  -0.144189  -0.123908  -0.936803   0.640114
   24  C  2  Z    0.678203  -0.563237   0.822493   0.402233  -0.552333
   25  C  2 XX   -0.085927   0.003690   0.008760   0.068336   0.006150
   26  C  2 YY    0.009613   0.023190   0.035304  -0.068628   0.080687
   27  C  2 ZZ    0.076314  -0.026880  -0.044064   0.000292  -0.086838
   28  C  2 XY    0.030130  -0.032391  -0.031556   0.123154   0.048905
   29  C  2 XZ   -0.009547   0.004021   0.041791  -0.008304  -0.031398
   30  C  2 YZ    0.000482   0.014783  -0.061344   0.001597   0.009349
   31  O  3  S    0.006865   0.000631  -0.015428  -0.031660  -0.028717
   32  O  3  S   -0.056550   0.051762   0.098776   0.127260   0.102236
   33  O  3  X    0.117135  -0.086246  -0.035190  -0.368953  -0.046081
   34  O  3  Y   -0.044589   0.164170   0.048649   0.022827  -0.286577
   35  O  3  Z   -0.028683  -0.006481  -0.083616  -0.027374   0.082409
   36  O  3  S    0.193147  -0.301196   0.023735  -0.142724  -0.053054
   37  O  3  X    0.021360   0.049425  -0.083678  -0.243115  -0.287953
   38  O  3  Y   -0.095358   0.072018  -0.054757  -0.003591  -0.118634
   39  O  3  Z   -0.057632   0.088078  -0.098844  -0.045440   0.081650
   40  O  3 XX    0.022000   0.002289   0.022602  -0.061185  -0.031501
   41  O  3 YY   -0.013779   0.002157  -0.012315  -0.005316   0.008904
   42  O  3 ZZ   -0.008220  -0.004446  -0.010287   0.066502   0.022597
   43  O  3 XY    0.019359   0.011728  -0.000541  -0.096387  -0.088806
   44  O  3 XZ    0.033609  -0.025947   0.030385   0.016780  -0.003013
   45  O  3 YZ    0.022621   0.001940  -0.001905   0.001634   0.019064
   46  H  4  S   -0.064103  -0.023260   0.298849  -0.393274   0.420454
   47  H  4  S    0.005004  -0.076633  -0.156357  -0.411576   0.262586
   48  H  5  S    0.136273   0.105050   0.494268   0.014317  -0.128109
   49  H  5  S   -0.170146  -0.131905  -0.214973   0.289630  -0.847746
   50  H  6  S    0.200277   0.177887   0.175586  -0.215890   0.296097
   51  H  6  S   -0.005833  -0.067361  -0.164015   0.006677   0.614007
   52  H  7  S   -0.002148  -0.245010   0.481709  -0.099778   0.037878
   53  H  7  S    0.079044  -0.324095  -0.095782   0.262969   0.206125

                     26         27         28         29         30
                    0.7568     0.7862     0.8601     0.8785     0.9144
                     A          A          A          A          A   
    1  C  1  S    0.012647   0.006345  -0.024042   0.036948   0.001425
    2  C  1  S   -0.118596  -0.630740   0.291789  -0.766294   0.477319
    3  C  1  X    0.402586   0.058808   0.005685   0.243341  -0.264633
    4  C  1  Y    0.293100  -0.393642   0.158419  -0.118959  -0.230516
    5  C  1  Z   -0.044854  -0.893869  -0.168523   0.132988  -0.126327
    6  C  1  S   -0.670617   1.284376  -0.737977   0.912099  -0.813415
    7  C  1  X   -1.750567   0.134048  -0.329108  -0.659508   0.752580
    8  C  1  Y   -0.928598   1.030075  -0.285861   0.588773   0.570380
    9  C  1  Z   -0.567353   1.855136   0.111679  -0.034797   0.324603
   10  C  1 XX   -0.057714  -0.036663   0.008264  -0.114906  -0.020435
   11  C  1 YY    0.008409   0.036626  -0.000268   0.016207   0.036999
   12  C  1 ZZ    0.049305   0.000037  -0.007996   0.098699  -0.016564
   13  C  1 XY    0.002198  -0.025227   0.030921   0.013916  -0.098166
   14  C  1 XZ   -0.086801  -0.069573  -0.078539   0.105763   0.019145
   15  C  1 YZ    0.017169  -0.036357  -0.053265   0.109927   0.013549
   16  C  2  S    0.004159  -0.017256   0.050760   0.007051   0.021839
   17  C  2  S   -0.295710  -0.263395  -0.762924  -0.751432   1.062584
   18  C  2  X    0.169613   0.078060   0.122545   0.126510   0.063849
   19  C  2  Y   -0.760656   0.142419   0.439421   0.241293  -0.047655
   20  C  2  Z    0.075363  -0.075866  -0.067324  -0.028109  -0.000733
   21  C  2  S    1.283975   0.209278   2.326643   2.139808  -0.916868
   22  C  2  X   -0.636076  -0.143512   0.040179  -0.422183   0.293599
   23  C  2  Y    2.643723  -1.039970  -0.304108  -0.464091   0.182941
   24  C  2  Z   -0.107491  -0.083851   0.059900   0.033517  -0.050191
   25  C  2 XX    0.067306  -0.003820   0.000784   0.013219   0.140907
   26  C  2 YY   -0.067103  -0.060432   0.099569  -0.010040  -0.058774
   27  C  2 ZZ   -0.000203   0.064252  -0.100354  -0.003178  -0.082133
   28  C  2 XY    0.074903   0.011382   0.082900   0.090466   0.113650
   29  C  2 XZ    0.041518   0.025100   0.016264  -0.045743  -0.006952
   30  C  2 YZ   -0.027236   0.017311  -0.046356   0.022747  -0.000174
   31  O  3  S    0.014344   0.000439   0.022043   0.019901   0.048799
   32  O  3  S   -0.012664  -0.062328  -0.054068  -0.119488  -0.231004
   33  O  3  X   -0.156090   0.033230  -0.277392  -0.224583  -0.491635
   34  O  3  Y   -0.226187   0.089442  -0.280669  -0.142366  -0.251633
   35  O  3  Z   -0.062302  -0.085398  -0.089759   0.237020   0.072060
   36  O  3  S   -0.781478   0.372994  -0.566909  -0.152877  -0.166317
   37  O  3  X    0.473458  -0.162735   0.630350   0.436815   0.978857
   38  O  3  Y   -0.038272   0.032595   0.439695   0.265872   0.566593
   39  O  3  Z    0.020406   0.092472   0.070014  -0.246530  -0.104346
   40  O  3 XX   -0.109573   0.012693   0.001378  -0.013271  -0.003529
   41  O  3 YY    0.035976   0.005733  -0.045391  -0.022446   0.026482
   42  O  3 ZZ    0.073597  -0.018426   0.044013   0.035718  -0.022952
   43  O  3 XY   -0.019901   0.005594  -0.058997  -0.040956   0.004603
   44  O  3 XZ    0.000867  -0.014268   0.002184   0.010822  -0.001281
   45  O  3 YZ   -0.010562   0.013589   0.011812   0.012887  -0.005125
   46  H  4  S   -0.217510  -0.382397   0.738477   0.030683  -0.229433
   47  H  4  S    1.518910  -0.336720  -1.419837  -0.769749   0.622619
   48  H  5  S    0.279737   0.176900  -0.195457   0.428729   0.192936
   49  H  5  S    0.545209  -1.358421   0.682485  -1.367431  -0.694226
   50  H  6  S   -0.213810  -0.347332  -0.419880   0.661669  -0.110664
   51  H  6  S   -0.707279   1.159404   0.442851  -1.099696   0.828609
   52  H  7  S    0.232802   0.355101   0.191880  -0.268527  -0.218901
   53  H  7  S   -1.126140  -0.684027  -0.720389   0.664194   0.987324

                     31         32         33         34         35
                    0.9943     1.0035     1.0897     1.0998     1.4920
                     A          A          A          A          A   
    1  C  1  S   -0.008921  -0.010701  -0.027444  -0.057990   0.010643
    2  C  1  S   -1.085634  -0.577973  -0.547443  -1.319613   0.137250
    3  C  1  X    0.124525   0.106196  -0.130739  -0.004625  -0.009731
    4  C  1  Y    0.267227   0.285437  -0.128731   0.127842  -0.034361
    5  C  1  Z    0.185161   0.023680  -0.014455   0.064569   0.076508
    6  C  1  S    2.778050   1.505772   0.801214   4.498591  -0.503480
    7  C  1  X    0.347763   0.077508  -0.076180   0.923644   0.057194
    8  C  1  Y   -0.646687  -0.793393  -0.286990  -1.383218   0.523085
    9  C  1  Z   -0.008806  -0.165946   0.002693  -0.218498   0.318328
   10  C  1 XX    0.006259   0.028762  -0.025094   0.045264   0.075402
   11  C  1 YY    0.029533  -0.014480   0.063354   0.146134   0.140404
   12  C  1 ZZ   -0.035792  -0.014283  -0.038260  -0.191397  -0.215806
   13  C  1 XY    0.058970   0.047106   0.029995  -0.021661   0.073507
   14  C  1 XZ    0.050128  -0.022589  -0.036285  -0.076949  -0.201898
   15  C  1 YZ   -0.081411  -0.150819   0.059737   0.037490   0.297638
   16  C  2  S    0.012014   0.009361   0.005425   0.026571  -0.004605
   17  C  2  S    0.550084   0.379937   0.173720   0.642109  -0.101983
   18  C  2  X   -0.042875  -0.016802   0.093951  -0.130102   0.005492
   19  C  2  Y    0.035677  -0.040476  -0.233022   0.141064  -0.010921
   20  C  2  Z    0.070875  -0.083056   0.037491  -0.041393  -0.128466
   21  C  2  S   -1.645502  -1.101215  -0.889503  -2.835384   0.456433
   22  C  2  X    0.669008   0.378213  -0.294702   1.999250  -0.262884
   23  C  2  Y   -0.483225   0.097334   1.373280  -0.963264  -0.237025
   24  C  2  Z   -0.338976   0.491894  -0.168585   0.436398   0.029468
   25  C  2 XX   -0.015893  -0.024608  -0.140379   0.005068  -0.039114
   26  C  2 YY    0.050548   0.041595   0.160416   0.048009   0.076154
   27  C  2 ZZ   -0.034655  -0.016986  -0.020038  -0.053077  -0.037040
   28  C  2 XY    0.038990   0.032052   0.053787  -0.025375   0.078038
   29  C  2 XZ   -0.087411   0.016455   0.028586   0.099648   0.546824
   30  C  2 YZ    0.029471  -0.003441  -0.063366  -0.088033   0.224105
   31  O  3  S    0.011797   0.004795   0.006343   0.010239  -0.004692
   32  O  3  S   -0.118659  -0.038754  -0.094027  -0.133569   0.064752
   33  O  3  X   -0.177345  -0.176048  -0.289634   0.310601  -0.050671
   34  O  3  Y   -0.077502   0.176401   0.608330  -0.314952  -0.022805
   35  O  3  Z   -0.561433   0.679152  -0.115186   0.112787  -0.117519
   36  O  3  S    0.235152   0.063095   0.047147   0.114397   0.016423
   37  O  3  X    0.168759   0.214478   0.546342  -0.633607   0.078097
   38  O  3  Y    0.214440  -0.205341  -1.146882   0.665336  -0.001531
   39  O  3  Z    0.782427  -0.945047   0.186847  -0.267565  -0.089082
   40  O  3 XX    0.039779   0.027606   0.097975   0.016757   0.039954
   41  O  3 YY    0.011510  -0.005653  -0.083024   0.048176  -0.056670
   42  O  3 ZZ   -0.051289  -0.021953  -0.014951  -0.064933   0.016716
   43  O  3 XY    0.004382   0.001829  -0.062356   0.011438  -0.048939
   44  O  3 XZ    0.020124  -0.024380   0.016873   0.000642  -0.355214
   45  O  3 YZ    0.019614  -0.019031  -0.007131  -0.063176  -0.236395
   46  H  4  S   -0.093282  -0.022113   0.342706   0.224786  -0.122841
   47  H  4  S    0.079417   0.200455   0.619220  -0.440525  -0.124517
   48  H  5  S   -0.530095  -0.526919   0.309837   0.283709  -0.254514
   49  H  5  S    0.707700   1.284060  -0.483721   0.049336  -0.308879
   50  H  6  S    0.323137  -0.003821  -0.299795  -0.490621   0.277492
   51  H  6  S   -0.875726  -0.327269  -0.128194  -0.567553   0.176890
   52  H  7  S    0.356951   0.528492  -0.420238  -0.516823   0.097626
   53  H  7  S   -0.958835  -1.489942   0.253931  -0.302169   0.270834

                     36         37         38         39         40
                    1.5614     1.6174     1.6857     1.7901     1.8149
                     A          A          A          A          A   
    1  C  1  S    0.011286   0.021299   0.014678  -0.008826   0.007334
    2  C  1  S    0.152766   0.297326  -0.233217  -0.520593  -0.207430
    3  C  1  X   -0.009349  -0.005417  -0.202776  -0.197811  -0.131960
    4  C  1  Y   -0.042972   0.008082   0.045109   0.064991   0.019201
    5  C  1  Z   -0.013999   0.008352  -0.013992  -0.068315   0.047494
    6  C  1  S   -0.550428  -1.086538  -0.293686   0.849701   0.077446
    7  C  1  X    0.024042   0.070780  -0.219553   0.174990   0.241892
    8  C  1  Y    0.553423   0.572947   0.037864  -0.152632   0.090616
    9  C  1  Z    0.674337   0.000194  -0.134726   0.465375  -0.157301
   10  C  1 XX    0.117290   0.015738   0.422279   0.040634   0.271356
   11  C  1 YY    0.114571   0.043956  -0.430923  -0.236928   0.037909
   12  C  1 ZZ   -0.231861  -0.059694   0.008644   0.196294  -0.309264
   13  C  1 XY    0.122168  -0.097682   0.032441  -0.315415   0.073453
   14  C  1 XZ   -0.232084  -0.007882   0.014478   0.192366  -0.260934
   15  C  1 YZ    0.177297  -0.005135   0.074890  -0.098893   0.272627
   16  C  2  S   -0.004688  -0.020023  -0.006503   0.021958   0.013794
   17  C  2  S   -0.120029  -0.178043  -0.475384  -0.001714  -0.043038
   18  C  2  X    0.002482  -0.087756   0.124683   0.055784  -0.035429
   19  C  2  Y    0.023234   0.000336  -0.049906   0.064336   0.068351
   20  C  2  Z    0.136421   0.002593   0.011718  -0.049329   0.057433
   21  C  2  S    0.633172  -1.532698   1.341512  -0.509305  -0.396581
   22  C  2  X   -0.196046  -1.808709  -0.452698   0.051194  -0.364250
   23  C  2  Y   -0.240880  -1.125420   0.125678   0.599978   0.002780
   24  C  2  Z   -0.266631   0.077916   0.011859  -0.279456   0.116326
   25  C  2 XX   -0.019487  -0.039499   0.161027   0.270955   0.117494
   26  C  2 YY   -0.141679   0.068784   0.184623  -0.372130  -0.227969
   27  C  2 ZZ    0.161166  -0.029285  -0.345649   0.101175   0.110476
   28  C  2 XY    0.050307  -0.272700  -0.296366  -0.105589  -0.161437
   29  C  2 XZ    0.143734   0.077146   0.014323   0.166075  -0.069081
   30  C  2 YZ   -0.652230  -0.083363  -0.055411   0.049908  -0.003582
   31  O  3  S   -0.007471   0.032758  -0.015059  -0.000536  -0.005494
   32  O  3  S    0.164849  -1.637912   0.345507   0.080300  -0.065810
   33  O  3  X   -0.066087   0.068418  -0.173793  -0.095000  -0.146504
   34  O  3  Y   -0.013059   0.084763   0.009135   0.159983   0.092160
   35  O  3  Z    0.030139  -0.011179  -0.000835  -0.077441   0.032385
   36  O  3  S   -0.198633   3.942777  -0.533413  -0.231618   0.438609
   37  O  3  X    0.136338  -1.110053   0.339244   0.198570   0.034875
   38  O  3  Y    0.074540  -0.717546   0.024353  -0.225538  -0.234401
   39  O  3  Z    0.102498   0.078265  -0.004668   0.123735  -0.038421
   40  O  3 XX    0.009430  -0.135891   0.031112  -0.361766  -0.336951
   41  O  3 YY   -0.044336   0.126852   0.477261   0.020726   0.173559
   42  O  3 ZZ    0.034906   0.009038  -0.508372   0.341040   0.163392
   43  O  3 XY    0.065307  -0.187642  -0.147489   0.319471   0.261886
   44  O  3 XZ    0.382274   0.046672   0.021504   0.046469  -0.217473
   45  O  3 YZ   -0.204869  -0.066807  -0.114466  -0.402314   0.616568
   46  H  4  S   -0.149055  -0.051709  -0.223655   0.524354   0.239725
   47  H  4  S   -0.129533  -0.241106  -0.144877   0.188224  -0.024809
   48  H  5  S   -0.220579  -0.074003   0.097723  -0.103713  -0.034183
   49  H  5  S   -0.286964   0.049892  -0.025599  -0.237062  -0.072187
   50  H  6  S    0.309416   0.179982  -0.046173  -0.004604   0.081663
   51  H  6  S    0.370801   0.205194  -0.158006   0.023458  -0.057455
   52  H  7  S    0.048671   0.152324  -0.045849  -0.056330   0.056355
   53  H  7  S    0.059165   0.123044  -0.053117  -0.123355   0.142236

                     41         42         43         44         45
                    1.8801     2.0369     2.0676     2.1522     2.2845
                     A          A          A          A          A   
    1  C  1  S   -0.008126  -0.046153   0.007137  -0.058371  -0.000996
    2  C  1  S    0.006776  -0.291443   0.213806  -0.354123   0.022791
    3  C  1  X    0.009783   0.030675   0.032752   0.047399  -0.006419
    4  C  1  Y   -0.113841  -0.055745  -0.006381  -0.002945   0.018976
    5  C  1  Z   -0.022951   0.033726  -0.000643   0.019126  -0.051470
    6  C  1  S    0.293128   1.542877  -0.623551   1.879680  -0.043334
    7  C  1  X    0.276149   0.302193  -0.422270   0.433158  -0.058944
    8  C  1  Y    0.112438   0.059630   0.024618  -0.345849  -0.220880
    9  C  1  Z   -0.306488   0.905459  -0.138153  -0.000722  -0.443701
   10  C  1 XX    0.393259  -0.060623  -0.328848  -0.072383  -0.068109
   11  C  1 YY   -0.339913  -0.589057   0.184806  -0.328225   0.087815
   12  C  1 ZZ   -0.053346   0.649680   0.144043   0.400609  -0.019706
   13  C  1 XY    0.670078  -0.038426   0.424298  -0.212774   0.154565
   14  C  1 XZ    0.126719  -0.198055  -0.062781  -0.115704   0.963879
   15  C  1 YZ   -0.108011  -0.204422   0.031969   0.817938   0.381792
   16  C  2  S    0.010308   0.023137   0.003701   0.033123  -0.002612
   17  C  2  S    0.106082   0.295871   0.244457   0.353981   0.018619
   18  C  2  X   -0.193577  -0.114908  -0.290026  -0.066280  -0.006050
   19  C  2  Y   -0.020534  -0.013016   0.167829  -0.018181  -0.001668
   20  C  2  Z   -0.049081  -0.011198  -0.034682   0.082697  -0.066632
   21  C  2  S   -0.836396  -1.324865  -0.098090  -1.651938   0.007635
   22  C  2  X   -0.321764   0.392113  -0.318079   0.590272   0.032685
   23  C  2  Y   -1.091151  -0.735830   0.493673  -0.679857   0.068512
   24  C  2  Z    0.230451  -0.275721  -0.040664   0.286361   0.030110
   25  C  2 XX   -0.304522  -0.266904  -0.140634  -0.248165  -0.000343
   26  C  2 YY    0.221181  -0.068105  -0.395064   0.113137  -0.068371
   27  C  2 ZZ    0.083341   0.335009   0.535698   0.135027   0.068713
   28  C  2 XY   -0.192181  -0.000339   0.022043  -0.103764   0.062743
   29  C  2 XZ   -0.058292   0.315527  -0.060388  -0.120944   0.215358
   30  C  2 YZ    0.120801  -0.397006   0.207018   0.295230  -0.362958
   31  O  3  S   -0.015370  -0.008795  -0.007092  -0.008863   0.001600
   32  O  3  S   -0.192863  -0.063250   0.018900  -0.038726  -0.014186
   33  O  3  X   -0.166980  -0.061323  -0.136693  -0.056071   0.020837
   34  O  3  Y   -0.158255  -0.127572   0.018489  -0.118725   0.004496
   35  O  3  Z    0.008479  -0.043400  -0.000951   0.067805  -0.006213
   36  O  3  S    1.224929   0.575178   0.170362   0.515044  -0.034667
   37  O  3  X   -0.328469  -0.264133   0.100265  -0.277160  -0.002825
   38  O  3  Y    0.014644   0.121949  -0.231313   0.123970   0.004474
   39  O  3  Z   -0.013970   0.144813   0.020038  -0.184936   0.023775
   40  O  3 XX   -0.161798   0.039474  -0.214843   0.050963  -0.003273
   41  O  3 YY   -0.224619   0.001722   0.630500  -0.125442   0.056579
   42  O  3 ZZ    0.386416  -0.041196  -0.415658   0.074479  -0.053305
   43  O  3 XY    0.181437  -0.091688  -0.072561  -0.022333  -0.030819
   44  O  3 XZ    0.045797  -0.326028   0.045951   0.336923  -0.203248
   45  O  3 YZ   -0.172421   0.249239  -0.205202  -0.010165   0.156534
   46  H  4  S   -0.303110  -0.053503   0.442001  -0.033150  -0.009313
   47  H  4  S   -0.310504  -0.133889   0.161961  -0.114961   0.034332
   48  H  5  S    0.342912  -0.299343   0.025146  -0.670280  -0.021465
   49  H  5  S    0.002355  -0.288711   0.099035   0.323198   0.350471
   50  H  6  S   -0.262917   0.049030  -0.130280  -0.468738  -0.610033
   51  H  6  S   -0.002094   0.157712   0.007391  -0.049520   0.014035
   52  H  7  S   -0.176957  -0.555109  -0.058572   0.098455   0.566108
   53  H  7  S    0.127198  -0.046593  -0.001727  -0.332071  -0.307989

                     46         47         48         49         50
                    2.3454     2.5205     2.5890     2.8596     2.9499
                     A          A          A          A          A   
    1  C  1  S    0.023795   0.050706   0.004421   0.030856  -0.011301
    2  C  1  S    0.214005   0.086075   0.020934  -0.096944   0.076578
    3  C  1  X   -0.106979  -0.272589   0.000638  -0.223936   0.095336
    4  C  1  Y    0.031585   0.060692  -0.002816   0.163115  -0.049878
    5  C  1  Z   -0.011745  -0.018330   0.022918  -0.030650   0.016758
    6  C  1  S   -1.130022  -1.490176  -0.107803  -0.264837   0.074018
    7  C  1  X   -0.677384  -0.856347  -0.012086  -0.203291   0.169598
    8  C  1  Y    0.294349   0.201648   0.025964   0.147753   0.027341
    9  C  1  Z    0.070177  -0.050790  -0.008320  -0.031503  -0.049981
   10  C  1 XX   -0.381362  -0.771334   0.024900  -0.228203   0.074074
   11  C  1 YY   -0.077255   0.498213  -0.022511  -0.054358   0.013498
   12  C  1 ZZ    0.458617   0.273122  -0.002390   0.282561  -0.087572
   13  C  1 XY    0.348038   0.082078   0.040018   0.507822  -0.184376
   14  C  1 XZ   -0.161422  -0.055645   0.142252  -0.101371   0.044333
   15  C  1 YZ    0.161189  -0.036759  -0.217266   0.090250  -0.025724
   16  C  2  S   -0.076605  -0.028669  -0.000648  -0.043939  -0.029278
   17  C  2  S   -0.175449  -0.045013  -0.025598  -0.321975  -1.331300
   18  C  2  X   -0.214201  -0.229265   0.004169  -0.375052  -1.076176
   19  C  2  Y    0.173093   0.049108   0.031041  -0.164557  -0.672486
   20  C  2  Z   -0.013445  -0.010177   0.237629   0.011852   0.065368
   21  C  2  S    1.332378   1.673369   0.087477   0.144228  -1.722688
   22  C  2  X   -0.375207  -0.732734  -0.045336  -0.332632  -0.690058
   23  C  2  Y    0.562299   0.827580   0.061818  -0.522880  -0.532223
   24  C  2  Z   -0.119788  -0.151728   0.241107   0.065964   0.071437
   25  C  2 XX    0.386804  -0.112524  -0.037005   0.906167  -0.677623
   26  C  2 YY    0.333545   0.377235   0.092511  -0.793471   0.225479
   27  C  2 ZZ   -0.720348  -0.264711  -0.055506  -0.112696   0.452143
   28  C  2 XY    0.465387  -0.873139   0.118906  -0.525648  -0.431681
   29  C  2 XZ   -0.009184   0.152560   0.884038   0.111223   0.020348
   30  C  2 YZ   -0.140973  -0.140641   0.429626   0.100578   0.027684
   31  O  3  S    0.027562  -0.020634   0.000148  -0.009698  -0.061609
   32  O  3  S   -0.358449   0.585223   0.002850  -0.333827  -0.681598
   33  O  3  X    0.327115  -0.346466  -0.000612  -0.006193  -0.248209
   34  O  3  Y    0.240017  -0.158613   0.001254   0.046505  -0.170750
   35  O  3  Z   -0.023542   0.012579  -0.012772  -0.006336   0.018977
   36  O  3  S   -0.187964  -0.740556  -0.017127   0.987148   3.090960
   37  O  3  X    0.052655   0.506274   0.025203  -0.655086  -1.503242
   38  O  3  Y   -0.304138  -0.000923  -0.067868   0.069515  -0.981588
   39  O  3  Z    0.033257   0.011031  -0.446485  -0.030555   0.093489
   40  O  3 XX   -0.323292  -0.167789  -0.036387   0.835873   0.714510
   41  O  3 YY    0.284245   0.015896   0.135880  -0.658421  -0.003783
   42  O  3 ZZ    0.039047   0.151894  -0.099493  -0.177452  -0.710727
   43  O  3 XY    0.373950   0.116921   0.096867  -0.089729   1.164864
   44  O  3 XZ   -0.020086  -0.017388   0.822106   0.048221  -0.120089
   45  O  3 YZ   -0.022560   0.036077   0.532408   0.078668  -0.084425
   46  H  4  S   -0.158558  -0.253024   0.007936   0.257188  -0.023211
   47  H  4  S    0.151397   0.338359  -0.003211  -0.417992   0.010800
   48  H  5  S   -0.165028  -0.039248   0.123541  -0.043136   0.007492
   49  H  5  S   -0.007935   0.047516  -0.082266   0.050840   0.067448
   50  H  6  S   -0.088137   0.041644   0.039774  -0.107976   0.022986
   51  H  6  S    0.104835  -0.039024   0.019448   0.026529   0.005533
   52  H  7  S   -0.098511   0.051017  -0.035796  -0.087923   0.040788
   53  H  7  S    0.035578  -0.073946   0.041529  -0.005052  -0.008646
 ...... END OF RHF CALCULATION ......
 STEP CPU TIME =     5.87 TOTAL CPU TIME =          6.0 (      0.1 MIN)
 TOTAL WALL CLOCK TIME=          6.2 SECONDS, CPU UTILIZATION IS    96.92%

     ---------------------------------------------------------------------
     PROPERTIES FOR THE B3LYP    DFT FUNCTIONAL (RHF  TYPE) DENSITY MATRIX
     ---------------------------------------------------------------------

          -----------------
          ENERGY COMPONENTS
          -----------------

         WAVEFUNCTION NORMALIZATION =       1.0000000000

                ONE ELECTRON ENERGY =    -345.7042979496
                TWO ELECTRON ENERGY =     122.4455215303
           NUCLEAR REPULSION ENERGY =      69.6989825120
                                      ------------------
                       TOTAL ENERGY =    -153.5597939074

 ELECTRON-ELECTRON POTENTIAL ENERGY =     122.4455215303
  NUCLEUS-ELECTRON POTENTIAL ENERGY =    -498.6148326154
   NUCLEUS-NUCLEUS POTENTIAL ENERGY =      69.6989825120
                                      ------------------
             TOTAL POTENTIAL ENERGY =    -306.4703285732
               TOTAL KINETIC ENERGY =     152.9105346658
                 VIRIAL RATIO (V/T) =       2.0042460073

          ---------------------------------------
          MULLIKEN AND LOWDIN POPULATION ANALYSES
          ---------------------------------------

     ATOMIC MULLIKEN POPULATION IN EACH MOLECULAR ORBITAL

                      1          2          3          4          5

                  2.000000   2.000000   2.000000   2.000000   2.000000

    1            -0.000029   0.001256   1.996093   0.020046   0.944128
    2             0.002248   2.000557   0.001528   0.526443   0.174952
    3             1.997753  -0.002758   0.000011   1.452405   0.037580
    4             0.000030   0.000894   0.000014  -0.001177   0.004048
    5             0.000000   0.000029   0.000308   0.001189   0.389447
    6            -0.000001   0.000017   0.001032   0.000294   0.040087
    7            -0.000001   0.000005   0.001014   0.000799   0.409758

                      6          7          8          9         10

                  2.000000   2.000000   2.000000   2.000000   2.000000

    1             0.426843   0.603172   0.507950   0.260013   0.061807
    2             0.834734   0.492758   0.563079   0.419547   0.645132
    3             0.213299   0.228526   0.528020   1.200682   1.209717
    4             0.190572   0.221530   0.163962   0.026926   0.001850
    5             0.165522   0.068706   0.008346   0.000655   0.013397
    6             0.036121   0.338043   0.214961   0.089537   0.065471
    7             0.132909   0.047266   0.013682   0.002642   0.002626

                     11         12

                  2.000000   2.000000

    1             0.618603   1.020621
    2             0.041632   0.106870
    3             1.066468   0.392508
    4             0.073971   0.221496
    5             0.048751   0.150994
    6             0.010424   0.008545
    7             0.140151   0.098967

               ----- POPULATIONS IN EACH AO -----
                             MULLIKEN      LOWDIN
              1  C  1  S      1.99624     1.97952
              2  C  1  S      0.66739     0.36347
              3  C  1  X      0.67042     0.60058
              4  C  1  Y      0.85922     0.80924
              5  C  1  Z      0.61811     0.54408
              6  C  1  S      0.59690     0.33888
              7  C  1  X      0.26830     0.39070
              8  C  1  Y      0.52657     0.69199
              9  C  1  Z      0.21902     0.40395
             10  C  1 XX      0.00848     0.15075
             11  C  1 YY      0.00204     0.12288
             12  C  1 ZZ      0.00703     0.17830
             13  C  1 XY      0.01227     0.01206
             14  C  1 XZ      0.00852     0.02471
             15  C  1 YZ      0.00000     0.01246
             16  C  2  S      1.99653     1.97458
             17  C  2  S      0.70542     0.36480
             18  C  2  X      0.73918     0.64463
             19  C  2  Y      0.74291     0.64537
             20  C  2  Z      0.46314     0.41683
             21  C  2  S      0.46860     0.31345
             22  C  2  X      0.11013     0.28566
             23  C  2  Y      0.20509     0.37831
             24  C  2  Z      0.29128     0.33367
             25  C  2 XX      0.00467     0.21859
             26  C  2 YY      0.04138     0.19356
             27  C  2 ZZ      0.02576     0.10581
             28  C  2 XY      0.01143     0.05242
             29  C  2 XZ      0.00396     0.02142
             30  C  2 YZ      0.00000     0.00689
             31  O  3  S      1.99730     1.97775
             32  O  3  S      0.93086     0.72300
             33  O  3  X      1.00213     0.93947
             34  O  3  Y      1.09204     1.04379
             35  O  3  Z      0.75800     0.70672
             36  O  3  S      0.92884     0.46980
             37  O  3  X      0.49260     0.57058
             38  O  3  Y      0.59357     0.65643
             39  O  3  Z      0.50106     0.54028
             40  O  3 XX      0.00229     0.18385
             41  O  3 YY      0.00720     0.17403
             42  O  3 ZZ      0.00718     0.17405
             43  O  3 XY      0.00806     0.01578
             44  O  3 XZ      0.00306     0.01075
             45  O  3 YZ      0.00000     0.00408
             46  H  4  S      0.53523     0.50551
             47  H  4  S      0.36888     0.39352
             48  H  5  S      0.56147     0.46899
             49  H  5  S      0.28588     0.27932
             50  H  6  S      0.50185     0.44975
             51  H  6  S      0.30268     0.34631
             52  H  7  S      0.58352     0.50660
             53  H  7  S      0.26629     0.28006

          ----- MULLIKEN ATOMIC OVERLAP POPULATIONS -----
          (OFF-DIAGONAL ELEMENTS NEED TO BE MULTIPLIED BY 2)

             1           2           3           4           5

    1    5.5185460
    2    0.3497276   4.5595626
    3   -0.0732260   0.5884901   7.8762965
    4   -0.1448361   0.3547537  -0.0682324   0.7515280
    5    0.3156921  -0.0053200  -0.0079664   0.0115236   0.7739881
    6    0.3627279  -0.0218000   0.0012321   0.0070811  -0.0212165
    7    0.1318718  -0.0159341   0.0076151  -0.0077031  -0.2193568

             6           7

    6    0.4838282
    7   -0.0073222   0.9606475

          TOTAL MULLIKEN AND LOWDIN ATOMIC POPULATIONS
       ATOM         MULL.POP.    CHARGE          LOW.POP.     CHARGE
    1 C             6.460503   -0.460503         6.623579   -0.623579
    2 C             5.809480    0.190520         5.955976    0.044024
    3 O             8.324209   -0.324209         8.190373   -0.190373
    4 H             0.904115    0.095885         0.899024    0.100976
    5 H             0.847344    0.152656         0.748317    0.251683
    6 H             0.804531    0.195469         0.796067    0.203933
    7 H             0.849818    0.150182         0.786664    0.213336

          MULLIKEN SPHERICAL HARMONIC POPULATIONS
       ATOM           S       P       D      F      G      H      I    TOTAL
    1 C             3.26    3.16    0.04   0.00   0.00   0.00   0.00    6.46
    2 C             3.17    2.55    0.09   0.00   0.00   0.00   0.00    5.81
    3 O             3.86    4.44    0.03   0.00   0.00   0.00   0.00    8.32
    4 H             0.90    0.00    0.00   0.00   0.00   0.00   0.00    0.90
    5 H             0.85    0.00    0.00   0.00   0.00   0.00   0.00    0.85
    6 H             0.80    0.00    0.00   0.00   0.00   0.00   0.00    0.80
    7 H             0.85    0.00    0.00   0.00   0.00   0.00   0.00    0.85

          -------------------------------
          BOND ORDER AND VALENCE ANALYSIS     BOND ORDER THRESHOLD=0.050
          -------------------------------

                   BOND                       BOND                       BOND
  ATOM PAIR DIST  ORDER      ATOM PAIR DIST  ORDER      ATOM PAIR DIST  ORDER
    1   2  1.509  1.038        1   5  1.093  0.792        1   6  1.098  0.924
    1   7  1.098  0.697        2   3  1.211  2.032        2   4  1.115  0.886
    5   7  0.729  0.144

                       TOTAL       BONDED        FREE
      ATOM            VALENCE     VALENCE     VALENCE
    1 C                 3.453       3.453      -0.000
    2 C                 3.966       3.966       0.000
    3 O                 2.105       2.105       0.000
    4 H                 0.921       0.921       0.000
    5 H                 0.957       0.957      -0.000
    6 H                 0.938       0.938       0.000
    7 H                 0.855       0.855      -0.000

          ---------------------
          ELECTROSTATIC MOMENTS
          ---------------------

 POINT   1           X           Y           Z (BOHR)    CHARGE
                -0.000000    0.000000   -0.000000        0.00 (A.U.)
         DX          DY          DZ         /D/  (DEBYE)
    -2.967528   -1.496573    1.204657    3.535131
 ...... END OF PROPERTY EVALUATION ......
 STEP CPU TIME =     0.00 TOTAL CPU TIME =          6.0 (      0.1 MIN)
 TOTAL WALL CLOCK TIME=          6.2 SECONDS, CPU UTILIZATION IS    96.76%
                580000  WORDS OF DYNAMIC MEMORY USED
 EXECUTION OF GAMESS TERMINATED NORMALLY Thu Dec 12 13:22:13 2019
 DDI: 263640 bytes (0.3 MB / 0 MWords) used by master data server.

 ----------------------------------------
 CPU timing information for all processes
 ========================================
 0: 5.866 + 0.130 = 5.996
 ----------------------------------------
 ddikick.x: exited gracefully.
----- accounting info -----
Files used on the master node crcfe02.crc.nd.edu were:
-rw-r--r-- 1 cdrisko campus      490 Dec 12 13:22 /afs/crc.nd.edu/user/c/cdrisko/acetaldehyde.F05
-rw-r--r-- 1 cdrisko campus    45118 Dec 12 13:22 /afs/crc.nd.edu/user/c/cdrisko/acetaldehyde.F07
-rw-r--r-- 1 cdrisko campus 11881056 Dec 12 13:22 /afs/crc.nd.edu/user/c/cdrisko/acetaldehyde.F08
-rw-r--r-- 1 cdrisko campus  1701440 Dec 12 13:22 /afs/crc.nd.edu/user/c/cdrisko/acetaldehyde.F10
Thu Dec 12 13:22:16 EST 2019
0.324u 0.411s 0:09.91 7.3%	0+0k 0+24io 0pf+0w
