----- GAMESS execution script 'rungms' -----
This job is running on host crcfe02.crc.nd.edu
under operating system Linux at Sun Sep 29 10:50:04 EDT 2019
Available scratch disk space (Kbyte units) at beginning of the job is
Filesystem      1K-blocks  Used  Available Use% Mounted on
AFS            2147483647     0 2147483647   0% /afs
GAMESS temporary binary files will be written to /afs/crc.nd.edu/user/c/cdrisko
GAMESS supplementary output files will be written to /afs/crc.nd.edu/user/c/cdrisko/scr
Copying input file SO2.inp to your run's scratch directory...

 Distributed Data Interface kickoff program.
 Initiating 1 compute processes on 1 nodes to run the following command:
 /afs/crc.nd.edu/x86_64_linux/g/gamess/nov-2017/gamess/gamess.00.x SO2 

          ******************************************************
          *         GAMESS VERSION = 11 NOV 2017 (R3)         *
          *             FROM IOWA STATE UNIVERSITY             *
          * M.W.SCHMIDT, K.K.BALDRIDGE, J.A.BOATZ, S.T.ELBERT, *
          *   M.S.GORDON, J.H.JENSEN, S.KOSEKI, N.MATSUNAGA,   *
          *          K.A.NGUYEN, S.J.SU, T.L.WINDUS,           *
          *       TOGETHER WITH M.DUPUIS, J.A.MONTGOMERY       *
          *         J.COMPUT.CHEM.  14, 1347-1363(1993)        *
          **************** 64 BIT INTEL VERSION ****************

  SINCE 1993, STUDENTS AND POSTDOCS WORKING AT IOWA STATE UNIVERSITY
  AND ALSO IN THEIR VARIOUS JOBS AFTER LEAVING ISU HAVE MADE IMPORTANT
  CONTRIBUTIONS TO THE CODE:
     IVANA ADAMOVIC, CHRISTINE AIKENS, YURI ALEXEEV, POOJA ARORA,
     ANDREY ASADCHEV, ROB BELL, PRADIPTA BANDYOPADHYAY, JONATHAN BENTZ,
     BRETT BODE, KURT BRORSEN, CALEB CARLIN, GALINA CHABAN, WEI CHEN,
     CHEOL HO CHOI, PAUL DAY, ALBERT DEFUSCO, NUWAN DESILVA, TIM DUDLEY,
     DMITRI FEDOROV, ALEX FINDLATER, GRAHAM FLETCHER, MARK FREITAG,
     KURT GLAESEMANN, ANASTASIA GUININA,
     DAN KEMP, GRANT MERRILL, NORIYUKI MINEZAWA, JONATHAN MULLIN,
     TAKESHI NAGATA, SEAN NEDD, HEATHER NETZLOFF, BOSILJKA NJEGIC, RYAN OLSON,
     MIKE PAK, BUU PHAM,
     SPENCER PRUITT, LUKE ROSKOP, JIM SHOEMAKER, LYUDMILA SLIPCHENKO,
     TONY SMITH, SAROM SOK LEANG, JIE SONG, TETSUYA TAKETSUGU, SIMON WEBB,
     PENG XU, SOOHAENG YOO, FEDERICO ZAHARIEV

  ADDITIONAL CODE HAS BEEN PROVIDED BY COLLABORATORS IN OTHER GROUPS:
     IOWA STATE UNIVERSITY:
          JOE IVANIC, AARON WEST, LAIMUTIS BYTAUTAS, KLAUS RUEDENBERG
     UNIVERSITY OF TOKYO: KIMIHIKO HIRAO, TAKAHITO NAKAJIMA,
          TAKAO TSUNEDA, MUNEAKI KAMIYA, SUSUMU YANAGISAWA,
          KIYOSHI YAGI, MAHITO CHIBA, SEIKEN TOKURA, NAOAKI KAWAKAMI
     UNIVERSITY OF AARHUS: FRANK JENSEN
     UNIVERSITY OF IOWA: VISVALDAS KAIRYS, HUI LI
     NATIONAL INST. OF STANDARDS AND TECHNOLOGY: WALT STEVENS, DAVID GARMER
     UNIVERSITY OF PISA: BENEDETTA MENNUCCI, JACOPO TOMASI
     UNIVERSITY OF MEMPHIS: HENRY KURTZ, PRAKASHAN KORAMBATH
     UNIVERSITY OF ALBERTA: TOBY ZENG, MARIUSZ KLOBUKOWSKI
     UNIVERSITY OF NEW ENGLAND: MARK SPACKMAN
     MIE UNIVERSITY: HIROAKI UMEDA
     NAT. INST. OF ADVANCED INDUSTRIAL SCIENCE AND TECHNOLOGY: KAZUO KITAURA
     MICHIGAN STATE UNIVERSITY:
          KAROL KOWALSKI, MARTA WLOCH, JEFFREY GOUR, JESSE LUTZ,
          WEI LI, PIOTR PIECUCH
     UNIVERSITY OF SILESIA: MONIKA MUSIAL, STANISLAW KUCHARSKI
     FACULTES UNIVERSITAIRES NOTRE-DAME DE LA PAIX:
          OLIVIER QUINET, BENOIT CHAMPAGNE
     UNIVERSITY OF CALIFORNIA - SANTA BARBARA: BERNARD KIRTMAN
     INSTITUTE FOR MOLECULAR SCIENCE:
          KAZUYA ISHIMURA, MICHIO KATOUDA, AND SHIGERU NAGASE
     UNIVERSITY OF NOTRE DAME: ANNA POMOGAEVA, DAN CHIPMAN
     KYUSHU UNIVERSITY:
          HARUYUKI NAKANO,
          FENG LONG GU, JACEK KORCHOWIEC, MARCIN MAKOWSKI, AND YURIKO AOKI,
          HIROTOSHI MORI AND EISAKU MIYOSHI
     PENNSYLVANIA STATE UNIVERSITY:
          TZVETELIN IORDANOV, CHET SWALINA, JONATHAN SKONE,
          SHARON HAMMES-SCHIFFER
     WASEDA UNIVERSITY:
          MASATO KOBAYASHI, TOMOKO AKAMA, TSUGUKI TOUMA,
          TAKESHI YOSHIKAWA, YASUHIRO IKABATA, JUNJI SEINO,
          YUYA NAKAJIMA, HIROMI NAKAI
     NANJING UNIVERSITY: SHUHUA LI
     UNIVERSITY OF NEBRASKA:
          PEIFENG SU, DEJUN SI, NANDUN THELLAMUREGE, YALI WANG, HUI LI
     UNIVERSITY OF ZURICH: ROBERTO PEVERATI, KIM BALDRIDGE
     N. COPERNICUS UNIVERSITY AND JACKSON STATE UNIVERSITY:
          MARIA BARYSZ
     UNIVERSITY OF COPENHAGEN: Jimmy Kromann, CASPER STEINMANN
     TOKYO INSTITUTE OF TECHNOLOGY: HIROYA NAKATA
     NAGOYA UNIVERSITY: YOSHIO NISHIMOTO, STEPHAN IRLE
     MOSCOW STATE UNIVERSITY: VLADIMIR MIRONOV

 EXECUTION OF GAMESS BEGUN Sun Sep 29 10:50:04 2019

            ECHO OF THE FIRST FEW INPUT CARDS -
 INPUT CARD> $BASIS GBASIS=PCSEG-1 $END                                                     
 INPUT CARD> $CONTRL COORD=ZMT ISPHER=1 RUNTYP=ENERGY DFTTYP=PBE MULT=1 $END                
 INPUT CARD>                                                                                
 INPUT CARD> $DATA                                                                          
 INPUT CARD>Title SO2 single-point calculation template with Z-Matrix                       
 INPUT CARD>C1                                                                              
 INPUT CARD>S                                                                               
 INPUT CARD>O 1 1.55                                                                        
 INPUT CARD>O 1 1.55 2 120                                                                  
 INPUT CARD> $END                                                                           
    1000000 WORDS OF MEMORY AVAILABLE

     BASIS OPTIONS
     -------------
     GBASIS=PCSEG-1      IGAUSS=       0      POLAR=NONE    
     NDFUNC=       0     NFFUNC=       0     DIFFSP=       F
     NPFUNC=       0      DIFFS=       F     BASNAM=        


     RUN TITLE
     ---------
 Title SO2 single-point calculation template with Z-Matrix                       

 THE POINT GROUP OF THE MOLECULE IS C1      
 THE ORDER OF THE PRINCIPAL AXIS IS     0

 YOUR FULLY SUBSTITUTED Z-MATRIX IS
 S   
 O      1   1.5500000
 O      1   1.5500000  2  120.0000

 THE MOMENTS OF INERTIA ARE (AMU-ANGSTROM**2)
 IXX=     9.604   IYY=    57.642   IZZ=    67.246

 ATOM      ATOMIC                      COORDINATES (BOHR)
           CHARGE         X                   Y                   Z
 S          16.0     0.0000000000       -0.7324720314        0.0000000000
 O           8.0     2.5366536029        0.7320656091        0.0000000000
 O           8.0    -2.5366536029        0.7320656091        0.0000000000

          INTERNUCLEAR DISTANCES (ANGS.)
          ------------------------------

                1 S          2 O          3 O     

   1 S       0.0000000    1.5500000 *  1.5500000 *
   2 O       1.5500000 *  0.0000000    2.6846788 *
   3 O       1.5500000 *  2.6846788 *  0.0000000  

  * ... LESS THAN  3.000


     ATOMIC BASIS SET
     ----------------
 THE CONTRACTED PRIMITIVE FUNCTIONS HAVE BEEN UNNORMALIZED
 THE CONTRACTED BASIS FUNCTIONS ARE NOW NORMALIZED TO UNITY

  SHELL TYPE  PRIMITIVE        EXPONENT          CONTRACTION COEFFICIENT(S)

 S         

      1   S       1         49299.4000000    0.000677492991
      1   S       2          7395.8400000    0.005232317766
      1   S       3          1683.3000000    0.026769459077
      1   S       4           476.1440000    0.102869580705
      1   S       5           154.3290000    0.286438127414
      1   S       6            55.0288000    0.454278639081
      1   S       7            20.5029000    0.271743121997

      2   S       8            45.9596000   -0.088421914560
      2   S       9             4.9274000    0.564350486135
      2   S      10             1.9179900    0.505415953466

      3   S      11             0.3684980    1.000000000000

      4   S      12             0.1291650    1.000000000000

      5   P      13           451.6620000    0.003707705453
      5   P      14           106.0980000    0.029219352245
      5   P      15            33.6996000    0.124444551509
      5   P      16            12.3054000    0.321808587656
      5   P      17             4.7141200    0.462822172957
      5   P      18             1.7810500    0.266513371364

      6   P      19             0.8722350    0.349265132972
      6   P      20             0.3102780    0.717115018770

      7   P      21             0.1001940    1.000000000000

      8   D      22             0.5500000    1.000000000000

 O         

      9   S      23          2288.6400000    0.005451138222
      9   S      24           344.4160000    0.040718922842
      9   S      25            78.2538000    0.181369420873
      9   S      26            21.7195000    0.465536820246
      9   S      27             6.5590700    0.451211321214

     10   S      28            10.4656000   -0.150211201174
     10   S      29             0.9643510    1.052867983385

     11   S      30             0.2851270    1.000000000000

     12   P      31            17.0590000    0.068749256972
     12   P      32             3.6899900    0.351671941499
     12   P      33             0.9929960    0.724532099722

     13   P      34             0.2449240    1.000000000000

     14   D      35             1.0000000    1.000000000000

 O         

     15   S      36          2288.6400000    0.005451138222
     15   S      37           344.4160000    0.040718922842
     15   S      38            78.2538000    0.181369420873
     15   S      39            21.7195000    0.465536820246
     15   S      40             6.5590700    0.451211321214

     16   S      41            10.4656000   -0.150211201174
     16   S      42             0.9643510    1.052867983385

     17   S      43             0.2851270    1.000000000000

     18   P      44            17.0590000    0.068749256972
     18   P      45             3.6899900    0.351671941499
     18   P      46             0.9929960    0.724532099722

     19   P      47             0.2449240    1.000000000000

     20   D      48             1.0000000    1.000000000000

 TOTAL NUMBER OF BASIS SET SHELLS             =   20
 NUMBER OF CARTESIAN GAUSSIAN BASIS FUNCTIONS =   49
 NOTE: THIS RUN WILL RESTRICT THE MO VARIATION SPACE TO SPHERICAL HARMONICS.
 THE NUMBER OF ORBITALS KEPT IN THE VARIATIONAL SPACE WILL BE PRINTED LATER.
 NUMBER OF ELECTRONS                          =   32
 CHARGE OF MOLECULE                           =    0
 SPIN MULTIPLICITY                            =    1
 NUMBER OF OCCUPIED ORBITALS (ALPHA)          =   16
 NUMBER OF OCCUPIED ORBITALS (BETA )          =   16
 TOTAL NUMBER OF ATOMS                        =    3
 THE NUCLEAR REPULSION ENERGY IS      100.0146425500

     LEBEDEV GRID-BASED DFT OPTIONS
     ------------------------------
     DFTTYP=PBE     
     NRAD  =      96     NLEB  =     302
     NRAD0 =      24     NLEB0 =     110
     SWOFF =    5.00E-03 (PURE SCF -> DFT)
     SWITCH=    3.00E-04 (COARSE -> TIGHT GRID)
     THRESH=    0.00E+00 GTHRE=    1.00E+00

 GRIMME'S EMPIRICAL DISPERSION CORRECTION= F

     $CONTRL OPTIONS
     ---------------
 SCFTYP=RHF          RUNTYP=ENERGY       EXETYP=RUN     
 MPLEVL=       0     CITYP =NONE         CCTYP =NONE         VBTYP =NONE    
 DFTTYP=PBE          TDDFT =NONE    
 MULT  =       1     ICHARG=       0     NZVAR =       0     COORD =ZMT     
 PP    =NONE         RELWFN=NONE         LOCAL =NONE         NUMGRD=       F
 ISPHER=       1     NOSYM =       0     MAXIT =      30     UNITS =ANGS    
 PLTORB=       F     MOLPLT=       F     AIMPAC=       F     FRIEND=        
 NPRINT=       7     IREST =       0     GEOM  =INPUT   
 NORMF =       0     NORMP =       0     ITOL  =      20     ICUT  =       9
 INTTYP=BEST         GRDTYP=BEST         QMTTOL= 1.0E-06

     $SYSTEM OPTIONS
     ---------------
  REPLICATED MEMORY=     1000000 WORDS (ON EVERY NODE).
 DISTRIBUTED MEMDDI=           0 MILLION WORDS IN AGGREGATE,
 MEMDDI DISTRIBUTED OVER   1 PROCESSORS IS           0 WORDS/PROCESSOR.
 TOTAL MEMORY REQUESTED ON EACH PROCESSOR=     1000000 WORDS.
 TIMLIM=      525600.00 MINUTES, OR     365.0 DAYS.
 PARALL= F  BALTYP=  DLB     KDIAG=    0  COREFL= F
 MXSEQ2=     300 MXSEQ3=     150  mem10=         0

          ----------------
          PROPERTIES INPUT
          ----------------

     MOMENTS            FIELD           POTENTIAL          DENSITY
 IEMOM =       1   IEFLD =       0   IEPOT =       0   IEDEN =       0
 WHERE =COMASS     WHERE =NUCLEI     WHERE =NUCLEI     WHERE =NUCLEI  
 OUTPUT=BOTH       OUTPUT=BOTH       OUTPUT=BOTH       OUTPUT=BOTH    
 IEMINT=       0   IEFINT=       0                     IEDINT=       0
                                                       MORB  =       0
          EXTRAPOLATION IN EFFECT
          DIIS IN EFFECT
 ORBITAL PRINTING OPTION: NPREO=     1    49     2     1

     -------------------------------
     INTEGRAL TRANSFORMATION OPTIONS
     -------------------------------
     NWORD  =            0
     CUTOFF = 1.0E-09     MPTRAN =       0
     DIRTRF =       F     AOINTS =DUP     

          ----------------------
          INTEGRAL INPUT OPTIONS
          ----------------------
 NOPK  =       1 NORDER=       0 SCHWRZ=       F

   --- ENCODED Z MATRIX ---
 COORD  TYPE   I   J   K   L   M   N
    1      1    2   1
    2      1    3   1
    3      2    3   1   2

 THE DETERMINANT OF THE G MATRIX IS 10**(    -4)

 THE DETERMINANT OF THE G MATRIX IS 10**(    -4)
 * * * WARNING * * *
 YOUR B MATRIX HAS A SMALL DETERMINANT.
 THIS SUGGESTS YOU MAY HAVE BADLY CHOSEN COORDINATES.

     ------------------------------------------
     THE POINT GROUP IS C1 , NAXIS= 0, ORDER= 1
     ------------------------------------------

 -- VARIATIONAL SPACE WILL BE RESTRICTED TO PURE SPHERICAL HARMONICS ONLY --
 AFTER EXCLUDING CONTAMINANT COMBINATIONS FROM THE CARTESIAN GAUSSIAN BASIS
 SET, THE NUMBER OF SPHERICAL HARMONICS KEPT IN THE VARIATION SPACE IS   46

     DIMENSIONS OF THE SYMMETRY SUBSPACES ARE
 A   =   46

 ..... DONE SETTING UP THE RUN .....
 STEP CPU TIME =     0.04 TOTAL CPU TIME =          0.0 (      0.0 MIN)
 TOTAL WALL CLOCK TIME=          0.0 SECONDS, CPU UTILIZATION IS   100.00%

          ********************
          1 ELECTRON INTEGRALS
          ********************
 ...... END OF ONE-ELECTRON INTEGRALS ......
 STEP CPU TIME =     0.00 TOTAL CPU TIME =          0.0 (      0.0 MIN)
 TOTAL WALL CLOCK TIME=          0.0 SECONDS, CPU UTILIZATION IS    80.00%

          -------------
          GUESS OPTIONS
          -------------
          GUESS =HUCKEL            NORB  =       0          NORDER=       0
          MIX   =       F          PRTMO =       F          PUNMO =       F
          TOLZ  = 1.0E-08          TOLE  = 1.0E-05
          SYMDEN=       F          PURIFY=       F

 INITIAL GUESS ORBITALS GENERATED BY HUCKEL   ROUTINE.
 HUCKEL GUESS REQUIRES     21634 WORDS.

 STATISTICS FOR GENERATION OF SYMMETRY ORBITAL -Q- MATRIX
 NUMBER OF CARTESIAN ATOMIC ORBITALS=         49
 NUMBER OF SPHERICAL CONTAMINANTS DROPPED=     3
 NUMBER OF LINEARLY DEPENDENT MOS DROPPED=     0
 TOTAL NUMBER OF MOS IN VARIATION SPACE=      46

 SYMMETRIES FOR INITIAL GUESS ORBITALS FOLLOW.   BOTH SET(S).
    16 ORBITALS ARE OCCUPIED (    7 CORE ORBITALS).
     8=A        9=A       10=A       11=A       12=A       13=A       14=A   
    15=A       16=A       17=A       18=A       19=A       20=A       21=A   
    22=A       23=A       24=A       25=A       26=A   
 ...... END OF INITIAL ORBITAL SELECTION ......
 STEP CPU TIME =     0.00 TOTAL CPU TIME =          0.0 (      0.0 MIN)
 TOTAL WALL CLOCK TIME=          0.0 SECONDS, CPU UTILIZATION IS    80.00%

                    ----------------------
                    AO INTEGRAL TECHNOLOGY
                    ----------------------
     S,P,L SHELL ROTATED AXIS INTEGRALS, REPROGRAMMED BY
        KAZUYA ISHIMURA (IMS) AND JOSE SIERRA (SYNSTAR).
     S,P,D,L SHELL ROTATED AXIS INTEGRALS PROGRAMMED BY
        KAZUYA ISHIMURA (INSTITUTE FOR MOLECULAR SCIENCE).
     S,P,D,F,G SHELL TO TOTAL QUARTET ANGULAR MOMENTUM SUM 5,
        ERIC PROGRAM BY GRAHAM FLETCHER (ELORET AND NASA ADVANCED
        SUPERCOMPUTING DIVISION, AMES RESEARCH CENTER).
     S,P,D,F,G,L SHELL GENERAL RYS QUADRATURE PROGRAMMED BY
        MICHEL DUPUIS (PACIFIC NORTHWEST NATIONAL LABORATORY).

          --------------------
          2 ELECTRON INTEGRALS
          --------------------

 THE -PK- OPTION IS OFF, THE INTEGRALS ARE NOT IN SUPERMATRIX FORM.
 STORING   15000 INTEGRALS/RECORD ON DISK, USING 12 BYTES/INTEGRAL.
 TWO ELECTRON INTEGRAL EVALUATION REQUIRES   90606 WORDS OF MEMORY.
 II,JST,KST,LST =  1  1  1  1 NREC =         1 INTLOC =    1
 II,JST,KST,LST =  2  1  1  1 NREC =         1 INTLOC =    2
 II,JST,KST,LST =  3  1  1  1 NREC =         1 INTLOC =    7
 II,JST,KST,LST =  4  1  1  1 NREC =         1 INTLOC =   22
 II,JST,KST,LST =  5  1  1  1 NREC =         1 INTLOC =   56
 II,JST,KST,LST =  6  1  1  1 NREC =         1 INTLOC =  125
 II,JST,KST,LST =  7  1  1  1 NREC =         1 INTLOC =  329
 II,JST,KST,LST =  8  1  1  1 NREC =         1 INTLOC =  776
 II,JST,KST,LST =  9  1  1  1 NREC =         1 INTLOC = 2864
 II,JST,KST,LST = 10  1  1  1 NREC =         1 INTLOC = 4952
 II,JST,KST,LST = 11  1  1  1 NREC =         1 INTLOC = 7616
 II,JST,KST,LST = 12  1  1  1 NREC =         1 INTLOC =10733
 II,JST,KST,LST = 13  1  1  1 NREC =         2 INTLOC = 6650
 II,JST,KST,LST = 14  1  1  1 NREC =         3 INTLOC = 6917
 II,JST,KST,LST = 15  1  1  1 NREC =         6 INTLOC = 8906
 II,JST,KST,LST = 16  1  1  1 NREC =         7 INTLOC = 1145
 II,JST,KST,LST = 17  1  1  1 NREC =         7 INTLOC =12723
 II,JST,KST,LST = 18  1  1  1 NREC =         8 INTLOC =11123
 II,JST,KST,LST = 19  1  1  1 NREC =        11 INTLOC = 5967
 II,JST,KST,LST = 20  1  1  1 NREC =        14 INTLOC =13036
 TOTAL NUMBER OF NONZERO TWO-ELECTRON INTEGRALS =              339420
         23 INTEGRAL RECORDS WERE STORED ON DISK FILE  8.
  ...... END OF TWO-ELECTRON INTEGRALS .....
 STEP CPU TIME =     0.12 TOTAL CPU TIME =          0.2 (      0.0 MIN)
 TOTAL WALL CLOCK TIME=          0.2 SECONDS, CPU UTILIZATION IS   100.00%

          --------------------------
               R-PBE SCF CALCULATION
          --------------------------

     NUCLEAR ENERGY =       100.0146425500
     MAXIT =   30     NPUNCH=    2
     EXTRAP=T  DAMP=F  SHIFT=F  RSTRCT=F  DIIS=T  DEM=F  SOSCF=F
         DENSITY MATRIX CONVERGENCE THRESHOLD=  1.00E-05
     COARSE -> FINE DFT GRID SWITCH THRESHOLD=  3.00E-04 (SWITCH IN $DFT)
                   HF -> DFT SWITCH THRESHOLD=  5.00E-03 (SWOFF IN $DFT)
     MEMORY REQUIRED FOR RHF ITERS=    183108 WORDS.

 DFT CODE IS SWITCHING FROM THE FINE GRID NRAD= 96,  NLEB=  302
                      TO THE COARSE GRID NRAD0= 24, NLEB0=  110

     EXCHANGE FUNCTIONAL   =PBE       
     CORRELATION FUNCTIONAL=PBE       
     DFT THRESHOLD         =.460E-07
     GRID CHANGE THRESHOLD =.300E-03
 FOR AN EULER-MACLAURIN QUADRATURE USING  96 RADIAL POINTS:
 SMALLEST GAUSSIAN PRIMITIVE EXPONENT=        0.1001940000 OF TYPE -P-
 ON ATOM NUMBER   1 HAS RADIAL NORMALIZATION=  1.000000
  LARGEST GAUSSIAN PRIMITIVE EXPONENT=    49299.4000000000 OF TYPE -S-
 ON ATOM NUMBER   1 HAS RADIAL NORMALIZATION=  1.000000
 DFT IS SWITCHED OFF, PERFORMING PURE SCF UNTIL SWOFF THRESHOLD IS REACHED.

 ITER EX DEM     TOTAL ENERGY        E CHANGE  DENSITY CHANGE    DIIS ERROR
   1  0  0     -546.0780620530  -546.0780620530   0.630600450   0.939576483
          * * *   INITIATING DIIS PROCEDURE   * * *
   2  1  0     -546.7595030545    -0.6814410015   0.553382331   0.286724460
   3  2  0     -546.8375401420    -0.0780370875   0.208427556   0.240339687
   4  3  0     -547.0673873432    -0.2298472011   0.030297451   0.010057080
   5  4  0     -547.0680534653    -0.0006661222   0.007610715   0.003284967
   6  5  0     -547.0681297563    -0.0000762910   0.002155069   0.000685927
 CONVERGED TO SWOFF, SO DFT CALCULATION IS NOW SWITCHED ON.
          * * *   INITIATING DIIS PROCEDURE   * * *
   7  6  0     -548.2125125174    -1.1443827611   0.393865923   0.103767495
   8  7  0     -548.2122462720     0.0002662454   0.339141196   0.110296421
   9  8  0     -548.2170057148    -0.0047594428   0.115942220   0.107707180
  10  9  0     -548.2517941967    -0.0347884819   0.026754658   0.012340804
  11 10  0     -548.2523486061    -0.0005544093   0.001164671   0.000833911
  12 11  0     -548.2523509613    -0.0000023552   0.000448668   0.000305418
  13 12  0     -548.2523512269    -0.0000002656   0.000137224   0.000040798
 DFT CODE IS SWITCHING BACK TO THE FINE GRID
          * * *   INITIATING DIIS PROCEDURE   * * *
  14 13  0     -548.2429543159     0.0093969109   0.012673544   0.012905099
  15 14  0     -548.2431846644    -0.0002303485   0.019250095   0.004185458
  16 15  0     -548.2429064603     0.0002782041   0.012272213   0.009773242
  17 16  0     -548.2432049698    -0.0002985094   0.003186739   0.004086264
  18 17  0     -548.2432388781    -0.0000339084   0.000297618   0.000361290
  19 18  0     -548.2432392631    -0.0000003850   0.000083154   0.000049771
  20 19  0     -548.2432392710    -0.0000000079   0.000015014   0.000004227
  21 20  0     -548.2432392711    -0.0000000001   0.000002513   0.000001366
  22 21  0     -548.2432392711    -0.0000000000   0.000000053   0.000000084

          -----------------
          DENSITY CONVERGED
          -----------------
     TIME TO FORM FOCK OPERATORS=       2.5 SECONDS (       0.1 SEC/ITER)
     TIME TO SOLVE SCF EQUATIONS=       0.0 SECONDS (       0.0 SEC/ITER)

 FINAL R-PBE ENERGY IS     -548.2432392711 AFTER  22 ITERATIONS
 DFT EXCHANGE + CORRELATION ENERGY =       -42.4017149730
 TOTAL ELECTRON NUMBER             =        31.9999974065

          ------------
          EIGENVECTORS
          ------------

                      1          2          3          4          5
                  -88.2297   -18.8124   -18.8124    -7.8440    -5.8703
                     A          A          A          A          A   
    1  S  1  S    0.997756  -0.000012  -0.000000  -0.308377  -0.000000
    2  S  1  S    0.008271  -0.000018  -0.000000   1.031690   0.000000
    3  S  1  S   -0.003066  -0.000084  -0.000000   0.027943  -0.000000
    4  S  1  S    0.000749   0.008217   0.000010  -0.005596  -0.000000
    5  S  1  X   -0.000000   0.000000  -0.000028  -0.000000   0.994579
    6  S  1  Y    0.000147  -0.000151  -0.000000   0.010939  -0.000001
    7  S  1  Z    0.000000   0.000000   0.000000   0.000000   0.000000
    8  S  1  X    0.000000  -0.000002   0.001596  -0.000000   0.017404
    9  S  1  Y   -0.000405   0.001636   0.000002   0.001230  -0.000000
   10  S  1  Z    0.000000   0.000000   0.000000   0.000000   0.000000
   11  S  1  X    0.000000  -0.000005   0.003835  -0.000000  -0.002509
   12  S  1  Y   -0.000019   0.003197   0.000004  -0.000194  -0.000000
   13  S  1  Z    0.000000   0.000000   0.000000   0.000000   0.000000
   14  S  1 XX   -0.000261   0.000500   0.000001   0.000762  -0.000000
   15  S  1 YY    0.000056   0.000162   0.000000  -0.000297  -0.000000
   16  S  1 ZZ    0.000206  -0.000662  -0.000001  -0.000465   0.000000
   17  S  1 XY    0.000000  -0.000000   0.000135  -0.000000   0.001404
   18  S  1 XZ    0.000000   0.000000   0.000000   0.000000   0.000000
   19  S  1 YZ    0.000000   0.000000   0.000000   0.000000   0.000000
   20  O  2  S   -0.000016   0.701457   0.703176  -0.000037  -0.000266
   21  O  2  S   -0.000170   0.024059   0.023614  -0.000095  -0.000037
   22  O  2  S    0.000455  -0.012450  -0.010776  -0.000429  -0.000865
   23  O  2  X   -0.000041  -0.000918  -0.000830   0.000193  -0.000255
   24  O  2  Y   -0.000021  -0.000348  -0.000569   0.000100  -0.000134
   25  O  2  Z    0.000000   0.000000   0.000000   0.000000   0.000000
   26  O  2  X   -0.000421   0.003173   0.001571   0.000851   0.000962
   27  O  2  Y   -0.000250   0.000866   0.001591   0.000566   0.000641
   28  O  2  Z    0.000000   0.000000   0.000000   0.000000   0.000000
   29  O  2 XX    0.000167  -0.000331  -0.000071  -0.000030   0.000445
   30  O  2 YY   -0.000027   0.000137  -0.000066  -0.000017  -0.000073
   31  O  2 ZZ   -0.000140   0.000193   0.000137   0.000047  -0.000371
   32  O  2 XY    0.000210  -0.000225  -0.000192  -0.000079   0.000547
   33  O  2 XZ    0.000000   0.000000   0.000000   0.000000   0.000000
   34  O  2 YZ    0.000000   0.000000   0.000000   0.000000   0.000000
   35  O  3  S   -0.000016   0.703198  -0.701436  -0.000037   0.000266
   36  O  3  S   -0.000170   0.024118  -0.023554  -0.000095   0.000037
   37  O  3  S    0.000455  -0.012477   0.010745  -0.000429   0.000865
   38  O  3  X    0.000041   0.000920  -0.000827  -0.000193  -0.000255
   39  O  3  Y   -0.000021  -0.000349   0.000568   0.000100   0.000134
   40  O  3  Z    0.000000   0.000000   0.000000   0.000000   0.000000
   41  O  3  X    0.000421  -0.003177   0.001563  -0.000851   0.000962
   42  O  3  Y   -0.000250   0.000870  -0.001589   0.000566  -0.000641
   43  O  3  Z    0.000000   0.000000   0.000000   0.000000   0.000000
   44  O  3 XX    0.000167  -0.000331   0.000070  -0.000030  -0.000445
   45  O  3 YY   -0.000027   0.000137   0.000067  -0.000017   0.000073
   46  O  3 ZZ   -0.000140   0.000194  -0.000137   0.000047   0.000371
   47  O  3 XY   -0.000210   0.000226  -0.000192   0.000079   0.000547
   48  O  3 XZ    0.000000   0.000000   0.000000   0.000000   0.000000
   49  O  3 YZ    0.000000   0.000000   0.000000   0.000000   0.000000

                      6          7          8          9         10
                   -5.8689    -5.8643    -1.0141    -0.9408    -0.6037
                     A          A          A          A          A   
    1  S  1  S    0.000000   0.003432   0.049393  -0.000000   0.068081
    2  S  1  S    0.000000  -0.011809  -0.304056   0.000000  -0.435982
    3  S  1  S    0.000000  -0.000057   0.427156  -0.000001   0.673117
    4  S  1  S    0.000000   0.001047   0.066355   0.000005   0.242983
    5  S  1  X    0.000000   0.000001  -0.000000   0.118850   0.000000
    6  S  1  Y    0.000000   0.994873  -0.056617  -0.000000   0.037905
    7  S  1  Z    0.994971   0.000000   0.000000   0.000000   0.000000
    8  S  1  X    0.000000   0.000000   0.000001  -0.268222  -0.000000
    9  S  1  Y    0.000000   0.016056   0.123597   0.000001  -0.087623
   10  S  1  Z    0.015901   0.000000   0.000000   0.000000   0.000000
   11  S  1  X    0.000000  -0.000000   0.000002   0.008995  -0.000002
   12  S  1  Y    0.000000  -0.002663  -0.016312   0.000002  -0.041439
   13  S  1  Z   -0.003059   0.000000   0.000000   0.000000   0.000000
   14  S  1 XX    0.000000  -0.000228   0.042921   0.000001  -0.012983
   15  S  1 YY    0.000000   0.000814  -0.008946  -0.000000  -0.004487
   16  S  1 ZZ    0.000000  -0.000586  -0.033975  -0.000001   0.017470
   17  S  1 XY    0.000000   0.000000   0.000001  -0.072146  -0.000000
   18  S  1 XZ   -0.000000   0.000000   0.000000   0.000000   0.000000
   19  S  1 YZ    0.000679   0.000000   0.000000   0.000000   0.000000
   20  O  2  S    0.000000  -0.000161  -0.136598   0.162464   0.112972
   21  O  2  S    0.000000   0.000035   0.278268  -0.337664  -0.240979
   22  O  2  S    0.000000  -0.000466   0.254909  -0.305392  -0.308656
   23  O  2  X    0.000000  -0.000215  -0.097293   0.084939  -0.121332
   24  O  2  Y    0.000000  -0.000157  -0.051192   0.053703  -0.085497
   25  O  2  Z   -0.000052   0.000000   0.000000   0.000000   0.000000
   26  O  2  X    0.000000   0.000635  -0.035504   0.019798  -0.057546
   27  O  2  Y    0.000000   0.000039  -0.016721   0.014202  -0.035471
   28  O  2  Z   -0.000163   0.000000   0.000000   0.000000   0.000000
   29  O  2 XX    0.000000   0.000224   0.009010  -0.004218   0.003894
   30  O  2 YY    0.000000   0.000033  -0.003934   0.001556   0.001041
   31  O  2 ZZ    0.000000  -0.000258  -0.005076   0.002662  -0.004935
   32  O  2 XY    0.000000   0.000485   0.009322  -0.007726   0.006350
   33  O  2 XZ    0.000110   0.000000   0.000000   0.000000   0.000000
   34  O  2 YZ    0.000047   0.000000   0.000000   0.000000   0.000000
   35  O  3  S    0.000000  -0.000161  -0.136599  -0.162463   0.112972
   36  O  3  S    0.000000   0.000035   0.278268   0.337665  -0.240980
   37  O  3  S    0.000000  -0.000466   0.254915   0.305384  -0.308659
   38  O  3  X    0.000000   0.000215   0.097293   0.084939   0.121332
   39  O  3  Y    0.000000  -0.000157  -0.051192  -0.053703  -0.085497
   40  O  3  Z   -0.000052   0.000000   0.000000   0.000000   0.000000
   41  O  3  X    0.000000  -0.000635   0.035506   0.019795   0.057546
   42  O  3  Y    0.000000   0.000039  -0.016723  -0.014201  -0.035471
   43  O  3  Z   -0.000163   0.000000   0.000000   0.000000   0.000000
   44  O  3 XX    0.000000   0.000224   0.009010   0.004218   0.003894
   45  O  3 YY    0.000000   0.000033  -0.003934  -0.001556   0.001041
   46  O  3 ZZ    0.000000  -0.000258  -0.005076  -0.002662  -0.004935
   47  O  3 XY    0.000000  -0.000485  -0.009323  -0.007726  -0.006350
   48  O  3 XZ   -0.000110   0.000000   0.000000   0.000000   0.000000
   49  O  3 YZ    0.000047   0.000000   0.000000   0.000000   0.000000

                     11         12         13         14         15
                   -0.4407    -0.4283    -0.4243    -0.3253    -0.3042
                     A          A          A          A          A   
    1  S  1  S    0.000000   0.000000  -0.009937   0.000000   0.000000
    2  S  1  S   -0.000000   0.000000   0.062854   0.000000  -0.000001
    3  S  1  S   -0.000000   0.000000  -0.070798   0.000000  -0.000000
    4  S  1  S   -0.000000   0.000000  -0.176655   0.000000   0.000005
    5  S  1  X   -0.180787   0.000000  -0.000000   0.000000  -0.016151
    6  S  1  Y    0.000000   0.000000  -0.209564   0.000000   0.000001
    7  S  1  Z    0.000000  -0.216612   0.000000  -0.000000   0.000000
    8  S  1  X    0.490684   0.000000   0.000000   0.000000   0.041035
    9  S  1  Y   -0.000000   0.000000   0.561333   0.000000  -0.000002
   10  S  1  Z    0.000000   0.584166   0.000000   0.000000   0.000000
   11  S  1  X    0.001089   0.000000   0.000001   0.000000   0.111739
   12  S  1  Y    0.000000   0.000000   0.103538   0.000000   0.000001
   13  S  1  Z    0.000000   0.148867   0.000000   0.000000   0.000000
   14  S  1 XX   -0.000000   0.000000  -0.033345   0.000000  -0.000000
   15  S  1 YY    0.000000   0.000000   0.053892   0.000000   0.000000
   16  S  1 ZZ    0.000000   0.000000  -0.020547   0.000000   0.000000
   17  S  1 XY    0.047761   0.000000   0.000000   0.000000  -0.106450
   18  S  1 XZ    0.000000  -0.000000   0.000000   0.114587   0.000000
   19  S  1 YZ    0.000000   0.046378   0.000000  -0.000000   0.000000
   20  O  2  S    0.071143   0.000000   0.030053   0.000000   0.001116
   21  O  2  S   -0.148835   0.000000  -0.064198   0.000000  -0.002714
   22  O  2  S   -0.243412   0.000000  -0.098368   0.000000  -0.031622
   23  O  2  X   -0.280695   0.000000  -0.285166   0.000000   0.334379
   24  O  2  Y   -0.238903   0.000000   0.126914   0.000000  -0.333143
   25  O  2  Z    0.000000   0.299509   0.000000   0.466716   0.000000
   26  O  2  X   -0.134735   0.000000  -0.170041   0.000000   0.219657
   27  O  2  Y   -0.128573   0.000000   0.084675   0.000000  -0.234073
   28  O  2  Z    0.000000   0.180583   0.000000   0.330752   0.000000
   29  O  2 XX    0.004421   0.000000   0.018957   0.000000  -0.014210
   30  O  2 YY    0.003531   0.000000  -0.013324   0.000000   0.014941
   31  O  2 ZZ   -0.007952   0.000000  -0.005633   0.000000  -0.000731
   32  O  2 XY    0.013385   0.000000  -0.001569   0.000000   0.008745
   33  O  2 XZ    0.000000  -0.017930   0.000000  -0.016537   0.000000
   34  O  2 YZ    0.000000  -0.009737   0.000000  -0.010504   0.000000
   35  O  3  S   -0.071143   0.000000   0.030053   0.000000  -0.001116
   36  O  3  S    0.148834   0.000000  -0.064198   0.000000   0.002714
   37  O  3  S    0.243412   0.000000  -0.098367   0.000000   0.031619
   38  O  3  X   -0.280695   0.000000   0.285167   0.000000   0.334378
   39  O  3  Y    0.238903   0.000000   0.126914   0.000000   0.333147
   40  O  3  Z    0.000000   0.299510   0.000000  -0.466716   0.000000
   41  O  3  X   -0.134733   0.000000   0.170043   0.000000   0.219655
   42  O  3  Y    0.128573   0.000000   0.084674   0.000000   0.234076
   43  O  3  Z    0.000000   0.180583   0.000000  -0.330752   0.000000
   44  O  3 XX   -0.004421   0.000000   0.018957   0.000000   0.014210
   45  O  3 YY   -0.003531   0.000000  -0.013324   0.000000  -0.014941
   46  O  3 ZZ    0.007952   0.000000  -0.005633   0.000000   0.000731
   47  O  3 XY    0.013385   0.000000   0.001569   0.000000   0.008745
   48  O  3 XZ    0.000000   0.017930   0.000000  -0.016537   0.000000
   49  O  3 YZ    0.000000  -0.009737   0.000000   0.010504   0.000000

                     16         17         18         19         20
                   -0.2883    -0.1873    -0.0346     0.0088     0.2091
                     A          A          A          A          A   
    1  S  1  S    0.020364   0.000000   0.028309   0.000000   0.000000
    2  S  1  S   -0.131866   0.000000  -0.190641  -0.000002   0.000000
    3  S  1  S    0.160580   0.000000   0.282141   0.000002   0.000000
    4  S  1  S    0.401275   0.000000   0.640725   0.000002   0.000000
    5  S  1  X    0.000000   0.000000   0.000001  -0.187216   0.000000
    6  S  1  Y    0.097966   0.000000  -0.185266  -0.000002   0.000000
    7  S  1  Z    0.000000  -0.224145   0.000000   0.000000   0.246682
    8  S  1  X   -0.000000   0.000000  -0.000003   0.582642   0.000000
    9  S  1  Y   -0.269476   0.000000   0.585874   0.000004   0.000000
   10  S  1  Z    0.000000   0.663350   0.000000   0.000000  -0.975686
   11  S  1  X   -0.000001   0.000000  -0.000013   0.937414   0.000000
   12  S  1  Y   -0.016748   0.000000   0.599926   0.000005   0.000000
   13  S  1  Z    0.000000   0.295584   0.000000   0.000000   1.310791
   14  S  1 XX   -0.140543   0.000000  -0.139877  -0.000003   0.000000
   15  S  1 YY    0.083438   0.000000  -0.034522  -0.000000   0.000000
   16  S  1 ZZ    0.057105   0.000000   0.174399   0.000003   0.000000
   17  S  1 XY    0.000001   0.000000   0.000002  -0.211894   0.000000
   18  S  1 XZ    0.000000  -0.000000   0.000000   0.000000   0.000000
   19  S  1 YZ    0.000000  -0.058923   0.000000   0.000000  -0.099019
   20  O  2  S    0.000608   0.000000   0.051406   0.054243   0.000000
   21  O  2  S   -0.001106   0.000000  -0.110197  -0.106666   0.000000
   22  O  2  S   -0.042557   0.000000  -0.389520  -0.498541   0.000000
   23  O  2  X    0.064011   0.000000   0.369281   0.093262   0.000000
   24  O  2  Y    0.434443   0.000000  -0.033730   0.278134   0.000000
   25  O  2  Z    0.000000  -0.390497   0.000000   0.000000  -0.041108
   26  O  2  X    0.038715   0.000000   0.370618   0.107799   0.000000
   27  O  2  Y    0.311972   0.000000  -0.035116   0.264638   0.000000
   28  O  2  Z    0.000000  -0.318315   0.000000   0.000000  -0.127489
   29  O  2 XX    0.003427   0.000000   0.002894  -0.002013   0.000000
   30  O  2 YY   -0.007201   0.000000  -0.006173   0.005628   0.000000
   31  O  2 ZZ    0.003775   0.000000   0.003280  -0.003615   0.000000
   32  O  2 XY   -0.011372   0.000000  -0.002480   0.004660   0.000000
   33  O  2 XZ    0.000000   0.002701   0.000000   0.000000   0.017659
   34  O  2 YZ    0.000000   0.000273   0.000000   0.000000   0.007680
   35  O  3  S    0.000608   0.000000   0.051407  -0.054241   0.000000
   36  O  3  S   -0.001107   0.000000  -0.110202   0.106656   0.000000
   37  O  3  S   -0.042557   0.000000  -0.389529   0.498544   0.000000
   38  O  3  X   -0.064015   0.000000  -0.369284   0.093252   0.000000
   39  O  3  Y    0.434439   0.000000  -0.033725  -0.278135   0.000000
   40  O  3  Z    0.000000  -0.390497   0.000000   0.000000  -0.041108
   41  O  3  X   -0.038717   0.000000  -0.370617   0.107797   0.000000
   42  O  3  Y    0.311970   0.000000  -0.035111  -0.264641   0.000000
   43  O  3  Z    0.000000  -0.318315   0.000000   0.000000  -0.127488
   44  O  3 XX    0.003427   0.000000   0.002894   0.002013   0.000000
   45  O  3 YY   -0.007201   0.000000  -0.006173  -0.005628   0.000000
   46  O  3 ZZ    0.003775   0.000000   0.003280   0.003615   0.000000
   47  O  3 XY    0.011372   0.000000   0.002480   0.004660   0.000000
   48  O  3 XZ    0.000000  -0.002701   0.000000   0.000000  -0.017659
   49  O  3 YZ    0.000000   0.000273   0.000000   0.000000   0.007680

                     21         22         23         24         25
                    0.2206     0.2506     0.2733     0.5071     0.5148
                     A          A          A          A          A   
    1  S  1  S    0.028243  -0.062161  -0.000001   0.000000   0.000000
    2  S  1  S   -0.207509   0.456153   0.000008   0.000000   0.000000
    3  S  1  S    0.755412  -1.758139  -0.000029   0.000000   0.000000
    4  S  1  S   -0.793644   2.103564   0.000026   0.000000   0.000000
    5  S  1  X   -0.000000  -0.000005   0.281935   0.000000   0.000000
    6  S  1  Y    0.242206   0.087784   0.000002   0.000000   0.000000
    7  S  1  Z    0.000000   0.000000   0.000000   0.026535   0.000000
    8  S  1  X    0.000001   0.000023  -1.082007   0.000000   0.000000
    9  S  1  Y   -0.950464  -0.323510  -0.000008   0.000000   0.000000
   10  S  1  Z    0.000000   0.000000   0.000000  -0.115292  -0.000000
   11  S  1  X   -0.000000  -0.000021   1.405318   0.000000   0.000000
   12  S  1  Y    1.139745   0.758577   0.000011   0.000000   0.000000
   13  S  1  Z    0.000000   0.000000   0.000000   0.110930   0.000000
   14  S  1 XX    0.135800   0.063654  -0.000002   0.000000   0.000000
   15  S  1 YY   -0.099704  -0.085332  -0.000001   0.000000   0.000000
   16  S  1 ZZ   -0.036097   0.021678   0.000003   0.000000   0.000000
   17  S  1 XY    0.000000  -0.000000   0.201412   0.000000   0.000000
   18  S  1 XZ    0.000000   0.000000   0.000000  -0.000003   0.885668
   19  S  1 YZ    0.000000   0.000000   0.000000   0.938938   0.000003
   20  O  2  S   -0.003375   0.021914   0.005807   0.000000   0.000000
   21  O  2  S    0.033781  -0.008293   0.047614   0.000000   0.000000
   22  O  2  S   -0.061607  -0.519754  -0.406339   0.000000   0.000000
   23  O  2  X   -0.060988  -0.165102  -0.228329   0.000000   0.000000
   24  O  2  Y   -0.015279  -0.128128  -0.121970   0.000000   0.000000
   25  O  2  Z    0.000000   0.000000   0.000000  -0.238509  -0.340750
   26  O  2  X   -0.025109   0.137528  -0.094613   0.000000   0.000000
   27  O  2  Y   -0.112454  -0.001757   0.002436   0.000000   0.000000
   28  O  2  Z    0.000000   0.000000   0.000000   0.082601   0.106174
   29  O  2 XX   -0.016189  -0.033233  -0.013628   0.000000   0.000000
   30  O  2 YY    0.014829   0.009171  -0.007385   0.000000   0.000000
   31  O  2 ZZ    0.001360   0.024061   0.021013   0.000000   0.000000
   32  O  2 XY    0.008707  -0.027586  -0.035336   0.000000   0.000000
   33  O  2 XZ    0.000000   0.000000   0.000000  -0.041039  -0.043810
   34  O  2 YZ    0.000000   0.000000   0.000000   0.006269  -0.041938
   35  O  3  S   -0.003375   0.021914  -0.005806   0.000000   0.000000
   36  O  3  S    0.033780  -0.008300  -0.047623   0.000000   0.000000
   37  O  3  S   -0.061606  -0.519753   0.406338   0.000000   0.000000
   38  O  3  X    0.060988   0.165106  -0.228328   0.000000   0.000000
   39  O  3  Y   -0.015279  -0.128133   0.121965   0.000000   0.000000
   40  O  3  Z    0.000000   0.000000   0.000000  -0.238512   0.340749
   41  O  3  X    0.025110  -0.137515  -0.094607   0.000000   0.000000
   42  O  3  Y   -0.112454  -0.001761  -0.002439   0.000000   0.000000
   43  O  3  Z    0.000000   0.000000   0.000000   0.082602  -0.106174
   44  O  3 XX   -0.016189  -0.033233   0.013627   0.000000   0.000000
   45  O  3 YY    0.014829   0.009171   0.007385   0.000000   0.000000
   46  O  3 ZZ    0.001360   0.024062  -0.021013   0.000000   0.000000
   47  O  3 XY   -0.008707   0.027587  -0.035336   0.000000   0.000000
   48  O  3 XZ    0.000000   0.000000   0.000000   0.041039  -0.043809
   49  O  3 YZ    0.000000   0.000000   0.000000   0.006269   0.041938

                     26         27         28         29         30
                    0.5169     0.6462     0.6637     0.7881     0.8170
                     A          A          A          A          A   
    1  S  1  S   -0.000306   0.014590  -0.000000   0.000000   0.006209
    2  S  1  S    0.003252  -0.115092   0.000000   0.000000  -0.052426
    3  S  1  S   -0.040140   0.362133  -0.000001   0.000000   0.264227
    4  S  1  S    0.102955   0.885143  -0.000012   0.000000   0.032412
    5  S  1  X   -0.000000  -0.000001  -0.156645   0.000000  -0.000000
    6  S  1  Y    0.024558  -0.096313   0.000000   0.000000  -0.018785
    7  S  1  Z    0.000000   0.000000   0.000000  -0.000000   0.000000
    8  S  1  X    0.000001   0.000006   0.840063   0.000000  -0.000000
    9  S  1  Y   -0.110024   0.503638  -0.000003   0.000000   0.113372
   10  S  1  Z    0.000000   0.000000   0.000000   0.000000   0.000000
   11  S  1  X   -0.000000   0.000005   0.167312   0.000000   0.000001
   12  S  1  Y    0.147965   0.165079  -0.000003   0.000000  -0.518302
   13  S  1  Z    0.000000   0.000000   0.000000  -0.000000   0.000000
   14  S  1 XX   -0.232495   0.682594  -0.000003   0.000000   0.375980
   15  S  1 YY    0.870552  -0.059075  -0.000000   0.000000  -0.464839
   16  S  1 ZZ   -0.638056  -0.623519   0.000003   0.000000   0.088859
   17  S  1 XY    0.000001   0.000005   0.712668   0.000000  -0.000001
   18  S  1 XZ    0.000000   0.000000   0.000000   0.485394   0.000000
   19  S  1 YZ    0.000000   0.000000   0.000000  -0.000000   0.000000
   20  O  2  S    0.007623   0.071706   0.069747   0.000000  -0.001604
   21  O  2  S   -0.036544  -0.245645  -0.236504   0.000000   0.066775
   22  O  2  S   -0.027787  -0.363711  -0.312467   0.000000  -0.062163
   23  O  2  X    0.148389  -0.280568  -0.114251   0.000000   0.184850
   24  O  2  Y   -0.263772   0.055073  -0.237482   0.000000  -0.514756
   25  O  2  Z    0.000000   0.000000   0.000000   0.559435   0.000000
   26  O  2  X   -0.035999   0.850190   0.748813   0.000000  -0.168595
   27  O  2  Y    0.105622   0.300431   0.570002   0.000000   0.867783
   28  O  2  Z    0.000000   0.000000   0.000000  -0.784134   0.000000
   29  O  2 XX    0.032252  -0.003501   0.033948   0.000000  -0.027835
   30  O  2 YY   -0.015079   0.021060  -0.022835   0.000000   0.036890
   31  O  2 ZZ   -0.017173  -0.017559  -0.011114   0.000000  -0.009055
   32  O  2 XY   -0.035221   0.017307   0.017756   0.000000   0.048245
   33  O  2 XZ    0.000000   0.000000   0.000000  -0.046936   0.000000
   34  O  2 YZ    0.000000   0.000000   0.000000  -0.034316   0.000000
   35  O  3  S    0.007623   0.071705  -0.069748   0.000000  -0.001604
   36  O  3  S   -0.036545  -0.245648   0.236504   0.000000   0.066778
   37  O  3  S   -0.027785  -0.363697   0.312479   0.000000  -0.062165
   38  O  3  X   -0.148389   0.280559  -0.114258   0.000000  -0.184848
   39  O  3  Y   -0.263772   0.055074   0.237485   0.000000  -0.514752
   40  O  3  Z    0.000000   0.000000   0.000000  -0.559435   0.000000
   41  O  3  X    0.036001  -0.850172   0.748829   0.000000   0.168591
   42  O  3  Y    0.105621   0.300425  -0.570010   0.000000   0.867777
   43  O  3  Z    0.000000   0.000000   0.000000   0.784134   0.000000
   44  O  3 XX    0.032252  -0.003502  -0.033948   0.000000  -0.027835
   45  O  3 YY   -0.015079   0.021061   0.022834   0.000000   0.036890
   46  O  3 ZZ   -0.017173  -0.017559   0.011114   0.000000  -0.009055
   47  O  3 XY    0.035221  -0.017307   0.017756   0.000000  -0.048245
   48  O  3 XZ    0.000000   0.000000   0.000000  -0.046936   0.000000
   49  O  3 YZ    0.000000   0.000000   0.000000   0.034316   0.000000

                     31         32         33         34         35
                    0.8493     0.8517     0.8637     0.9526     1.3979
                     A          A          A          A          A   
    1  S  1  S   -0.000000   0.000000  -0.005714  -0.000000  -0.000000
    2  S  1  S    0.000000   0.000000   0.061158   0.000000   0.000001
    3  S  1  S   -0.000006   0.000000  -0.546843   0.000001  -0.000006
    4  S  1  S    0.000003   0.000000   0.300768  -0.000007   0.000005
    5  S  1  X   -0.032104   0.000000   0.000000  -0.043851   0.066946
    6  S  1  Y   -0.000000   0.000000  -0.028546   0.000000  -0.000000
    7  S  1  Z    0.000000   0.001585   0.000000   0.000000   0.000000
    8  S  1  X    0.166380   0.000000  -0.000002  -0.031917  -0.514253
    9  S  1  Y    0.000000   0.000000  -0.009188  -0.000001  -0.000001
   10  S  1  Z    0.000000  -0.025032   0.000000   0.000000   0.000000
   11  S  1  X   -0.312905   0.000000   0.000006   0.391739  -0.942559
   12  S  1  Y   -0.000002   0.000000   0.052753  -0.000003   0.000002
   13  S  1  Z    0.000000  -0.589315   0.000000   0.000000   0.000000
   14  S  1 XX    0.000010   0.000000   0.703821  -0.000001   0.000003
   15  S  1 YY   -0.000004   0.000000  -0.174789  -0.000000  -0.000000
   16  S  1 ZZ   -0.000006   0.000000  -0.529032   0.000001  -0.000002
   17  S  1 XY    0.323709   0.000000  -0.000005   0.756303  -0.248287
   18  S  1 XZ    0.000000  -0.000000   0.000000   0.000000   0.000000
   19  S  1 YZ    0.000000  -0.348229   0.000000   0.000000   0.000000
   20  O  2  S   -0.000612   0.000000   0.018086   0.023779   0.078645
   21  O  2  S    0.063234   0.000000  -0.073395  -0.050760  -1.229115
   22  O  2  S   -0.070267   0.000000  -0.110888  -0.268798   1.885480
   23  O  2  X   -0.281467   0.000000   0.497436   0.584476  -0.000886
   24  O  2  Y    0.540491   0.000000   0.297683   0.205167   0.094770
   25  O  2  Z    0.000000  -0.599474   0.000000   0.000000   0.000000
   26  O  2  X    0.559412   0.000000  -0.483920  -0.469900  -0.336674
   27  O  2  Y   -0.639195   0.000000  -0.180861  -0.155177  -0.439613
   28  O  2  Z    0.000000   0.914658   0.000000   0.000000   0.000000
   29  O  2 XX    0.044613   0.000000  -0.050308   0.027292  -0.070014
   30  O  2 YY   -0.031048   0.000000   0.055570  -0.048744  -0.005086
   31  O  2 ZZ   -0.013565   0.000000  -0.005262   0.021452   0.075100
   32  O  2 XY   -0.005653   0.000000  -0.002685  -0.015394  -0.115306
   33  O  2 XZ    0.000000   0.045348   0.000000   0.000000   0.000000
   34  O  2 YZ    0.000000   0.014655   0.000000   0.000000   0.000000
   35  O  3  S    0.000612   0.000000   0.018087  -0.023778  -0.078645
   36  O  3  S   -0.063225   0.000000  -0.073404   0.050744   1.229107
   37  O  3  S    0.070255   0.000000  -0.110879   0.268820  -1.885475
   38  O  3  X   -0.281486   0.000000  -0.497425   0.584478  -0.000888
   39  O  3  Y   -0.540486   0.000000   0.297698  -0.205168  -0.094768
   40  O  3  Z    0.000000  -0.599474   0.000000   0.000000   0.000000
   41  O  3  X    0.559431   0.000000   0.483900  -0.469898  -0.336672
   42  O  3  Y    0.639195   0.000000  -0.180879   0.155177   0.439612
   43  O  3  Z    0.000000   0.914658   0.000000   0.000000   0.000000
   44  O  3 XX   -0.044614   0.000000  -0.050306  -0.027292   0.070013
   45  O  3 YY    0.031049   0.000000   0.055569   0.048744   0.005087
   46  O  3 ZZ    0.013565   0.000000  -0.005263  -0.021452  -0.075100
   47  O  3 XY   -0.005653   0.000000   0.002685  -0.015393  -0.115305
   48  O  3 XZ    0.000000  -0.045348   0.000000   0.000000   0.000000
   49  O  3 YZ    0.000000   0.014655   0.000000   0.000000   0.000000

                     36         37         38         39         40
                    1.5104     2.0689     2.0703     2.0741     2.0849
                     A          A          A          A          A   
    1  S  1  S   -0.001397   0.000000  -0.000000   0.000000  -0.000862
    2  S  1  S    0.019742   0.000000   0.000000   0.000000   0.007710
    3  S  1  S    0.176958   0.000000  -0.000001   0.000000  -0.035396
    4  S  1  S   -1.916204   0.000000   0.000001   0.000000   0.000938
    5  S  1  X   -0.000000   0.000000  -0.005548   0.000000   0.000000
    6  S  1  Y    0.055919   0.000000   0.000000   0.000000   0.003813
    7  S  1  Z    0.000000  -0.000000   0.000000  -0.018402   0.000000
    8  S  1  X    0.000003   0.000000   0.009486   0.000000  -0.000000
    9  S  1  Y   -0.381515   0.000000  -0.000000   0.000000  -0.022313
   10  S  1  Z    0.000000   0.000001   0.000000   0.065126   0.000000
   11  S  1  X   -0.000008   0.000000   0.028660   0.000000  -0.000000
   12  S  1  Y   -0.747332   0.000000   0.000000   0.000000   0.000118
   13  S  1  Z    0.000000   0.000000   0.000000   0.011045   0.000000
   14  S  1 XX   -0.283649   0.000000   0.000000   0.000000   0.040227
   15  S  1 YY   -0.025095   0.000000   0.000000   0.000000   0.049396
   16  S  1 ZZ    0.308745   0.000000  -0.000001   0.000000  -0.089622
   17  S  1 XY   -0.000004   0.000000  -0.037910   0.000000   0.000000
   18  S  1 XZ    0.000000   0.029053   0.000000  -0.000000   0.000000
   19  S  1 YZ    0.000000  -0.000000   0.000000  -0.014110   0.000000
   20  O  2  S    0.068820   0.000000  -0.000448   0.000000   0.003233
   21  O  2  S   -1.246545   0.000000   0.000987   0.000000  -0.028669
   22  O  2  S    2.102446   0.000000  -0.004217   0.000000   0.022361
   23  O  2  X    0.061711   0.000000   0.019992   0.000000   0.022861
   24  O  2  Y   -0.051151   0.000000  -0.019675   0.000000   0.005573
   25  O  2  Z    0.000000   0.010407   0.000000   0.017769   0.000000
   26  O  2  X   -0.684980   0.000000  -0.038896   0.000000  -0.026813
   27  O  2  Y   -0.119970   0.000000   0.027037   0.000000  -0.003890
   28  O  2  Z    0.000000  -0.016278   0.000000  -0.028828   0.000000
   29  O  2 XX   -0.142272   0.000000   0.327975   0.000000  -0.118046
   30  O  2 YY    0.054596   0.000000   0.259260   0.000000  -0.482682
   31  O  2 ZZ    0.087676   0.000000  -0.587234   0.000000   0.600727
   32  O  2 XY   -0.105494   0.000000  -0.392854   0.000000   0.307894
   33  O  2 XZ    0.000000   0.470799   0.000000  -0.148262   0.000000
   34  O  2 YZ    0.000000  -0.527897   0.000000   0.692200   0.000000
   35  O  3  S    0.068820   0.000000   0.000448   0.000000   0.003233
   36  O  3  S   -1.246552   0.000000  -0.000987   0.000000  -0.028668
   37  O  3  S    2.102448   0.000000   0.004217   0.000000   0.022361
   38  O  3  X   -0.061718   0.000000   0.019992   0.000000  -0.022862
   39  O  3  Y   -0.051152   0.000000   0.019675   0.000000   0.005573
   40  O  3  Z    0.000000  -0.010406   0.000000   0.017770   0.000000
   41  O  3  X    0.684988   0.000000  -0.038896   0.000000   0.026813
   42  O  3  Y   -0.119967   0.000000  -0.027037   0.000000  -0.003889
   43  O  3  Z    0.000000   0.016277   0.000000  -0.028828   0.000000
   44  O  3 XX   -0.142273   0.000000  -0.327976   0.000000  -0.118042
   45  O  3 YY    0.054595   0.000000  -0.259265   0.000000  -0.482679
   46  O  3 ZZ    0.087678   0.000000   0.587241   0.000000   0.600721
   47  O  3 XY    0.105495   0.000000  -0.392858   0.000000  -0.307890
   48  O  3 XZ    0.000000   0.470804   0.000000   0.148248   0.000000
   49  O  3 YZ    0.000000   0.527916   0.000000   0.692186   0.000000

                     41         42         43         44         45
                    2.1192     2.1786     2.2396     2.3334     2.6481
                     A          A          A          A          A   
    1  S  1  S    0.000000   0.000000   0.000000  -0.003150  -0.034745
    2  S  1  S   -0.000000   0.000000   0.000000   0.027219   0.282245
    3  S  1  S    0.000000   0.000000   0.000000  -0.061114  -0.775556
    4  S  1  S   -0.000000   0.000000   0.000000  -0.250674  -0.861202
    5  S  1  X   -0.039659   0.000000   0.000000  -0.000000  -0.000000
    6  S  1  Y   -0.000000   0.000000   0.000000   0.066835   0.117590
    7  S  1  Z    0.000000   0.057685  -0.000000   0.000000   0.000000
    8  S  1  X    0.185001   0.000000   0.000000   0.000000   0.000000
    9  S  1  Y    0.000000   0.000000   0.000000  -0.276205  -0.658979
   10  S  1  Z    0.000000  -0.203237   0.000000   0.000000   0.000000
   11  S  1  X    0.040606   0.000000   0.000000  -0.000001  -0.000003
   12  S  1  Y   -0.000000   0.000000   0.000000  -0.180004  -0.140596
   13  S  1  Z    0.000000  -0.078724   0.000000   0.000000   0.000000
   14  S  1 XX   -0.000000   0.000000   0.000000   0.313828  -0.558885
   15  S  1 YY    0.000000   0.000000   0.000000  -0.374793   0.138839
   16  S  1 ZZ    0.000000   0.000000   0.000000   0.060965   0.420046
   17  S  1 XY   -0.213380   0.000000   0.000000  -0.000000  -0.000001
   18  S  1 XZ    0.000000   0.000000   0.415452   0.000000   0.000000
   19  S  1 YZ    0.000000  -0.259719   0.000000   0.000000   0.000000
   20  O  2  S   -0.007661   0.000000   0.000000   0.009349   0.006104
   21  O  2  S    0.104084   0.000000   0.000000  -0.182193  -0.538863
   22  O  2  S   -0.132783   0.000000   0.000000   0.311878   1.155676
   23  O  2  X   -0.018822   0.000000   0.000000   0.063205   0.025088
   24  O  2  Y   -0.066896   0.000000   0.000000  -0.022774   0.012418
   25  O  2  Z    0.000000  -0.057713   0.040797   0.000000   0.000000
   26  O  2  X    0.018500   0.000000   0.000000  -0.208141  -0.603332
   27  O  2  Y    0.116204   0.000000   0.000000   0.105752  -0.343514
   28  O  2  Z    0.000000   0.140798  -0.124410   0.000000   0.000000
   29  O  2 XX    0.424104   0.000000   0.000000   0.599609   0.424988
   30  O  2 YY   -0.646522   0.000000   0.000000  -0.535850  -0.011164
   31  O  2 ZZ    0.222418   0.000000   0.000000  -0.063759  -0.413824
   32  O  2 XY   -0.278202   0.000000   0.000000  -0.326629   0.630034
   33  O  2 XZ    0.000000  -0.706602   0.547931   0.000000   0.000000
   34  O  2 YZ    0.000000  -0.158140   0.481922   0.000000   0.000000
   35  O  3  S    0.007661   0.000000   0.000000   0.009349   0.006104
   36  O  3  S   -0.104084   0.000000   0.000000  -0.182193  -0.538863
   37  O  3  S    0.132783   0.000000   0.000000   0.311877   1.155674
   38  O  3  X   -0.018822   0.000000   0.000000  -0.063206  -0.025089
   39  O  3  Y    0.066896   0.000000   0.000000  -0.022774   0.012418
   40  O  3  Z    0.000000  -0.057713  -0.040797   0.000000   0.000000
   41  O  3  X    0.018500   0.000000   0.000000   0.208142   0.603333
   42  O  3  Y   -0.116204   0.000000   0.000000   0.105752  -0.343513
   43  O  3  Z    0.000000   0.140799   0.124409   0.000000   0.000000
   44  O  3 XX   -0.424105   0.000000   0.000000   0.599609   0.424988
   45  O  3 YY    0.646522   0.000000   0.000000  -0.535849  -0.011164
   46  O  3 ZZ   -0.222417   0.000000   0.000000  -0.063760  -0.413824
   47  O  3 XY   -0.278203   0.000000   0.000000   0.326629  -0.630034
   48  O  3 XZ    0.000000   0.706603   0.547930   0.000000   0.000000
   49  O  3 YZ    0.000000  -0.158141  -0.481922   0.000000   0.000000

                     46
                    2.7588
                     A   
    1  S  1  S    0.000000
    2  S  1  S   -0.000000
    3  S  1  S    0.000002
    4  S  1  S   -0.000003
    5  S  1  X   -0.219614
    6  S  1  Y    0.000000
    7  S  1  Z    0.000000
    8  S  1  X    1.189672
    9  S  1  Y   -0.000000
   10  S  1  Z    0.000000
   11  S  1  X    0.160577
   12  S  1  Y   -0.000001
   13  S  1  Z    0.000000
   14  S  1 XX   -0.000001
   15  S  1 YY    0.000000
   16  S  1 ZZ    0.000001
   17  S  1 XY    0.654856
   18  S  1 XZ    0.000000
   19  S  1 YZ    0.000000
   20  O  2  S    0.001285
   21  O  2  S    0.443372
   22  O  2  S   -1.029916
   23  O  2  X    0.013872
   24  O  2  Y    0.008190
   25  O  2  Z    0.000000
   26  O  2  X    0.589469
   27  O  2  Y    0.340188
   28  O  2  Z    0.000000
   29  O  2 XX   -0.552972
   30  O  2 YY    0.172153
   31  O  2 ZZ    0.380819
   32  O  2 XY   -0.600366
   33  O  2 XZ    0.000000
   34  O  2 YZ    0.000000
   35  O  3  S   -0.001285
   36  O  3  S   -0.443372
   37  O  3  S    1.029919
   38  O  3  X    0.013873
   39  O  3  Y   -0.008190
   40  O  3  Z    0.000000
   41  O  3  X    0.589469
   42  O  3  Y   -0.340188
   43  O  3  Z    0.000000
   44  O  3 XX    0.552972
   45  O  3 YY   -0.172153
   46  O  3 ZZ   -0.380819
   47  O  3 XY   -0.600366
   48  O  3 XZ    0.000000
   49  O  3 YZ    0.000000
 ...... END OF RHF CALCULATION ......
 STEP CPU TIME =     2.52 TOTAL CPU TIME =          2.7 (      0.0 MIN)
 TOTAL WALL CLOCK TIME=          2.7 SECONDS, CPU UTILIZATION IS    98.53%

     ---------------------------------------------------------------------
     PROPERTIES FOR THE PBE      DFT FUNCTIONAL (RHF  TYPE) DENSITY MATRIX
     ---------------------------------------------------------------------

          -----------------
          ENERGY COMPONENTS
          -----------------

         WAVEFUNCTION NORMALIZATION =       1.0000000000

                ONE ELECTRON ENERGY =    -954.2584772484
                TWO ELECTRON ENERGY =     306.0005954273
           NUCLEAR REPULSION ENERGY =     100.0146425500
                                      ------------------
                       TOTAL ENERGY =    -548.2432392711

 ELECTRON-ELECTRON POTENTIAL ENERGY =     306.0005954273
  NUCLEUS-ELECTRON POTENTIAL ENERGY =   -1501.3792493940
   NUCLEUS-NUCLEUS POTENTIAL ENERGY =     100.0146425500
                                      ------------------
             TOTAL POTENTIAL ENERGY =   -1095.3640114167
               TOTAL KINETIC ENERGY =     547.1207721456
                 VIRIAL RATIO (V/T) =       2.0020515893

          ---------------------------------------
          MULLIKEN AND LOWDIN POPULATION ANALYSES
          ---------------------------------------

     ATOMIC MULLIKEN POPULATION IN EACH MOLECULAR ORBITAL

                      1          2          3          4          5

                  2.000000   2.000000   2.000000   2.000000   2.000000

    1             1.999947   0.001267   0.000800   2.000791   2.000319
    2             0.000026   0.996890   1.002077  -0.000395  -0.000159
    3             0.000026   1.001844   0.997123  -0.000395  -0.000159

                      6          7          8          9         10

                  2.000000   2.000000   2.000000   2.000000   2.000000

    1             2.000021   2.000102   0.666444   0.353159   1.034820
    2            -0.000010  -0.000051   0.666773   0.823426   0.482589
    3            -0.000010  -0.000051   0.666782   0.823415   0.482592

                     11         12         13         14         15

                  2.000000   2.000000   2.000000   2.000000   2.000000

    1             0.488301   1.079116   0.976380   0.079246   0.129746
    2             0.755850   0.460441   0.511809   0.960377   0.935123
    3             0.755848   0.460443   0.511811   0.960376   0.935131

                     16

                  2.000000

    1             0.491993
    2             0.754010
    3             0.753998

               ----- POPULATIONS IN EACH AO -----
                             MULLIKEN      LOWDIN
              1  S  1  S      1.99982     1.99925
              2  S  1  S      1.99220     1.88565
              3  S  1  S      1.32681     0.67005
              4  S  1  S      0.55576     0.47297
              5  S  1  X      1.99379     1.95711
              6  S  1  Y      1.99489     1.96576
              7  S  1  Z      1.99385     1.96049
              8  S  1  X      0.81546     0.67790
              9  S  1  Y      1.01507     0.92994
             10  S  1  Z      0.86761     0.77480
             11  S  1  X      0.04537     0.19807
             12  S  1  Y      0.12599     0.27583
             13  S  1  Z      0.20603     0.31416
             14  S  1 XX      0.03556     0.32106
             15  S  1 YY      0.12564     0.30412
             16  S  1 ZZ      0.11770     0.29145
             17  S  1 XY      0.07925     0.13497
             18  S  1 XZ      0.01165     0.09428
             19  S  1 YZ      0.00000     0.01127
             20  O  2  S      1.99558     1.97275
             21  O  2  S      0.95659     0.69935
             22  O  2  S      0.94571     0.53389
             23  O  2  X      0.88338     0.84181
             24  O  2  Y      1.05765     1.02727
             25  O  2  Z      0.84796     0.81267
             26  O  2  X      0.45193     0.57232
             27  O  2  Y      0.62482     0.68561
             28  O  2  Z      0.56746     0.60257
             29  O  2 XX      0.00192     0.20921
             30  O  2 YY      0.00522     0.20090
             31  O  2 ZZ      0.00518     0.20474
             32  O  2 XY      0.00403     0.01009
             33  O  2 XZ      0.00136     0.00548
             34  O  2 YZ      0.00000     0.00178
             35  O  3  S      1.99558     1.97275
             36  O  3  S      0.95659     0.69935
             37  O  3  S      0.94571     0.53389
             38  O  3  X      0.88338     0.84180
             39  O  3  Y      1.05765     1.02727
             40  O  3  Z      0.84796     0.81267
             41  O  3  X      0.45193     0.57232
             42  O  3  Y      0.62482     0.68561
             43  O  3  Z      0.56746     0.60257
             44  O  3 XX      0.00192     0.20921
             45  O  3 YY      0.00522     0.20090
             46  O  3 ZZ      0.00518     0.20474
             47  O  3 XY      0.00403     0.01009
             48  O  3 XZ      0.00136     0.00548
             49  O  3 YZ      0.00000     0.00178

          ----- MULLIKEN ATOMIC OVERLAP POPULATIONS -----
          (OFF-DIAGONAL ELEMENTS NEED TO BE MULTIPLIED BY 2)

             1           2           3

    1   14.6717579
    2    0.3153454   8.0581828
    3    0.3153478  -0.0247527   8.0581784

          TOTAL MULLIKEN AND LOWDIN ATOMIC POPULATIONS
       ATOM         MULL.POP.    CHARGE          LOW.POP.     CHARGE
    1 S            15.302451    0.697549        15.239156    0.760844
    2 O             8.348775   -0.348775         8.380422   -0.380422
    3 O             8.348774   -0.348774         8.380422   -0.380422

          MULLIKEN SPHERICAL HARMONIC POPULATIONS
       ATOM           S       P       D      F      G      H      I    TOTAL
    1 S             5.87    9.06    0.37   0.00   0.00   0.00   0.00   15.30
    2 O             3.90    4.43    0.02   0.00   0.00   0.00   0.00    8.35
    3 O             3.90    4.43    0.02   0.00   0.00   0.00   0.00    8.35

          -------------------------------
          BOND ORDER AND VALENCE ANALYSIS     BOND ORDER THRESHOLD=0.050
          -------------------------------

                   BOND                       BOND                       BOND
  ATOM PAIR DIST  ORDER      ATOM PAIR DIST  ORDER      ATOM PAIR DIST  ORDER
    1   2  1.550  1.794        1   3  1.550  1.794        2   3  2.685  0.330

                       TOTAL       BONDED        FREE
      ATOM            VALENCE     VALENCE     VALENCE
    1 S                 3.588       3.588       0.000
    2 O                 2.124       2.124       0.000
    3 O                 2.125       2.125       0.000

          ---------------------
          ELECTROSTATIC MOMENTS
          ---------------------

 POINT   1           X           Y           Z (BOHR)    CHARGE
                 0.000000    0.000000    0.000000        0.00 (A.U.)
         DX          DY          DZ         /D/  (DEBYE)
    -0.000003   -1.836767    0.000000    1.836767
 ...... END OF PROPERTY EVALUATION ......
 STEP CPU TIME =     0.01 TOTAL CPU TIME =          2.7 (      0.0 MIN)
 TOTAL WALL CLOCK TIME=          2.7 SECONDS, CPU UTILIZATION IS    98.53%
                580000  WORDS OF DYNAMIC MEMORY USED
 EXECUTION OF GAMESS TERMINATED NORMALLY Sun Sep 29 10:50:07 2019
 DDI: 263640 bytes (0.3 MB / 0 MWords) used by master data server.

 ----------------------------------------
 CPU timing information for all processes
 ========================================
 0: 2.616 + 0.81 = 2.697
 ----------------------------------------
 ddikick.x: exited gracefully.
----- accounting info -----
Files used on the master node crcfe02.crc.nd.edu were:
-rw-r--r-- 1 cdrisko campus     208 Sep 29 10:50 /afs/crc.nd.edu/user/c/cdrisko/SO2.F05
-rw-r--r-- 1 cdrisko campus   37566 Sep 29 10:50 /afs/crc.nd.edu/user/c/cdrisko/SO2.F07
-rw-r--r-- 1 cdrisko campus 4140368 Sep 29 10:50 /afs/crc.nd.edu/user/c/cdrisko/SO2.F08
-rw-r--r-- 1 cdrisko campus 1766880 Sep 29 10:50 /afs/crc.nd.edu/user/c/cdrisko/SO2.F10
Sun Sep 29 10:50:10 EDT 2019
0.454u 0.239s 0:06.39 10.6%	0+0k 0+24io 0pf+0w
