----- GAMESS execution script 'rungms' -----
This job is running on host crcfe02.crc.nd.edu
under operating system Linux at Sun Sep 29 10:51:27 EDT 2019
Available scratch disk space (Kbyte units) at beginning of the job is
Filesystem      1K-blocks  Used  Available Use% Mounted on
AFS            2147483647     0 2147483647   0% /afs
GAMESS temporary binary files will be written to /afs/crc.nd.edu/user/c/cdrisko
GAMESS supplementary output files will be written to /afs/crc.nd.edu/user/c/cdrisko/scr
Copying input file SO2.inp to your run's scratch directory...

 Distributed Data Interface kickoff program.
 Initiating 1 compute processes on 1 nodes to run the following command:
 /afs/crc.nd.edu/x86_64_linux/g/gamess/nov-2017/gamess/gamess.00.x SO2 

          ******************************************************
          *         GAMESS VERSION = 11 NOV 2017 (R3)         *
          *             FROM IOWA STATE UNIVERSITY             *
          * M.W.SCHMIDT, K.K.BALDRIDGE, J.A.BOATZ, S.T.ELBERT, *
          *   M.S.GORDON, J.H.JENSEN, S.KOSEKI, N.MATSUNAGA,   *
          *          K.A.NGUYEN, S.J.SU, T.L.WINDUS,           *
          *       TOGETHER WITH M.DUPUIS, J.A.MONTGOMERY       *
          *         J.COMPUT.CHEM.  14, 1347-1363(1993)        *
          **************** 64 BIT INTEL VERSION ****************

  SINCE 1993, STUDENTS AND POSTDOCS WORKING AT IOWA STATE UNIVERSITY
  AND ALSO IN THEIR VARIOUS JOBS AFTER LEAVING ISU HAVE MADE IMPORTANT
  CONTRIBUTIONS TO THE CODE:
     IVANA ADAMOVIC, CHRISTINE AIKENS, YURI ALEXEEV, POOJA ARORA,
     ANDREY ASADCHEV, ROB BELL, PRADIPTA BANDYOPADHYAY, JONATHAN BENTZ,
     BRETT BODE, KURT BRORSEN, CALEB CARLIN, GALINA CHABAN, WEI CHEN,
     CHEOL HO CHOI, PAUL DAY, ALBERT DEFUSCO, NUWAN DESILVA, TIM DUDLEY,
     DMITRI FEDOROV, ALEX FINDLATER, GRAHAM FLETCHER, MARK FREITAG,
     KURT GLAESEMANN, ANASTASIA GUININA,
     DAN KEMP, GRANT MERRILL, NORIYUKI MINEZAWA, JONATHAN MULLIN,
     TAKESHI NAGATA, SEAN NEDD, HEATHER NETZLOFF, BOSILJKA NJEGIC, RYAN OLSON,
     MIKE PAK, BUU PHAM,
     SPENCER PRUITT, LUKE ROSKOP, JIM SHOEMAKER, LYUDMILA SLIPCHENKO,
     TONY SMITH, SAROM SOK LEANG, JIE SONG, TETSUYA TAKETSUGU, SIMON WEBB,
     PENG XU, SOOHAENG YOO, FEDERICO ZAHARIEV

  ADDITIONAL CODE HAS BEEN PROVIDED BY COLLABORATORS IN OTHER GROUPS:
     IOWA STATE UNIVERSITY:
          JOE IVANIC, AARON WEST, LAIMUTIS BYTAUTAS, KLAUS RUEDENBERG
     UNIVERSITY OF TOKYO: KIMIHIKO HIRAO, TAKAHITO NAKAJIMA,
          TAKAO TSUNEDA, MUNEAKI KAMIYA, SUSUMU YANAGISAWA,
          KIYOSHI YAGI, MAHITO CHIBA, SEIKEN TOKURA, NAOAKI KAWAKAMI
     UNIVERSITY OF AARHUS: FRANK JENSEN
     UNIVERSITY OF IOWA: VISVALDAS KAIRYS, HUI LI
     NATIONAL INST. OF STANDARDS AND TECHNOLOGY: WALT STEVENS, DAVID GARMER
     UNIVERSITY OF PISA: BENEDETTA MENNUCCI, JACOPO TOMASI
     UNIVERSITY OF MEMPHIS: HENRY KURTZ, PRAKASHAN KORAMBATH
     UNIVERSITY OF ALBERTA: TOBY ZENG, MARIUSZ KLOBUKOWSKI
     UNIVERSITY OF NEW ENGLAND: MARK SPACKMAN
     MIE UNIVERSITY: HIROAKI UMEDA
     NAT. INST. OF ADVANCED INDUSTRIAL SCIENCE AND TECHNOLOGY: KAZUO KITAURA
     MICHIGAN STATE UNIVERSITY:
          KAROL KOWALSKI, MARTA WLOCH, JEFFREY GOUR, JESSE LUTZ,
          WEI LI, PIOTR PIECUCH
     UNIVERSITY OF SILESIA: MONIKA MUSIAL, STANISLAW KUCHARSKI
     FACULTES UNIVERSITAIRES NOTRE-DAME DE LA PAIX:
          OLIVIER QUINET, BENOIT CHAMPAGNE
     UNIVERSITY OF CALIFORNIA - SANTA BARBARA: BERNARD KIRTMAN
     INSTITUTE FOR MOLECULAR SCIENCE:
          KAZUYA ISHIMURA, MICHIO KATOUDA, AND SHIGERU NAGASE
     UNIVERSITY OF NOTRE DAME: ANNA POMOGAEVA, DAN CHIPMAN
     KYUSHU UNIVERSITY:
          HARUYUKI NAKANO,
          FENG LONG GU, JACEK KORCHOWIEC, MARCIN MAKOWSKI, AND YURIKO AOKI,
          HIROTOSHI MORI AND EISAKU MIYOSHI
     PENNSYLVANIA STATE UNIVERSITY:
          TZVETELIN IORDANOV, CHET SWALINA, JONATHAN SKONE,
          SHARON HAMMES-SCHIFFER
     WASEDA UNIVERSITY:
          MASATO KOBAYASHI, TOMOKO AKAMA, TSUGUKI TOUMA,
          TAKESHI YOSHIKAWA, YASUHIRO IKABATA, JUNJI SEINO,
          YUYA NAKAJIMA, HIROMI NAKAI
     NANJING UNIVERSITY: SHUHUA LI
     UNIVERSITY OF NEBRASKA:
          PEIFENG SU, DEJUN SI, NANDUN THELLAMUREGE, YALI WANG, HUI LI
     UNIVERSITY OF ZURICH: ROBERTO PEVERATI, KIM BALDRIDGE
     N. COPERNICUS UNIVERSITY AND JACKSON STATE UNIVERSITY:
          MARIA BARYSZ
     UNIVERSITY OF COPENHAGEN: Jimmy Kromann, CASPER STEINMANN
     TOKYO INSTITUTE OF TECHNOLOGY: HIROYA NAKATA
     NAGOYA UNIVERSITY: YOSHIO NISHIMOTO, STEPHAN IRLE
     MOSCOW STATE UNIVERSITY: VLADIMIR MIRONOV

 EXECUTION OF GAMESS BEGUN Sun Sep 29 10:51:27 2019

            ECHO OF THE FIRST FEW INPUT CARDS -
 INPUT CARD> $BASIS GBASIS=PCSEG-1 $END                                                     
 INPUT CARD> $CONTRL COORD=ZMT ISPHER=1 RUNTYP=ENERGY DFTTYP=PBE MULT=1 $END                
 INPUT CARD>                                                                                
 INPUT CARD> $DATA                                                                          
 INPUT CARD>Title SO2 single-point calculation template with Z-Matrix                       
 INPUT CARD>C1                                                                              
 INPUT CARD>S                                                                               
 INPUT CARD>O 1 1.60                                                                        
 INPUT CARD>O 1 1.60 2 120                                                                  
 INPUT CARD> $END                                                                           
    1000000 WORDS OF MEMORY AVAILABLE

     BASIS OPTIONS
     -------------
     GBASIS=PCSEG-1      IGAUSS=       0      POLAR=NONE    
     NDFUNC=       0     NFFUNC=       0     DIFFSP=       F
     NPFUNC=       0      DIFFS=       F     BASNAM=        


     RUN TITLE
     ---------
 Title SO2 single-point calculation template with Z-Matrix                       

 THE POINT GROUP OF THE MOLECULE IS C1      
 THE ORDER OF THE PRINCIPAL AXIS IS     0

 YOUR FULLY SUBSTITUTED Z-MATRIX IS
 S   
 O      1   1.6000000
 O      1   1.6000000  2  120.0000

 THE MOMENTS OF INERTIA ARE (AMU-ANGSTROM**2)
 IXX=    10.234   IYY=    61.420   IZZ=    71.654

 ATOM      ATOMIC                      COORDINATES (BOHR)
           CHARGE         X                   Y                   Z
 S          16.0     0.0000000000       -0.7561001615        0.0000000000
 O           8.0     2.6184811385        0.7556806287        0.0000000000
 O           8.0    -2.6184811385        0.7556806287        0.0000000000

          INTERNUCLEAR DISTANCES (ANGS.)
          ------------------------------

                1 S          2 O          3 O     

   1 S       0.0000000    1.6000000 *  1.6000000 *
   2 O       1.6000000 *  0.0000000    2.7712813 *
   3 O       1.6000000 *  2.7712813 *  0.0000000  

  * ... LESS THAN  3.000


     ATOMIC BASIS SET
     ----------------
 THE CONTRACTED PRIMITIVE FUNCTIONS HAVE BEEN UNNORMALIZED
 THE CONTRACTED BASIS FUNCTIONS ARE NOW NORMALIZED TO UNITY

  SHELL TYPE  PRIMITIVE        EXPONENT          CONTRACTION COEFFICIENT(S)

 S         

      1   S       1         49299.4000000    0.000677492991
      1   S       2          7395.8400000    0.005232317766
      1   S       3          1683.3000000    0.026769459077
      1   S       4           476.1440000    0.102869580705
      1   S       5           154.3290000    0.286438127414
      1   S       6            55.0288000    0.454278639081
      1   S       7            20.5029000    0.271743121997

      2   S       8            45.9596000   -0.088421914560
      2   S       9             4.9274000    0.564350486135
      2   S      10             1.9179900    0.505415953466

      3   S      11             0.3684980    1.000000000000

      4   S      12             0.1291650    1.000000000000

      5   P      13           451.6620000    0.003707705453
      5   P      14           106.0980000    0.029219352245
      5   P      15            33.6996000    0.124444551509
      5   P      16            12.3054000    0.321808587656
      5   P      17             4.7141200    0.462822172957
      5   P      18             1.7810500    0.266513371364

      6   P      19             0.8722350    0.349265132972
      6   P      20             0.3102780    0.717115018770

      7   P      21             0.1001940    1.000000000000

      8   D      22             0.5500000    1.000000000000

 O         

      9   S      23          2288.6400000    0.005451138222
      9   S      24           344.4160000    0.040718922842
      9   S      25            78.2538000    0.181369420873
      9   S      26            21.7195000    0.465536820246
      9   S      27             6.5590700    0.451211321214

     10   S      28            10.4656000   -0.150211201174
     10   S      29             0.9643510    1.052867983385

     11   S      30             0.2851270    1.000000000000

     12   P      31            17.0590000    0.068749256972
     12   P      32             3.6899900    0.351671941499
     12   P      33             0.9929960    0.724532099722

     13   P      34             0.2449240    1.000000000000

     14   D      35             1.0000000    1.000000000000

 O         

     15   S      36          2288.6400000    0.005451138222
     15   S      37           344.4160000    0.040718922842
     15   S      38            78.2538000    0.181369420873
     15   S      39            21.7195000    0.465536820246
     15   S      40             6.5590700    0.451211321214

     16   S      41            10.4656000   -0.150211201174
     16   S      42             0.9643510    1.052867983385

     17   S      43             0.2851270    1.000000000000

     18   P      44            17.0590000    0.068749256972
     18   P      45             3.6899900    0.351671941499
     18   P      46             0.9929960    0.724532099722

     19   P      47             0.2449240    1.000000000000

     20   D      48             1.0000000    1.000000000000

 TOTAL NUMBER OF BASIS SET SHELLS             =   20
 NUMBER OF CARTESIAN GAUSSIAN BASIS FUNCTIONS =   49
 NOTE: THIS RUN WILL RESTRICT THE MO VARIATION SPACE TO SPHERICAL HARMONICS.
 THE NUMBER OF ORBITALS KEPT IN THE VARIATIONAL SPACE WILL BE PRINTED LATER.
 NUMBER OF ELECTRONS                          =   32
 CHARGE OF MOLECULE                           =    0
 SPIN MULTIPLICITY                            =    1
 NUMBER OF OCCUPIED ORBITALS (ALPHA)          =   16
 NUMBER OF OCCUPIED ORBITALS (BETA )          =   16
 TOTAL NUMBER OF ATOMS                        =    3
 THE NUCLEAR REPULSION ENERGY IS       96.8891849703

     LEBEDEV GRID-BASED DFT OPTIONS
     ------------------------------
     DFTTYP=PBE     
     NRAD  =      96     NLEB  =     302
     NRAD0 =      24     NLEB0 =     110
     SWOFF =    5.00E-03 (PURE SCF -> DFT)
     SWITCH=    3.00E-04 (COARSE -> TIGHT GRID)
     THRESH=    0.00E+00 GTHRE=    1.00E+00

 GRIMME'S EMPIRICAL DISPERSION CORRECTION= F

     $CONTRL OPTIONS
     ---------------
 SCFTYP=RHF          RUNTYP=ENERGY       EXETYP=RUN     
 MPLEVL=       0     CITYP =NONE         CCTYP =NONE         VBTYP =NONE    
 DFTTYP=PBE          TDDFT =NONE    
 MULT  =       1     ICHARG=       0     NZVAR =       0     COORD =ZMT     
 PP    =NONE         RELWFN=NONE         LOCAL =NONE         NUMGRD=       F
 ISPHER=       1     NOSYM =       0     MAXIT =      30     UNITS =ANGS    
 PLTORB=       F     MOLPLT=       F     AIMPAC=       F     FRIEND=        
 NPRINT=       7     IREST =       0     GEOM  =INPUT   
 NORMF =       0     NORMP =       0     ITOL  =      20     ICUT  =       9
 INTTYP=BEST         GRDTYP=BEST         QMTTOL= 1.0E-06

     $SYSTEM OPTIONS
     ---------------
  REPLICATED MEMORY=     1000000 WORDS (ON EVERY NODE).
 DISTRIBUTED MEMDDI=           0 MILLION WORDS IN AGGREGATE,
 MEMDDI DISTRIBUTED OVER   1 PROCESSORS IS           0 WORDS/PROCESSOR.
 TOTAL MEMORY REQUESTED ON EACH PROCESSOR=     1000000 WORDS.
 TIMLIM=      525600.00 MINUTES, OR     365.0 DAYS.
 PARALL= F  BALTYP=  DLB     KDIAG=    0  COREFL= F
 MXSEQ2=     300 MXSEQ3=     150  mem10=         0

          ----------------
          PROPERTIES INPUT
          ----------------

     MOMENTS            FIELD           POTENTIAL          DENSITY
 IEMOM =       1   IEFLD =       0   IEPOT =       0   IEDEN =       0
 WHERE =COMASS     WHERE =NUCLEI     WHERE =NUCLEI     WHERE =NUCLEI  
 OUTPUT=BOTH       OUTPUT=BOTH       OUTPUT=BOTH       OUTPUT=BOTH    
 IEMINT=       0   IEFINT=       0                     IEDINT=       0
                                                       MORB  =       0
          EXTRAPOLATION IN EFFECT
          DIIS IN EFFECT
 ORBITAL PRINTING OPTION: NPREO=     1    49     2     1

     -------------------------------
     INTEGRAL TRANSFORMATION OPTIONS
     -------------------------------
     NWORD  =            0
     CUTOFF = 1.0E-09     MPTRAN =       0
     DIRTRF =       F     AOINTS =DUP     

          ----------------------
          INTEGRAL INPUT OPTIONS
          ----------------------
 NOPK  =       1 NORDER=       0 SCHWRZ=       F

   --- ENCODED Z MATRIX ---
 COORD  TYPE   I   J   K   L   M   N
    1      1    2   1
    2      1    3   1
    3      2    3   1   2

 THE DETERMINANT OF THE G MATRIX IS 10**(    -4)

 THE DETERMINANT OF THE G MATRIX IS 10**(    -4)
 * * * WARNING * * *
 YOUR B MATRIX HAS A SMALL DETERMINANT.
 THIS SUGGESTS YOU MAY HAVE BADLY CHOSEN COORDINATES.

     ------------------------------------------
     THE POINT GROUP IS C1 , NAXIS= 0, ORDER= 1
     ------------------------------------------

 -- VARIATIONAL SPACE WILL BE RESTRICTED TO PURE SPHERICAL HARMONICS ONLY --
 AFTER EXCLUDING CONTAMINANT COMBINATIONS FROM THE CARTESIAN GAUSSIAN BASIS
 SET, THE NUMBER OF SPHERICAL HARMONICS KEPT IN THE VARIATION SPACE IS   46

     DIMENSIONS OF THE SYMMETRY SUBSPACES ARE
 A   =   46

 ..... DONE SETTING UP THE RUN .....
 STEP CPU TIME =     0.04 TOTAL CPU TIME =          0.0 (      0.0 MIN)
 TOTAL WALL CLOCK TIME=          0.0 SECONDS, CPU UTILIZATION IS   100.00%

          ********************
          1 ELECTRON INTEGRALS
          ********************
 ...... END OF ONE-ELECTRON INTEGRALS ......
 STEP CPU TIME =     0.00 TOTAL CPU TIME =          0.0 (      0.0 MIN)
 TOTAL WALL CLOCK TIME=          0.0 SECONDS, CPU UTILIZATION IS   100.00%

          -------------
          GUESS OPTIONS
          -------------
          GUESS =HUCKEL            NORB  =       0          NORDER=       0
          MIX   =       F          PRTMO =       F          PUNMO =       F
          TOLZ  = 1.0E-08          TOLE  = 1.0E-05
          SYMDEN=       F          PURIFY=       F

 INITIAL GUESS ORBITALS GENERATED BY HUCKEL   ROUTINE.
 HUCKEL GUESS REQUIRES     21634 WORDS.

 STATISTICS FOR GENERATION OF SYMMETRY ORBITAL -Q- MATRIX
 NUMBER OF CARTESIAN ATOMIC ORBITALS=         49
 NUMBER OF SPHERICAL CONTAMINANTS DROPPED=     3
 NUMBER OF LINEARLY DEPENDENT MOS DROPPED=     0
 TOTAL NUMBER OF MOS IN VARIATION SPACE=      46

 SYMMETRIES FOR INITIAL GUESS ORBITALS FOLLOW.   BOTH SET(S).
    16 ORBITALS ARE OCCUPIED (    7 CORE ORBITALS).
     8=A        9=A       10=A       11=A       12=A       13=A       14=A   
    15=A       16=A       17=A       18=A       19=A       20=A       21=A   
    22=A       23=A       24=A       25=A       26=A   
 ...... END OF INITIAL ORBITAL SELECTION ......
 STEP CPU TIME =     0.01 TOTAL CPU TIME =          0.0 (      0.0 MIN)
 TOTAL WALL CLOCK TIME=          0.0 SECONDS, CPU UTILIZATION IS   100.00%

                    ----------------------
                    AO INTEGRAL TECHNOLOGY
                    ----------------------
     S,P,L SHELL ROTATED AXIS INTEGRALS, REPROGRAMMED BY
        KAZUYA ISHIMURA (IMS) AND JOSE SIERRA (SYNSTAR).
     S,P,D,L SHELL ROTATED AXIS INTEGRALS PROGRAMMED BY
        KAZUYA ISHIMURA (INSTITUTE FOR MOLECULAR SCIENCE).
     S,P,D,F,G SHELL TO TOTAL QUARTET ANGULAR MOMENTUM SUM 5,
        ERIC PROGRAM BY GRAHAM FLETCHER (ELORET AND NASA ADVANCED
        SUPERCOMPUTING DIVISION, AMES RESEARCH CENTER).
     S,P,D,F,G,L SHELL GENERAL RYS QUADRATURE PROGRAMMED BY
        MICHEL DUPUIS (PACIFIC NORTHWEST NATIONAL LABORATORY).

          --------------------
          2 ELECTRON INTEGRALS
          --------------------

 THE -PK- OPTION IS OFF, THE INTEGRALS ARE NOT IN SUPERMATRIX FORM.
 STORING   15000 INTEGRALS/RECORD ON DISK, USING 12 BYTES/INTEGRAL.
 TWO ELECTRON INTEGRAL EVALUATION REQUIRES   90606 WORDS OF MEMORY.
 II,JST,KST,LST =  1  1  1  1 NREC =         1 INTLOC =    1
 II,JST,KST,LST =  2  1  1  1 NREC =         1 INTLOC =    2
 II,JST,KST,LST =  3  1  1  1 NREC =         1 INTLOC =    7
 II,JST,KST,LST =  4  1  1  1 NREC =         1 INTLOC =   22
 II,JST,KST,LST =  5  1  1  1 NREC =         1 INTLOC =   56
 II,JST,KST,LST =  6  1  1  1 NREC =         1 INTLOC =  125
 II,JST,KST,LST =  7  1  1  1 NREC =         1 INTLOC =  329
 II,JST,KST,LST =  8  1  1  1 NREC =         1 INTLOC =  776
 II,JST,KST,LST =  9  1  1  1 NREC =         1 INTLOC = 2864
 II,JST,KST,LST = 10  1  1  1 NREC =         1 INTLOC = 4925
 II,JST,KST,LST = 11  1  1  1 NREC =         1 INTLOC = 7586
 II,JST,KST,LST = 12  1  1  1 NREC =         1 INTLOC =10702
 II,JST,KST,LST = 13  1  1  1 NREC =         2 INTLOC = 6603
 II,JST,KST,LST = 14  1  1  1 NREC =         3 INTLOC = 6866
 II,JST,KST,LST = 15  1  1  1 NREC =         6 INTLOC = 8817
 II,JST,KST,LST = 16  1  1  1 NREC =         7 INTLOC =  937
 II,JST,KST,LST = 17  1  1  1 NREC =         7 INTLOC =12330
 II,JST,KST,LST = 18  1  1  1 NREC =         8 INTLOC =10691
 II,JST,KST,LST = 19  1  1  1 NREC =        11 INTLOC = 4771
 II,JST,KST,LST = 20  1  1  1 NREC =        14 INTLOC =11632
 TOTAL NUMBER OF NONZERO TWO-ELECTRON INTEGRALS =              335954
         23 INTEGRAL RECORDS WERE STORED ON DISK FILE  8.
  ...... END OF TWO-ELECTRON INTEGRALS .....
 STEP CPU TIME =     0.10 TOTAL CPU TIME =          0.2 (      0.0 MIN)
 TOTAL WALL CLOCK TIME=          0.2 SECONDS, CPU UTILIZATION IS    93.75%

          --------------------------
               R-PBE SCF CALCULATION
          --------------------------

     NUCLEAR ENERGY =        96.8891849703
     MAXIT =   30     NPUNCH=    2
     EXTRAP=T  DAMP=F  SHIFT=F  RSTRCT=F  DIIS=T  DEM=F  SOSCF=F
         DENSITY MATRIX CONVERGENCE THRESHOLD=  1.00E-05
     COARSE -> FINE DFT GRID SWITCH THRESHOLD=  3.00E-04 (SWITCH IN $DFT)
                   HF -> DFT SWITCH THRESHOLD=  5.00E-03 (SWOFF IN $DFT)
     MEMORY REQUIRED FOR RHF ITERS=    183108 WORDS.

 DFT CODE IS SWITCHING FROM THE FINE GRID NRAD= 96,  NLEB=  302
                      TO THE COARSE GRID NRAD0= 24, NLEB0=  110

     EXCHANGE FUNCTIONAL   =PBE       
     CORRELATION FUNCTIONAL=PBE       
     DFT THRESHOLD         =.460E-07
     GRID CHANGE THRESHOLD =.300E-03
 FOR AN EULER-MACLAURIN QUADRATURE USING  96 RADIAL POINTS:
 SMALLEST GAUSSIAN PRIMITIVE EXPONENT=        0.1001940000 OF TYPE -P-
 ON ATOM NUMBER   1 HAS RADIAL NORMALIZATION=  1.000000
  LARGEST GAUSSIAN PRIMITIVE EXPONENT=    49299.4000000000 OF TYPE -S-
 ON ATOM NUMBER   1 HAS RADIAL NORMALIZATION=  1.000000
 DFT IS SWITCHED OFF, PERFORMING PURE SCF UNTIL SWOFF THRESHOLD IS REACHED.

 ITER EX DEM     TOTAL ENERGY        E CHANGE  DENSITY CHANGE    DIIS ERROR
   1  0  0     -546.0506752000  -546.0506752000   0.641489846   0.889303425
          * * *   INITIATING DIIS PROCEDURE   * * *
   2  1  0     -546.6619024631    -0.6112272630   0.633778507   0.312682516
   3  2  0     -546.7151420261    -0.0532395630   0.238886958   0.272304642
   4  3  0     -547.0385250350    -0.3233830089   0.032856031   0.009095345
   5  4  0     -547.0391928451    -0.0006678101   0.005480631   0.004125378
   6  5  0     -547.0392684669    -0.0000756218   0.001202293   0.000726550
 CONVERGED TO SWOFF, SO DFT CALCULATION IS NOW SWITCHED ON.
          * * *   INITIATING DIIS PROCEDURE   * * *
   7  6  0     -548.1877320204    -1.1484635535   0.433700326   0.104576573
   8  7  0     -548.1783461371     0.0093858833   0.377385346   0.127788080
   9  8  0     -548.1888578983    -0.0105117612   0.121227494   0.119505306
  10  9  0     -548.2294362670    -0.0405783687   0.028960505   0.012909441
  11 10  0     -548.2300554175    -0.0006191505   0.001398134   0.000968162
  12 11  0     -548.2300587576    -0.0000033401   0.000565230   0.000365737
  13 12  0     -548.2300591425    -0.0000003849   0.000200304   0.000070528
 DFT CODE IS SWITCHING BACK TO THE FINE GRID
          * * *   INITIATING DIIS PROCEDURE   * * *
  14 13  0     -548.2308014568    -0.0007423142   0.011966047   0.009633744
  15 14  0     -548.2308569668    -0.0000555100   0.022441928   0.006619274
  16 15  0     -548.2306232793     0.0002336875   0.014150624   0.010285808
  17 16  0     -548.2308433100    -0.0002200308   0.006461172   0.008973569
  18 17  0     -548.2309908325    -0.0001475224   0.000291205   0.000389783
  19 18  0     -548.2309912755    -0.0000004431   0.000063708   0.000020668
  20 19  0     -548.2309912776    -0.0000000021   0.000016469   0.000006062
  21 20  0     -548.2309912779    -0.0000000003   0.000001669   0.000000994
  22 21  0     -548.2309912779     0.0000000000   0.000000128   0.000000085

          -----------------
          DENSITY CONVERGED
          -----------------
     TIME TO FORM FOCK OPERATORS=       2.5 SECONDS (       0.1 SEC/ITER)
     TIME TO SOLVE SCF EQUATIONS=       0.0 SECONDS (       0.0 SEC/ITER)

 FINAL R-PBE ENERGY IS     -548.2309912779 AFTER  22 ITERATIONS
 DFT EXCHANGE + CORRELATION ENERGY =       -42.3450337756
 TOTAL ELECTRON NUMBER             =        31.9999988785

          ------------
          EIGENVECTORS
          ------------

                      1          2          3          4          5
                  -88.2315   -18.8174   -18.8174    -7.8453    -5.8716
                     A          A          A          A          A   
    1  S  1  S    0.997760  -0.000005  -0.000000  -0.308386  -0.000000
    2  S  1  S    0.008244  -0.000055  -0.000000   1.031746   0.000000
    3  S  1  S   -0.002964  -0.000380  -0.000000   0.027788   0.000000
    4  S  1  S    0.000854   0.007901   0.000008  -0.005657  -0.000000
    5  S  1  X   -0.000000   0.000000  -0.000079  -0.000000   0.994636
    6  S  1  Y    0.000133  -0.000159  -0.000000   0.010377  -0.000001
    7  S  1  Z    0.000000   0.000000   0.000000   0.000000   0.000000
    8  S  1  X    0.000000  -0.000002   0.001641  -0.000000   0.017258
    9  S  1  Y   -0.000329   0.001535   0.000002   0.001110  -0.000000
   10  S  1  Z    0.000000   0.000000   0.000000   0.000000   0.000000
   11  S  1  X    0.000000  -0.000004   0.003810  -0.000000  -0.002521
   12  S  1  Y   -0.000003   0.003097   0.000003  -0.000175   0.000000
   13  S  1  Z    0.000000   0.000000   0.000000   0.000000   0.000000
   14  S  1 XX   -0.000213   0.000665   0.000001   0.000711  -0.000000
   15  S  1 YY    0.000045   0.000099   0.000000  -0.000271  -0.000000
   16  S  1 ZZ    0.000168  -0.000764  -0.000001  -0.000441   0.000000
   17  S  1 XY    0.000000  -0.000000   0.000392  -0.000000   0.001327
   18  S  1 XZ    0.000000   0.000000   0.000000   0.000000   0.000000
   19  S  1 YZ    0.000000   0.000000   0.000000   0.000000   0.000000
   20  O  2  S   -0.000012   0.701618   0.703032  -0.000005  -0.000178
   21  O  2  S   -0.000151   0.023951   0.023515  -0.000048  -0.000078
   22  O  2  S    0.000336  -0.012084  -0.010640  -0.000379  -0.000805
   23  O  2  X   -0.000019  -0.000904  -0.000766   0.000207  -0.000102
   24  O  2  Y   -0.000008  -0.000336  -0.000546   0.000107  -0.000036
   25  O  2  Z    0.000000   0.000000   0.000000   0.000000   0.000000
   26  O  2  X   -0.000357   0.003097   0.001571   0.000811   0.000966
   27  O  2  Y   -0.000214   0.000864   0.001576   0.000537   0.000632
   28  O  2  Z    0.000000   0.000000   0.000000   0.000000   0.000000
   29  O  2 XX    0.000150  -0.000325  -0.000097  -0.000129   0.000334
   30  O  2 YY   -0.000026   0.000122  -0.000050   0.000007  -0.000075
   31  O  2 ZZ   -0.000125   0.000202   0.000147   0.000122  -0.000260
   32  O  2 XY    0.000187  -0.000233  -0.000215  -0.000190   0.000366
   33  O  2 XZ    0.000000   0.000000   0.000000   0.000000   0.000000
   34  O  2 YZ    0.000000   0.000000   0.000000   0.000000   0.000000
   35  O  3  S   -0.000012   0.703048  -0.701602  -0.000005   0.000178
   36  O  3  S   -0.000151   0.023999  -0.023466  -0.000048   0.000078
   37  O  3  S    0.000336  -0.012106   0.010615  -0.000379   0.000805
   38  O  3  X    0.000019   0.000905  -0.000764  -0.000207  -0.000102
   39  O  3  Y   -0.000008  -0.000338   0.000545   0.000107   0.000036
   40  O  3  Z    0.000000   0.000000   0.000000   0.000000   0.000000
   41  O  3  X    0.000357  -0.003100   0.001565  -0.000811   0.000966
   42  O  3  Y   -0.000214   0.000867  -0.001575   0.000537  -0.000632
   43  O  3  Z    0.000000   0.000000   0.000000   0.000000   0.000000
   44  O  3 XX    0.000150  -0.000325   0.000096  -0.000129  -0.000334
   45  O  3 YY   -0.000026   0.000122   0.000051   0.000007   0.000075
   46  O  3 ZZ   -0.000125   0.000203  -0.000147   0.000122   0.000260
   47  O  3 XY   -0.000187   0.000233  -0.000214   0.000190   0.000366
   48  O  3 XZ    0.000000   0.000000   0.000000   0.000000   0.000000
   49  O  3 YZ    0.000000   0.000000   0.000000   0.000000   0.000000

                      6          7          8          9         10
                   -5.8700    -5.8660    -0.9928    -0.9266    -0.6155
                     A          A          A          A          A   
    1  S  1  S    0.000000   0.003242   0.047977  -0.000000   0.069786
    2  S  1  S    0.000000  -0.011146  -0.296020   0.000000  -0.446395
    3  S  1  S    0.000000  -0.000141   0.418037  -0.000001   0.685957
    4  S  1  S    0.000000   0.001036   0.072096   0.000005   0.250850
    5  S  1  X    0.000000   0.000001  -0.000000   0.108849   0.000000
    6  S  1  Y    0.000000   0.994899  -0.052303  -0.000000   0.033178
    7  S  1  Z    0.994987   0.000000   0.000000   0.000000   0.000000
    8  S  1  X    0.000000   0.000000   0.000001  -0.246324  -0.000000
    9  S  1  Y    0.000000   0.016012   0.115320   0.000001  -0.076184
   10  S  1  Z    0.015847   0.000000   0.000000   0.000000   0.000000
   11  S  1  X    0.000000  -0.000000   0.000003   0.006715  -0.000002
   12  S  1  Y    0.000000  -0.002704  -0.014512   0.000002  -0.037549
   13  S  1  Z   -0.003076   0.000000   0.000000   0.000000   0.000000
   14  S  1 XX    0.000000  -0.000154   0.039755   0.000001  -0.012528
   15  S  1 YY    0.000000   0.000715  -0.008385  -0.000000  -0.003218
   16  S  1 ZZ    0.000000  -0.000561  -0.031369  -0.000001   0.015746
   17  S  1 XY    0.000000   0.000000   0.000001  -0.065050  -0.000000
   18  S  1 XZ   -0.000000   0.000000   0.000000   0.000000   0.000000
   19  S  1 YZ    0.000610   0.000000   0.000000   0.000000   0.000000
   20  O  2  S    0.000000  -0.000110  -0.138174   0.163958   0.111955
   21  O  2  S    0.000000  -0.000011   0.281944  -0.341065  -0.238969
   22  O  2  S    0.000000  -0.000437   0.266185  -0.319191  -0.301233
   23  O  2  X    0.000000  -0.000103  -0.090811   0.078687  -0.112932
   24  O  2  Y    0.000000  -0.000099  -0.048387   0.049413  -0.075894
   25  O  2  Z   -0.000061   0.000000   0.000000   0.000000   0.000000
   26  O  2  X    0.000000   0.000622  -0.036858   0.022357  -0.053498
   27  O  2  Y    0.000000   0.000089  -0.017820   0.015782  -0.031040
   28  O  2  Z   -0.000123   0.000000   0.000000   0.000000   0.000000
   29  O  2 XX    0.000000   0.000121   0.008481  -0.004414   0.003745
   30  O  2 YY    0.000000   0.000072  -0.003709   0.001919   0.000897
   31  O  2 ZZ    0.000000  -0.000193  -0.004772   0.002495  -0.004642
   32  O  2 XY    0.000000   0.000395   0.009029  -0.007489   0.005583
   33  O  2 XZ    0.000144   0.000000   0.000000   0.000000   0.000000
   34  O  2 YZ    0.000071   0.000000   0.000000   0.000000   0.000000
   35  O  3  S    0.000000  -0.000110  -0.138174  -0.163957   0.111955
   36  O  3  S    0.000000  -0.000011   0.281943   0.341066  -0.238970
   37  O  3  S    0.000000  -0.000437   0.266191   0.319183  -0.301235
   38  O  3  X    0.000000   0.000103   0.090811   0.078687   0.112932
   39  O  3  Y    0.000000  -0.000099  -0.048386  -0.049412  -0.075894
   40  O  3  Z   -0.000061   0.000000   0.000000   0.000000   0.000000
   41  O  3  X    0.000000  -0.000622   0.036860   0.022354   0.053498
   42  O  3  Y    0.000000   0.000089  -0.017821  -0.015781  -0.031040
   43  O  3  Z   -0.000123   0.000000   0.000000   0.000000   0.000000
   44  O  3 XX    0.000000   0.000121   0.008481   0.004413   0.003745
   45  O  3 YY    0.000000   0.000072  -0.003709  -0.001919   0.000897
   46  O  3 ZZ    0.000000  -0.000193  -0.004773  -0.002495  -0.004642
   47  O  3 XY    0.000000  -0.000395  -0.009029  -0.007489  -0.005583
   48  O  3 XZ   -0.000144   0.000000   0.000000   0.000000   0.000000
   49  O  3 YZ    0.000071   0.000000   0.000000   0.000000   0.000000

                     11         12         13         14         15
                   -0.4391    -0.4178    -0.4168    -0.3203    -0.3008
                     A          A          A          A          A   
    1  S  1  S    0.000000   0.000000  -0.010684   0.000000   0.000000
    2  S  1  S   -0.000000   0.000000   0.067709   0.000000  -0.000001
    3  S  1  S   -0.000000   0.000000  -0.078357   0.000000   0.000000
    4  S  1  S   -0.000000   0.000000  -0.181345   0.000000   0.000005
    5  S  1  X   -0.183878   0.000000  -0.000000   0.000000  -0.017477
    6  S  1  Y    0.000000   0.000000  -0.213385   0.000000   0.000001
    7  S  1  Z    0.000000  -0.218159   0.000000  -0.000000   0.000000
    8  S  1  X    0.497836   0.000000   0.000000   0.000000   0.045807
    9  S  1  Y   -0.000000   0.000000   0.573573   0.000000  -0.000002
   10  S  1  Z    0.000000   0.590701   0.000000   0.000000   0.000000
   11  S  1  X    0.010383   0.000000   0.000001   0.000000   0.112069
   12  S  1  Y    0.000000   0.000000   0.114234   0.000000   0.000001
   13  S  1  Z    0.000000   0.161240   0.000000   0.000000   0.000000
   14  S  1 XX   -0.000000   0.000000  -0.024838   0.000000  -0.000001
   15  S  1 YY    0.000000   0.000000   0.046389   0.000000   0.000000
   16  S  1 ZZ    0.000000   0.000000  -0.021550   0.000000   0.000000
   17  S  1 XY    0.047166   0.000000   0.000000   0.000000  -0.097421
   18  S  1 XZ    0.000000  -0.000000   0.000000   0.105606   0.000000
   19  S  1 YZ    0.000000   0.042148   0.000000  -0.000000   0.000000
   20  O  2  S    0.068704   0.000000   0.028925   0.000000   0.001459
   21  O  2  S   -0.144598   0.000000  -0.062305   0.000000  -0.002667
   22  O  2  S   -0.228916   0.000000  -0.093168   0.000000  -0.035900
   23  O  2  X   -0.281059   0.000000  -0.285752   0.000000   0.331988
   24  O  2  Y   -0.232478   0.000000   0.110854   0.000000  -0.336169
   25  O  2  Z    0.000000   0.295457   0.000000   0.468332   0.000000
   26  O  2  X   -0.140382   0.000000  -0.174088   0.000000   0.221918
   27  O  2  Y   -0.128281   0.000000   0.074791   0.000000  -0.234529
   28  O  2  Z    0.000000   0.180461   0.000000   0.332818   0.000000
   29  O  2 XX    0.004560   0.000000   0.017835   0.000000  -0.013281
   30  O  2 YY    0.003119   0.000000  -0.012346   0.000000   0.013810
   31  O  2 ZZ   -0.007679   0.000000  -0.005488   0.000000  -0.000529
   32  O  2 XY    0.012817   0.000000  -0.001013   0.000000   0.007713
   33  O  2 XZ    0.000000  -0.016609   0.000000  -0.015496   0.000000
   34  O  2 YZ    0.000000  -0.009096   0.000000  -0.009877   0.000000
   35  O  3  S   -0.068704   0.000000   0.028925   0.000000  -0.001459
   36  O  3  S    0.144597   0.000000  -0.062306   0.000000   0.002667
   37  O  3  S    0.228917   0.000000  -0.093167   0.000000   0.035897
   38  O  3  X   -0.281059   0.000000   0.285753   0.000000   0.331986
   39  O  3  Y    0.232478   0.000000   0.110854   0.000000   0.336174
   40  O  3  Z    0.000000   0.295458   0.000000  -0.468332   0.000000
   41  O  3  X   -0.140381   0.000000   0.174089   0.000000   0.221916
   42  O  3  Y    0.128281   0.000000   0.074791   0.000000   0.234533
   43  O  3  Z    0.000000   0.180462   0.000000  -0.332818   0.000000
   44  O  3 XX   -0.004560   0.000000   0.017835   0.000000   0.013281
   45  O  3 YY   -0.003119   0.000000  -0.012346   0.000000  -0.013810
   46  O  3 ZZ    0.007679   0.000000  -0.005488   0.000000   0.000529
   47  O  3 XY    0.012817   0.000000   0.001013   0.000000   0.007713
   48  O  3 XZ    0.000000   0.016609   0.000000  -0.015496   0.000000
   49  O  3 YZ    0.000000  -0.009096   0.000000   0.009877   0.000000

                     16         17         18         19         20
                   -0.2889    -0.1991    -0.0594    -0.0106     0.2116
                     A          A          A          A          A   
    1  S  1  S    0.019375   0.000000   0.029022   0.000000   0.000000
    2  S  1  S   -0.125476   0.000000  -0.195268  -0.000001   0.000000
    3  S  1  S    0.154991   0.000000   0.306413   0.000002   0.000000
    4  S  1  S    0.364341   0.000000   0.538749   0.000001   0.000000
    5  S  1  X    0.000000   0.000000   0.000001  -0.202515   0.000000
    6  S  1  Y    0.088009   0.000000  -0.192985  -0.000001   0.000000
    7  S  1  Z    0.000000  -0.221591   0.000000   0.000000   0.247892
    8  S  1  X   -0.000000   0.000000  -0.000002   0.628056   0.000000
    9  S  1  Y   -0.242399   0.000000   0.602479   0.000003   0.000000
   10  S  1  Z    0.000000   0.652117   0.000000   0.000000  -0.981560
   11  S  1  X   -0.000001   0.000000  -0.000012   0.850848   0.000000
   12  S  1  Y   -0.008155   0.000000   0.531204   0.000004   0.000000
   13  S  1  Z    0.000000   0.275664   0.000000   0.000000   1.310258
   14  S  1 XX   -0.131738   0.000000  -0.127380  -0.000003   0.000000
   15  S  1 YY    0.079414   0.000000  -0.025913  -0.000000   0.000000
   16  S  1 ZZ    0.052324   0.000000   0.153292   0.000003   0.000000
   17  S  1 XY    0.000001   0.000000   0.000002  -0.200793   0.000000
   18  S  1 XZ    0.000000  -0.000000   0.000000   0.000000   0.000000
   19  S  1 YZ    0.000000  -0.052940   0.000000   0.000000  -0.096504
   20  O  2  S   -0.000416   0.000000   0.047191   0.052406   0.000000
   21  O  2  S    0.002260   0.000000  -0.101559  -0.103994   0.000000
   22  O  2  S   -0.039669   0.000000  -0.337629  -0.458955   0.000000
   23  O  2  X    0.056180   0.000000   0.382852   0.119247   0.000000
   24  O  2  Y    0.443021   0.000000  -0.024375   0.284498   0.000000
   25  O  2  Z    0.000000  -0.392994   0.000000   0.000000  -0.048879
   26  O  2  X    0.036599   0.000000   0.364479   0.133518   0.000000
   27  O  2  Y    0.318506   0.000000  -0.022870   0.263739   0.000000
   28  O  2  Z    0.000000  -0.312007   0.000000   0.000000  -0.129924
   29  O  2 XX    0.003851   0.000000   0.003099  -0.002521   0.000000
   30  O  2 YY   -0.007579   0.000000  -0.005619   0.005824   0.000000
   31  O  2 ZZ    0.003728   0.000000   0.002519  -0.003302   0.000000
   32  O  2 XY   -0.011294   0.000000  -0.002709   0.004821   0.000000
   33  O  2 XZ    0.000000   0.002548   0.000000   0.000000   0.015753
   34  O  2 YZ    0.000000   0.000500   0.000000   0.000000   0.006906
   35  O  3  S   -0.000416   0.000000   0.047192  -0.052404   0.000000
   36  O  3  S    0.002259   0.000000  -0.101565   0.103984   0.000000
   37  O  3  S   -0.039669   0.000000  -0.337637   0.458959   0.000000
   38  O  3  X   -0.056184   0.000000  -0.382855   0.119237   0.000000
   39  O  3  Y    0.443016   0.000000  -0.024371  -0.284499   0.000000
   40  O  3  Z    0.000000  -0.392994   0.000000   0.000000  -0.048879
   41  O  3  X   -0.036601   0.000000  -0.364479   0.133517   0.000000
   42  O  3  Y    0.318503   0.000000  -0.022865  -0.263741   0.000000
   43  O  3  Z    0.000000  -0.312006   0.000000   0.000000  -0.129924
   44  O  3 XX    0.003851   0.000000   0.003099   0.002522   0.000000
   45  O  3 YY   -0.007579   0.000000  -0.005619  -0.005824   0.000000
   46  O  3 ZZ    0.003727   0.000000   0.002519   0.003302   0.000000
   47  O  3 XY    0.011293   0.000000   0.002709   0.004820   0.000000
   48  O  3 XZ    0.000000  -0.002548   0.000000   0.000000  -0.015753
   49  O  3 YZ    0.000000   0.000500   0.000000   0.000000   0.006906

                     21         22         23         24         25
                    0.2201     0.2455     0.2582     0.5002     0.5010
                     A          A          A          A          A   
    1  S  1  S    0.026291  -0.061900  -0.000002   0.000000   0.000000
    2  S  1  S   -0.193055   0.455658   0.000016   0.000000   0.000000
    3  S  1  S    0.693217  -1.781047  -0.000062   0.000000   0.000000
    4  S  1  S   -0.691446   2.132075   0.000066   0.000000   0.000000
    5  S  1  X   -0.000001  -0.000011   0.276832   0.000000   0.000000
    6  S  1  Y    0.243151   0.074812   0.000003   0.000000   0.000000
    7  S  1  Z    0.000000   0.000000   0.000000  -0.000001   0.026702
    8  S  1  X    0.000002   0.000042  -1.067857   0.000000   0.000000
    9  S  1  Y   -0.954929  -0.281500  -0.000014   0.000000   0.000000
   10  S  1  Z    0.000000   0.000000   0.000000   0.000003  -0.113066
   11  S  1  X   -0.000002  -0.000049   1.445922   0.000000   0.000000
   12  S  1  Y    1.183900   0.726304   0.000026   0.000000   0.000000
   13  S  1  Z    0.000000   0.000000   0.000000  -0.000003   0.094798
   14  S  1 XX    0.129138   0.012318  -0.000003   0.000000   0.000000
   15  S  1 YY   -0.104633  -0.072453  -0.000003   0.000000   0.000000
   16  S  1 ZZ   -0.024505   0.060135   0.000005   0.000000   0.000000
   17  S  1 XY    0.000000  -0.000002   0.139092   0.000000   0.000000
   18  S  1 XZ    0.000000   0.000000   0.000000   0.878338   0.000026
   19  S  1 YZ    0.000000   0.000000   0.000000  -0.000028   0.938006
   20  O  2  S   -0.001218   0.024384   0.008066   0.000000   0.000000
   21  O  2  S    0.029402  -0.020503   0.040501   0.000000   0.000000
   22  O  2  S   -0.094939  -0.501647  -0.423024   0.000000   0.000000
   23  O  2  X   -0.059802  -0.136140  -0.226777   0.000000   0.000000
   24  O  2  Y   -0.028568  -0.127535  -0.101990   0.000000   0.000000
   25  O  2  Z    0.000000   0.000000   0.000000  -0.335929  -0.232493
   26  O  2  X   -0.005489   0.159051  -0.082689   0.000000   0.000000
   27  O  2  Y   -0.115266   0.008311   0.022194   0.000000   0.000000
   28  O  2  Z    0.000000   0.000000   0.000000   0.127322   0.096015
   29  O  2 XX   -0.016084  -0.029822  -0.014338   0.000000   0.000000
   30  O  2 YY    0.013749   0.006645  -0.004823   0.000000   0.000000
   31  O  2 ZZ    0.002335   0.023176   0.019161   0.000000   0.000000
   32  O  2 XY    0.006905  -0.027679  -0.032148   0.000000   0.000000
   33  O  2 XZ    0.000000   0.000000   0.000000  -0.044556  -0.040303
   34  O  2 YZ    0.000000   0.000000   0.000000  -0.040063   0.003040
   35  O  3  S   -0.001218   0.024385  -0.008064   0.000000   0.000000
   36  O  3  S    0.029400  -0.020510  -0.040513   0.000000   0.000000
   37  O  3  S   -0.094938  -0.501663   0.423006   0.000000   0.000000
   38  O  3  X    0.059802   0.136153  -0.226773   0.000000   0.000000
   39  O  3  Y   -0.028569  -0.127543   0.101980   0.000000   0.000000
   40  O  3  Z    0.000000   0.000000   0.000000   0.335942  -0.232474
   41  O  3  X    0.005491  -0.159036  -0.082689   0.000000   0.000000
   42  O  3  Y   -0.115266   0.008309  -0.022197   0.000000   0.000000
   43  O  3  Z    0.000000   0.000000   0.000000  -0.127328   0.096008
   44  O  3 XX   -0.016084  -0.029823   0.014336   0.000000   0.000000
   45  O  3 YY    0.013749   0.006645   0.004824   0.000000   0.000000
   46  O  3 ZZ    0.002335   0.023177  -0.019160   0.000000   0.000000
   47  O  3 XY   -0.006905   0.027681  -0.032146   0.000000   0.000000
   48  O  3 XZ    0.000000   0.000000   0.000000  -0.044559   0.040300
   49  O  3 YZ    0.000000   0.000000   0.000000   0.040063   0.003042

                     26         27         28         29         30
                    0.5068     0.6450     0.6617     0.7925     0.8231
                     A          A          A          A          A   
    1  S  1  S   -0.000709   0.009904   0.000000   0.000000   0.007077
    2  S  1  S    0.006047  -0.076746  -0.000000   0.000000  -0.060225
    3  S  1  S   -0.038509   0.161924   0.000001   0.000000   0.298289
    4  S  1  S    0.052311   0.884898  -0.000009   0.000000   0.018650
    5  S  1  X   -0.000000  -0.000000  -0.137777   0.000000   0.000000
    6  S  1  Y    0.030229  -0.085847   0.000000   0.000000  -0.019245
    7  S  1  Z    0.000000   0.000000   0.000000  -0.000000   0.000000
    8  S  1  X    0.000001   0.000003   0.709171   0.000000  -0.000001
    9  S  1  Y   -0.131289   0.426002  -0.000002   0.000000   0.132196
   10  S  1  Z    0.000000   0.000000   0.000000   0.000000   0.000000
   11  S  1  X   -0.000000   0.000005   0.228007   0.000000   0.000002
   12  S  1  Y    0.127487   0.192198  -0.000003   0.000000  -0.495251
   13  S  1  Z    0.000000   0.000000   0.000000  -0.000000   0.000000
   14  S  1 XX   -0.265659   0.734659  -0.000002   0.000000   0.324031
   15  S  1 YY    0.874911  -0.038368  -0.000000   0.000000  -0.443533
   16  S  1 ZZ   -0.609252  -0.696292   0.000002   0.000000   0.119502
   17  S  1 XY    0.000001   0.000003   0.783565   0.000000  -0.000002
   18  S  1 XZ    0.000000   0.000000   0.000000   0.495531   0.000000
   19  S  1 YZ    0.000000   0.000000   0.000000  -0.000000   0.000000
   20  O  2  S    0.003881   0.072854   0.071237   0.000000  -0.001033
   21  O  2  S   -0.022409  -0.274584  -0.262410   0.000000   0.055757
   22  O  2  S   -0.009654  -0.283301  -0.246815   0.000000  -0.039218
   23  O  2  X    0.146017  -0.238241  -0.080274   0.000000   0.120762
   24  O  2  Y   -0.261010   0.074368  -0.228147   0.000000  -0.547905
   25  O  2  Z    0.000000   0.000000   0.000000   0.560710   0.000000
   26  O  2  X   -0.066002   0.757790   0.655118   0.000000  -0.101164
   27  O  2  Y    0.106392   0.245419   0.528986   0.000000   0.871126
   28  O  2  Z    0.000000   0.000000   0.000000  -0.772177   0.000000
   29  O  2 XX    0.033035  -0.004953   0.039146   0.000000  -0.022183
   30  O  2 YY   -0.018293   0.024144  -0.027616   0.000000   0.032889
   31  O  2 ZZ   -0.014742  -0.019191  -0.011530   0.000000  -0.010706
   32  O  2 XY   -0.033679   0.018772   0.017023   0.000000   0.051007
   33  O  2 XZ    0.000000   0.000000   0.000000  -0.046607   0.000000
   34  O  2 YZ    0.000000   0.000000   0.000000  -0.034034   0.000000
   35  O  3  S    0.003881   0.072854  -0.071237   0.000000  -0.001034
   36  O  3  S   -0.022410  -0.274589   0.262408   0.000000   0.055762
   37  O  3  S   -0.009653  -0.283288   0.246825   0.000000  -0.039222
   38  O  3  X   -0.146017   0.238233  -0.080280   0.000000  -0.120757
   39  O  3  Y   -0.261010   0.074367   0.228150   0.000000  -0.547896
   40  O  3  Z    0.000000   0.000000   0.000000  -0.560710   0.000000
   41  O  3  X    0.066003  -0.757776   0.655129   0.000000   0.101156
   42  O  3  Y    0.106392   0.245417  -0.528992   0.000000   0.871115
   43  O  3  Z    0.000000   0.000000   0.000000   0.772177   0.000000
   44  O  3 XX    0.033035  -0.004953  -0.039146   0.000000  -0.022183
   45  O  3 YY   -0.018293   0.024144   0.027616   0.000000   0.032889
   46  O  3 ZZ   -0.014742  -0.019191   0.011530   0.000000  -0.010706
   47  O  3 XY    0.033679  -0.018773   0.017023   0.000000  -0.051007
   48  O  3 XZ    0.000000   0.000000   0.000000  -0.046607   0.000000
   49  O  3 YZ    0.000000   0.000000   0.000000   0.034034   0.000000

                     31         32         33         34         35
                    0.8380     0.8422     0.8495     0.9078     1.3945
                     A          A          A          A          A   
    1  S  1  S   -0.009750   0.000000   0.000000  -0.000000   0.000000
    2  S  1  S    0.089883  -0.000003   0.000000   0.000000  -0.000001
    3  S  1  S   -0.575391   0.000017   0.000000   0.000000   0.000007
    4  S  1  S    0.228736  -0.000007   0.000000  -0.000005  -0.000009
    5  S  1  X   -0.000001  -0.026926   0.000000  -0.006786  -0.069310
    6  S  1  Y   -0.009483   0.000000   0.000000   0.000000  -0.000000
    7  S  1  Z    0.000000   0.000000   0.000217   0.000000   0.000000
    8  S  1  X    0.000003   0.137201   0.000000  -0.193021   0.485048
    9  S  1  Y   -0.083516   0.000003   0.000000  -0.000001   0.000001
   10  S  1  Z    0.000000   0.000000  -0.008751   0.000000   0.000000
   11  S  1  X   -0.000006  -0.284148   0.000000   0.376295   0.938927
   12  S  1  Y   -0.000753  -0.000005   0.000000  -0.000002  -0.000004
   13  S  1  Z    0.000000   0.000000  -0.563877   0.000000   0.000000
   14  S  1 XX    0.640428  -0.000013   0.000000  -0.000001  -0.000003
   15  S  1 YY   -0.204370   0.000001   0.000000   0.000000   0.000000
   16  S  1 ZZ   -0.436058   0.000012   0.000000   0.000001   0.000003
   17  S  1 XY    0.000007   0.339566   0.000000   0.649103   0.292290
   18  S  1 XZ    0.000000   0.000000  -0.000000   0.000000   0.000000
   19  S  1 YZ    0.000000   0.000000  -0.348964   0.000000   0.000000
   20  O  2  S    0.007689  -0.000127   0.000000   0.015993  -0.078244
   21  O  2  S   -0.009272   0.056033   0.000000  -0.021886   1.217607
   22  O  2  S   -0.098230  -0.056370   0.000000  -0.209208  -1.842811
   23  O  2  X    0.535313  -0.277322   0.000000   0.581789  -0.008203
   24  O  2  Y    0.221168   0.541793   0.000000   0.211773  -0.101308
   25  O  2  Z    0.000000   0.000000  -0.601148   0.000000   0.000000
   26  O  2  X   -0.583195   0.524949   0.000000  -0.553386   0.343633
   27  O  2  Y   -0.119862  -0.640036   0.000000  -0.203461   0.436644
   28  O  2  Z    0.000000   0.000000   0.897315   0.000000   0.000000
   29  O  2 XX   -0.050452   0.042670   0.000000   0.018456   0.075872
   30  O  2 YY    0.051880  -0.029844   0.000000  -0.039206  -0.001878
   31  O  2 ZZ   -0.001427  -0.012826   0.000000   0.020751  -0.073993
   32  O  2 XY    0.001495  -0.002732   0.000000  -0.020688   0.116965
   33  O  2 XZ    0.000000   0.000000   0.043429   0.000000   0.000000
   34  O  2 YZ    0.000000   0.000000   0.014195   0.000000   0.000000
   35  O  3  S    0.007690   0.000126   0.000000  -0.015991   0.078243
   36  O  3  S   -0.009284  -0.056020   0.000000   0.021871  -1.217604
   37  O  3  S   -0.098219   0.056364   0.000000   0.209227   1.842815
   38  O  3  X   -0.535322  -0.277302   0.000000   0.581791  -0.008201
   39  O  3  Y    0.221144  -0.541811   0.000000  -0.211774   0.101306
   40  O  3  Z    0.000000   0.000000  -0.601148   0.000000   0.000000
   41  O  3  X    0.583214   0.524927   0.000000  -0.553386   0.343634
   42  O  3  Y   -0.119833   0.640055   0.000000   0.203460  -0.436643
   43  O  3  Z    0.000000   0.000000   0.897315   0.000000   0.000000
   44  O  3 XX   -0.050454  -0.042668   0.000000  -0.018456  -0.075871
   45  O  3 YY    0.051881   0.029842   0.000000   0.039206   0.001878
   46  O  3 ZZ   -0.001427   0.012826   0.000000  -0.020751   0.073993
   47  O  3 XY   -0.001496  -0.002733   0.000000  -0.020688   0.116964
   48  O  3 XZ    0.000000   0.000000  -0.043430   0.000000   0.000000
   49  O  3 YZ    0.000000   0.000000   0.014195   0.000000   0.000000

                     36         37         38         39         40
                    1.5076     2.0739     2.0743     2.0776     2.0857
                     A          A          A          A          A   
    1  S  1  S   -0.000958   0.000000  -0.000000   0.000000  -0.000897
    2  S  1  S    0.014483   0.000000   0.000000   0.000000   0.007520
    3  S  1  S    0.245280   0.000000  -0.000000   0.000000  -0.030198
    4  S  1  S   -1.848535   0.000000   0.000001   0.000000   0.005733
    5  S  1  X   -0.000000   0.000000  -0.005818   0.000000   0.000000
    6  S  1  Y    0.053514   0.000000   0.000000   0.000000   0.003856
    7  S  1  Z    0.000000  -0.000000   0.000000  -0.016059   0.000000
    8  S  1  X    0.000003   0.000000   0.013825   0.000000  -0.000000
    9  S  1  Y   -0.347372   0.000000  -0.000000   0.000000  -0.019578
   10  S  1  Z    0.000000   0.000001   0.000000   0.054468   0.000000
   11  S  1  X   -0.000010   0.000000   0.029438   0.000000  -0.000000
   12  S  1  Y   -0.726650   0.000000   0.000000   0.000000   0.002177
   13  S  1  Z    0.000000   0.000000   0.000000   0.014126   0.000000
   14  S  1 XX   -0.297895   0.000000   0.000000   0.000000   0.032449
   15  S  1 YY   -0.017518   0.000000   0.000000   0.000000   0.041460
   16  S  1 ZZ    0.315413   0.000000  -0.000000   0.000000  -0.073910
   17  S  1 XY   -0.000003   0.000000  -0.041085   0.000000   0.000000
   18  S  1 XZ    0.000000   0.028218   0.000000  -0.000001   0.000000
   19  S  1 YZ    0.000000  -0.000000   0.000000  -0.007279   0.000000
   20  O  2  S    0.069850   0.000000  -0.001030   0.000000   0.002532
   21  O  2  S   -1.232853   0.000000   0.008557   0.000000  -0.019451
   22  O  2  S    2.018472   0.000000  -0.014000   0.000000   0.012499
   23  O  2  X    0.087743   0.000000   0.014880   0.000000   0.017794
   24  O  2  Y   -0.039051   0.000000  -0.018736   0.000000   0.004042
   25  O  2  Z    0.000000   0.008813   0.000000   0.015942   0.000000
   26  O  2  X   -0.687869   0.000000  -0.028768   0.000000  -0.019927
   27  O  2  Y   -0.128205   0.000000   0.026365   0.000000  -0.002673
   28  O  2  Z    0.000000  -0.013639   0.000000  -0.025927   0.000000
   29  O  2 XX   -0.143897   0.000000   0.336530   0.000000  -0.116481
   30  O  2 YY    0.051292   0.000000   0.244657   0.000000  -0.483739
   31  O  2 ZZ    0.092605   0.000000  -0.581187   0.000000   0.600220
   32  O  2 XY   -0.108453   0.000000  -0.400149   0.000000   0.307742
   33  O  2 XZ    0.000000   0.468573   0.000000  -0.148620   0.000000
   34  O  2 YZ    0.000000  -0.529803   0.000000   0.691979   0.000000
   35  O  3  S    0.069850   0.000000   0.001030   0.000000   0.002532
   36  O  3  S   -1.232855   0.000000  -0.008557   0.000000  -0.019451
   37  O  3  S    2.018466   0.000000   0.013999   0.000000   0.012499
   38  O  3  X   -0.087749   0.000000   0.014880   0.000000  -0.017794
   39  O  3  Y   -0.039053   0.000000   0.018736   0.000000   0.004041
   40  O  3  Z    0.000000  -0.008812   0.000000   0.015943   0.000000
   41  O  3  X    0.687876   0.000000  -0.028768   0.000000   0.019927
   42  O  3  Y   -0.128200   0.000000  -0.026365   0.000000  -0.002672
   43  O  3  Z    0.000000   0.013638   0.000000  -0.025927   0.000000
   44  O  3 XX   -0.143898   0.000000  -0.336532   0.000000  -0.116477
   45  O  3 YY    0.051292   0.000000  -0.244663   0.000000  -0.483737
   46  O  3 ZZ    0.092607   0.000000   0.581194   0.000000   0.600213
   47  O  3 XY    0.108453   0.000000  -0.400152   0.000000  -0.307737
   48  O  3 XZ    0.000000   0.468578   0.000000   0.148605   0.000000
   49  O  3 YZ    0.000000   0.529826   0.000000   0.691962   0.000000

                     41         42         43         44         45
                    2.1097     2.1571     2.2097     2.2867     2.5896
                     A          A          A          A          A   
    1  S  1  S   -0.000000   0.000000   0.000000  -0.003244  -0.031789
    2  S  1  S    0.000000   0.000000   0.000000   0.026684   0.250781
    3  S  1  S   -0.000000   0.000000   0.000000  -0.043731  -0.610407
    4  S  1  S    0.000000   0.000000   0.000000  -0.245646  -0.816685
    5  S  1  X    0.038388   0.000000   0.000000  -0.000000   0.000000
    6  S  1  Y    0.000000   0.000000   0.000000   0.060295   0.111709
    7  S  1  Z    0.000000   0.050019  -0.000000   0.000000   0.000000
    8  S  1  X   -0.169291   0.000000   0.000000   0.000000   0.000000
    9  S  1  Y   -0.000000   0.000000   0.000000  -0.239281  -0.587410
   10  S  1  Z    0.000000  -0.168417   0.000000   0.000000   0.000000
   11  S  1  X   -0.044477   0.000000   0.000000  -0.000001  -0.000003
   12  S  1  Y    0.000000   0.000000   0.000000  -0.177199  -0.140475
   13  S  1  Z    0.000000  -0.080329   0.000000   0.000000   0.000000
   14  S  1 XX    0.000000   0.000000   0.000000   0.268110  -0.535338
   15  S  1 YY   -0.000000   0.000000   0.000000  -0.334363   0.131035
   16  S  1 ZZ   -0.000000   0.000000   0.000000   0.066253   0.404303
   17  S  1 XY    0.176296   0.000000   0.000000  -0.000000  -0.000001
   18  S  1 XZ    0.000000   0.000000   0.373414   0.000000   0.000000
   19  S  1 YZ    0.000000  -0.233701   0.000000   0.000000   0.000000
   20  O  2  S    0.006608   0.000000   0.000000   0.009156   0.009023
   21  O  2  S   -0.092640   0.000000   0.000000  -0.174631  -0.523689
   22  O  2  S    0.125393   0.000000   0.000000   0.297334   1.052588
   23  O  2  X    0.014625   0.000000   0.000000   0.063387   0.046995
   24  O  2  Y    0.058095   0.000000   0.000000  -0.027015   0.025768
   25  O  2  Z    0.000000  -0.054990   0.040743   0.000000   0.000000
   26  O  2  X   -0.022022   0.000000   0.000000  -0.196946  -0.559538
   27  O  2  Y   -0.100262   0.000000   0.000000   0.090232  -0.315817
   28  O  2  Z    0.000000   0.124223  -0.107214   0.000000   0.000000
   29  O  2 XX   -0.411836   0.000000   0.000000   0.594963   0.413251
   30  O  2 YY    0.650229   0.000000   0.000000  -0.529150  -0.010162
   31  O  2 ZZ   -0.238392   0.000000   0.000000  -0.065813  -0.403089
   32  O  2 XY    0.270976   0.000000   0.000000  -0.320070   0.615579
   33  O  2 XZ    0.000000  -0.702433   0.544039   0.000000   0.000000
   34  O  2 YZ    0.000000  -0.156397   0.476181   0.000000   0.000000
   35  O  3  S   -0.006608   0.000000   0.000000   0.009156   0.009023
   36  O  3  S    0.092640   0.000000   0.000000  -0.174631  -0.523688
   37  O  3  S   -0.125393   0.000000   0.000000   0.297333   1.052584
   38  O  3  X    0.014625   0.000000   0.000000  -0.063387  -0.046996
   39  O  3  Y   -0.058095   0.000000   0.000000  -0.027015   0.025767
   40  O  3  Z    0.000000  -0.054990  -0.040743   0.000000   0.000000
   41  O  3  X   -0.022022   0.000000   0.000000   0.196947   0.559539
   42  O  3  Y    0.100262   0.000000   0.000000   0.090233  -0.315816
   43  O  3  Z    0.000000   0.124223   0.107214   0.000000   0.000000
   44  O  3 XX    0.411837   0.000000   0.000000   0.594963   0.413251
   45  O  3 YY   -0.650228   0.000000   0.000000  -0.529149  -0.010161
   46  O  3 ZZ    0.238391   0.000000   0.000000  -0.065814  -0.403089
   47  O  3 XY    0.270976   0.000000   0.000000   0.320070  -0.615578
   48  O  3 XZ    0.000000   0.702434   0.544038   0.000000   0.000000
   49  O  3 YZ    0.000000  -0.156398  -0.476180   0.000000   0.000000

                     46
                    2.6932
                     A   
    1  S  1  S    0.000000
    2  S  1  S   -0.000000
    3  S  1  S    0.000002
    4  S  1  S   -0.000004
    5  S  1  X   -0.204618
    6  S  1  Y    0.000000
    7  S  1  Z    0.000000
    8  S  1  X    1.044643
    9  S  1  Y   -0.000000
   10  S  1  Z    0.000000
   11  S  1  X    0.163041
   12  S  1  Y   -0.000002
   13  S  1  Z    0.000000
   14  S  1 XX   -0.000001
   15  S  1 YY    0.000000
   16  S  1 ZZ    0.000001
   17  S  1 XY    0.617698
   18  S  1 XZ    0.000000
   19  S  1 YZ    0.000000
   20  O  2  S   -0.002103
   21  O  2  S    0.433459
   22  O  2  S   -0.924988
   23  O  2  X   -0.012290
   24  O  2  Y   -0.006736
   25  O  2  Z    0.000000
   26  O  2  X    0.534233
   27  O  2  Y    0.310595
   28  O  2  Z    0.000000
   29  O  2 XX   -0.539425
   30  O  2 YY    0.168860
   31  O  2 ZZ    0.370565
   32  O  2 XY   -0.583109
   33  O  2 XZ    0.000000
   34  O  2 YZ    0.000000
   35  O  3  S    0.002104
   36  O  3  S   -0.433460
   37  O  3  S    0.924992
   38  O  3  X   -0.012290
   39  O  3  Y    0.006736
   40  O  3  Z    0.000000
   41  O  3  X    0.534234
   42  O  3  Y   -0.310596
   43  O  3  Z    0.000000
   44  O  3 XX    0.539425
   45  O  3 YY   -0.168860
   46  O  3 ZZ   -0.370565
   47  O  3 XY   -0.583109
   48  O  3 XZ    0.000000
   49  O  3 YZ    0.000000
 ...... END OF RHF CALCULATION ......
 STEP CPU TIME =     2.51 TOTAL CPU TIME =          2.7 (      0.0 MIN)
 TOTAL WALL CLOCK TIME=          2.7 SECONDS, CPU UTILIZATION IS    98.88%

     ---------------------------------------------------------------------
     PROPERTIES FOR THE PBE      DFT FUNCTIONAL (RHF  TYPE) DENSITY MATRIX
     ---------------------------------------------------------------------

          -----------------
          ENERGY COMPONENTS
          -----------------

         WAVEFUNCTION NORMALIZATION =       1.0000000000

                ONE ELECTRON ENERGY =    -948.0888430896
                TWO ELECTRON ENERGY =     302.9686668415
           NUCLEAR REPULSION ENERGY =      96.8891849703
                                      ------------------
                       TOTAL ENERGY =    -548.2309912779

 ELECTRON-ELECTRON POTENTIAL ENERGY =     302.9686668415
  NUCLEUS-ELECTRON POTENTIAL ENERGY =   -1495.0437718807
   NUCLEUS-NUCLEUS POTENTIAL ENERGY =      96.8891849703
                                      ------------------
             TOTAL POTENTIAL ENERGY =   -1095.1859200690
               TOTAL KINETIC ENERGY =     546.9549287911
                 VIRIAL RATIO (V/T) =       2.0023330304

          ---------------------------------------
          MULLIKEN AND LOWDIN POPULATION ANALYSES
          ---------------------------------------

     ATOMIC MULLIKEN POPULATION IN EACH MOLECULAR ORBITAL

                      1          2          3          4          5

                  2.000000   2.000000   2.000000   2.000000   2.000000

    1             1.999961   0.001141   0.000778   2.000685   2.000334
    2             0.000019   0.997394   1.001646  -0.000342  -0.000167
    3             0.000019   1.001465   0.997575  -0.000342  -0.000167

                      6          7          8          9         10

                  2.000000   2.000000   2.000000   2.000000   2.000000

    1             2.000015   2.000107   0.638917   0.306092   1.088958
    2            -0.000007  -0.000054   0.680537   0.846960   0.455520
    3            -0.000007  -0.000054   0.680546   0.846949   0.455523

                     11         12         13         14         15

                  2.000000   2.000000   2.000000   2.000000   2.000000

    1             0.526592   1.106055   1.018121   0.066603   0.117722
    2             0.736705   0.446972   0.490938   0.966699   0.941132
    3             0.736703   0.446973   0.490941   0.966698   0.941146

                     16

                  2.000000

    1             0.407174
    2             0.796422
    3             0.796405

               ----- POPULATIONS IN EACH AO -----
                             MULLIKEN      LOWDIN
              1  S  1  S      1.99983     1.99926
              2  S  1  S      1.99236     1.88698
              3  S  1  S      1.34240     0.68226
              4  S  1  S      0.54429     0.46869
              5  S  1  X      1.99365     1.95687
              6  S  1  Y      1.99477     1.96533
              7  S  1  Z      1.99389     1.96085
              8  S  1  X      0.80911     0.68136
              9  S  1  Y      1.00499     0.92151
             10  S  1  Z      0.87746     0.78801
             11  S  1  X      0.04724     0.20088
             12  S  1  Y      0.13713     0.28504
             13  S  1  Z      0.22521     0.33245
             14  S  1 XX      0.03133     0.31172
             15  S  1 YY      0.10797     0.30088
             16  S  1 ZZ      0.10152     0.29359
             17  S  1 XY      0.06660     0.11772
             18  S  1 XZ      0.00951     0.07867
             19  S  1 YZ      0.00000     0.00920
             20  O  2  S      1.99563     1.97284
             21  O  2  S      0.96089     0.70444
             22  O  2  S      0.96211     0.54231
             23  O  2  X      0.86139     0.81982
             24  O  2  Y      1.05595     1.02525
             25  O  2  Z      0.84218     0.80825
             26  O  2  X      0.46378     0.57714
             27  O  2  Y      0.63601     0.69408
             28  O  2  Z      0.56694     0.60110
             29  O  2 XX      0.00175     0.20982
             30  O  2 YY      0.00454     0.20249
             31  O  2 ZZ      0.00466     0.20692
             32  O  2 XY      0.00339     0.00885
             33  O  2 XZ      0.00115     0.00456
             34  O  2 YZ      0.00000     0.00149
             35  O  3  S      1.99563     1.97284
             36  O  3  S      0.96089     0.70444
             37  O  3  S      0.96211     0.54231
             38  O  3  X      0.86139     0.81982
             39  O  3  Y      1.05594     1.02525
             40  O  3  Z      0.84218     0.80825
             41  O  3  X      0.46378     0.57714
             42  O  3  Y      0.63601     0.69408
             43  O  3  Z      0.56694     0.60110
             44  O  3 XX      0.00175     0.20982
             45  O  3 YY      0.00454     0.20249
             46  O  3 ZZ      0.00466     0.20692
             47  O  3 XY      0.00339     0.00885
             48  O  3 XZ      0.00115     0.00456
             49  O  3 YZ      0.00000     0.00149

          ----- MULLIKEN ATOMIC OVERLAP POPULATIONS -----
          (OFF-DIAGONAL ELEMENTS NEED TO BE MULTIPLIED BY 2)

             1           2           3

    1   14.6886979
    2    0.2952771   8.0867521
    3    0.2952790  -0.0216554   8.0867486

          TOTAL MULLIKEN AND LOWDIN ATOMIC POPULATIONS
       ATOM         MULL.POP.    CHARGE          LOW.POP.     CHARGE
    1 S            15.279254    0.720746        15.241280    0.758720
    2 O             8.360374   -0.360374         8.379360   -0.379360
    3 O             8.360372   -0.360372         8.379360   -0.379360

          MULLIKEN SPHERICAL HARMONIC POPULATIONS
       ATOM           S       P       D      F      G      H      I    TOTAL
    1 S             5.88    9.08    0.32   0.00   0.00   0.00   0.00   15.28
    2 O             3.92    4.43    0.02   0.00   0.00   0.00   0.00    8.36
    3 O             3.92    4.43    0.02   0.00   0.00   0.00   0.00    8.36

          -------------------------------
          BOND ORDER AND VALENCE ANALYSIS     BOND ORDER THRESHOLD=0.050
          -------------------------------

                   BOND                       BOND                       BOND
  ATOM PAIR DIST  ORDER      ATOM PAIR DIST  ORDER      ATOM PAIR DIST  ORDER
    1   2  1.600  1.749        1   3  1.600  1.749        2   3  2.771  0.370

                       TOTAL       BONDED        FREE
      ATOM            VALENCE     VALENCE     VALENCE
    1 S                 3.498       3.498       0.000
    2 O                 2.119       2.119       0.000
    3 O                 2.119       2.119      -0.000

          ---------------------
          ELECTROSTATIC MOMENTS
          ---------------------

 POINT   1           X           Y           Z (BOHR)    CHARGE
                 0.000000   -0.000000    0.000000        0.00 (A.U.)
         DX          DY          DZ         /D/  (DEBYE)
    -0.000002   -1.929950    0.000000    1.929950
 ...... END OF PROPERTY EVALUATION ......
 STEP CPU TIME =     0.00 TOTAL CPU TIME =          2.7 (      0.0 MIN)
 TOTAL WALL CLOCK TIME=          2.7 SECONDS, CPU UTILIZATION IS    98.52%
                580000  WORDS OF DYNAMIC MEMORY USED
 EXECUTION OF GAMESS TERMINATED NORMALLY Sun Sep 29 10:51:30 2019
 DDI: 263640 bytes (0.3 MB / 0 MWords) used by master data server.

 ----------------------------------------
 CPU timing information for all processes
 ========================================
 0: 2.582 + 0.87 = 2.670
 ----------------------------------------
 ddikick.x: exited gracefully.
----- accounting info -----
Files used on the master node crcfe02.crc.nd.edu were:
-rw-r--r-- 1 cdrisko campus     208 Sep 29 10:51 /afs/crc.nd.edu/user/c/cdrisko/SO2.F05
-rw-r--r-- 1 cdrisko campus   37566 Sep 29 10:51 /afs/crc.nd.edu/user/c/cdrisko/SO2.F07
-rw-r--r-- 1 cdrisko campus 4140368 Sep 29 10:51 /afs/crc.nd.edu/user/c/cdrisko/SO2.F08
-rw-r--r-- 1 cdrisko campus 1766880 Sep 29 10:51 /afs/crc.nd.edu/user/c/cdrisko/SO2.F10
Sun Sep 29 10:51:33 EDT 2019
0.450u 0.240s 0:06.35 10.8%	0+0k 0+24io 0pf+0w
