----- GAMESS execution script 'rungms' -----
This job is running on host crcfe01.crc.nd.edu
under operating system Linux at Thu Oct 17 23:42:50 EDT 2019
Available scratch disk space (Kbyte units) at beginning of the job is
Filesystem      1K-blocks  Used  Available Use% Mounted on
AFS            2147483647     0 2147483647   0% /afs
GAMESS temporary binary files will be written to /afs/crc.nd.edu/user/c/cdrisko
GAMESS supplementary output files will be written to /afs/crc.nd.edu/user/c/cdrisko/scr
Copying input file acetaldehyde.inp to your run's scratch directory...

 Distributed Data Interface kickoff program.
 Initiating 1 compute processes on 1 nodes to run the following command:
 /afs/crc.nd.edu/x86_64_linux/g/gamess/nov-2017/gamess/gamess.00.x acetaldehyde 

          ******************************************************
          *         GAMESS VERSION = 11 NOV 2017 (R3)         *
          *             FROM IOWA STATE UNIVERSITY             *
          * M.W.SCHMIDT, K.K.BALDRIDGE, J.A.BOATZ, S.T.ELBERT, *
          *   M.S.GORDON, J.H.JENSEN, S.KOSEKI, N.MATSUNAGA,   *
          *          K.A.NGUYEN, S.J.SU, T.L.WINDUS,           *
          *       TOGETHER WITH M.DUPUIS, J.A.MONTGOMERY       *
          *         J.COMPUT.CHEM.  14, 1347-1363(1993)        *
          **************** 64 BIT INTEL VERSION ****************

  SINCE 1993, STUDENTS AND POSTDOCS WORKING AT IOWA STATE UNIVERSITY
  AND ALSO IN THEIR VARIOUS JOBS AFTER LEAVING ISU HAVE MADE IMPORTANT
  CONTRIBUTIONS TO THE CODE:
     IVANA ADAMOVIC, CHRISTINE AIKENS, YURI ALEXEEV, POOJA ARORA,
     ANDREY ASADCHEV, ROB BELL, PRADIPTA BANDYOPADHYAY, JONATHAN BENTZ,
     BRETT BODE, KURT BRORSEN, CALEB CARLIN, GALINA CHABAN, WEI CHEN,
     CHEOL HO CHOI, PAUL DAY, ALBERT DEFUSCO, NUWAN DESILVA, TIM DUDLEY,
     DMITRI FEDOROV, ALEX FINDLATER, GRAHAM FLETCHER, MARK FREITAG,
     KURT GLAESEMANN, ANASTASIA GUININA,
     DAN KEMP, GRANT MERRILL, NORIYUKI MINEZAWA, JONATHAN MULLIN,
     TAKESHI NAGATA, SEAN NEDD, HEATHER NETZLOFF, BOSILJKA NJEGIC, RYAN OLSON,
     MIKE PAK, BUU PHAM,
     SPENCER PRUITT, LUKE ROSKOP, JIM SHOEMAKER, LYUDMILA SLIPCHENKO,
     TONY SMITH, SAROM SOK LEANG, JIE SONG, TETSUYA TAKETSUGU, SIMON WEBB,
     PENG XU, SOOHAENG YOO, FEDERICO ZAHARIEV

  ADDITIONAL CODE HAS BEEN PROVIDED BY COLLABORATORS IN OTHER GROUPS:
     IOWA STATE UNIVERSITY:
          JOE IVANIC, AARON WEST, LAIMUTIS BYTAUTAS, KLAUS RUEDENBERG
     UNIVERSITY OF TOKYO: KIMIHIKO HIRAO, TAKAHITO NAKAJIMA,
          TAKAO TSUNEDA, MUNEAKI KAMIYA, SUSUMU YANAGISAWA,
          KIYOSHI YAGI, MAHITO CHIBA, SEIKEN TOKURA, NAOAKI KAWAKAMI
     UNIVERSITY OF AARHUS: FRANK JENSEN
     UNIVERSITY OF IOWA: VISVALDAS KAIRYS, HUI LI
     NATIONAL INST. OF STANDARDS AND TECHNOLOGY: WALT STEVENS, DAVID GARMER
     UNIVERSITY OF PISA: BENEDETTA MENNUCCI, JACOPO TOMASI
     UNIVERSITY OF MEMPHIS: HENRY KURTZ, PRAKASHAN KORAMBATH
     UNIVERSITY OF ALBERTA: TOBY ZENG, MARIUSZ KLOBUKOWSKI
     UNIVERSITY OF NEW ENGLAND: MARK SPACKMAN
     MIE UNIVERSITY: HIROAKI UMEDA
     NAT. INST. OF ADVANCED INDUSTRIAL SCIENCE AND TECHNOLOGY: KAZUO KITAURA
     MICHIGAN STATE UNIVERSITY:
          KAROL KOWALSKI, MARTA WLOCH, JEFFREY GOUR, JESSE LUTZ,
          WEI LI, PIOTR PIECUCH
     UNIVERSITY OF SILESIA: MONIKA MUSIAL, STANISLAW KUCHARSKI
     FACULTES UNIVERSITAIRES NOTRE-DAME DE LA PAIX:
          OLIVIER QUINET, BENOIT CHAMPAGNE
     UNIVERSITY OF CALIFORNIA - SANTA BARBARA: BERNARD KIRTMAN
     INSTITUTE FOR MOLECULAR SCIENCE:
          KAZUYA ISHIMURA, MICHIO KATOUDA, AND SHIGERU NAGASE
     UNIVERSITY OF NOTRE DAME: ANNA POMOGAEVA, DAN CHIPMAN
     KYUSHU UNIVERSITY:
          HARUYUKI NAKANO,
          FENG LONG GU, JACEK KORCHOWIEC, MARCIN MAKOWSKI, AND YURIKO AOKI,
          HIROTOSHI MORI AND EISAKU MIYOSHI
     PENNSYLVANIA STATE UNIVERSITY:
          TZVETELIN IORDANOV, CHET SWALINA, JONATHAN SKONE,
          SHARON HAMMES-SCHIFFER
     WASEDA UNIVERSITY:
          MASATO KOBAYASHI, TOMOKO AKAMA, TSUGUKI TOUMA,
          TAKESHI YOSHIKAWA, YASUHIRO IKABATA, JUNJI SEINO,
          YUYA NAKAJIMA, HIROMI NAKAI
     NANJING UNIVERSITY: SHUHUA LI
     UNIVERSITY OF NEBRASKA:
          PEIFENG SU, DEJUN SI, NANDUN THELLAMUREGE, YALI WANG, HUI LI
     UNIVERSITY OF ZURICH: ROBERTO PEVERATI, KIM BALDRIDGE
     N. COPERNICUS UNIVERSITY AND JACKSON STATE UNIVERSITY:
          MARIA BARYSZ
     UNIVERSITY OF COPENHAGEN: Jimmy Kromann, CASPER STEINMANN
     TOKYO INSTITUTE OF TECHNOLOGY: HIROYA NAKATA
     NAGOYA UNIVERSITY: YOSHIO NISHIMOTO, STEPHAN IRLE
     MOSCOW STATE UNIVERSITY: VLADIMIR MIRONOV

 EXECUTION OF GAMESS BEGUN Thu Oct 17 23:42:50 2019

            ECHO OF THE FIRST FEW INPUT CARDS -
 INPUT CARD> $CONTRL SCFTYP=RHF DFTTYP=B3LYP RUNTYP=ENERGY                                  
 INPUT CARD>       ISPHER=1 MULT=1 COORD=ZMT NZVAR=15 $END                                  
 INPUT CARD> $BASIS GBASIS=N31 NGAUSS=6 NDFUNC=1 $END                                       
 INPUT CARD> $STATPT IFREEZ(1)=9 $END                                                       
 INPUT CARD> $DATA                                                                          
 INPUT CARD>Title Single Point Energy Calculation of Acetaldehyde                           
 INPUT CARD>C1                                                                              
 INPUT CARD>C                                                                               
 INPUT CARD>C      1   1.5086892                                                            
 INPUT CARD>O      2   1.2107245  1  124.7161                                               
 INPUT CARD>H      2   1.1145804  1  114.7739  3  180.0000  0                               
 INPUT CARD>H      1   1.0926781  2  110.5176  3  140.      0                               
 INPUT CARD>H      1   1.0983769  2  109.8265  3  121.4889  0                               
 INPUT CARD>H      1   1.0983769  2  109.8265  3 -121.4889  0                               
 INPUT CARD> $END                                                                           
    1000000 WORDS OF MEMORY AVAILABLE

     BASIS OPTIONS
     -------------
     GBASIS=N31          IGAUSS=       6      POLAR=POPN31  
     NDFUNC=       1     NFFUNC=       0     DIFFSP=       F
     NPFUNC=       0      DIFFS=       F     BASNAM=        


     RUN TITLE
     ---------
 Title Single Point Energy Calculation of Acetaldehyde                           

 THE POINT GROUP OF THE MOLECULE IS C1      
 THE ORDER OF THE PRINCIPAL AXIS IS     0

 YOUR FULLY SUBSTITUTED Z-MATRIX IS
 C   
 C      1   1.5086892
 O      2   1.2107245  1  124.7161
 H      2   1.1145804  1  114.7739  3  180.0000  0
 H      1   1.0926781  2  110.5176  3  140.0000  0
 H      1   1.0983769  2  109.8265  3  121.4889  0
 H      1   1.0983769  2  109.8265  3 -121.4889  0

 THE MOMENTS OF INERTIA ARE (AMU-ANGSTROM**2)
 IXX=     7.676   IYY=    52.933   IZZ=    56.711

 ATOM      ATOMIC                      COORDINATES (BOHR)
           CHARGE         X                   Y                   Z
 C           6.0    -2.3338413615        0.5080405829        0.0648086075
 C           6.0     0.2339720149       -0.7307229322        0.0575414717
 O           8.0     2.2232398665        0.3945605733       -0.0483296149
 H           1.0     0.1994331214       -2.8342181472        0.1595734556
 H           1.0    -3.6605209972       -0.5695679316       -1.0937840500
 H           1.0    -3.4535410271       -0.1833015291       -1.5403594013
 H           1.0    -3.3670067126       -0.0234327376        1.7847943808

          INTERNUCLEAR DISTANCES (ANGS.)
          ------------------------------

                1 C          2 C          3 O          4 H          5 H     

   1 C       0.0000000    1.5086892 *  2.4129941 *  2.2198436 *  1.0926781 *
   2 C       1.5086892 *  0.0000000    1.2107245 *  1.1145804 *  2.1507392 *
   3 O       2.4129941 *  1.2107245 *  0.0000000    2.0194911 *  3.2032127  
   4 H       2.2198436 *  1.1145804 *  2.0194911 *  0.0000000    2.4593248 *
   5 H       1.0926781 *  2.1507392 *  3.2032127    2.4593248 *  0.0000000  
   6 H       1.0983769 *  2.1463151 *  3.1210656    2.5522231 *  0.3310942 *
   7 H       1.0983769 *  2.1463151 *  3.1210656    2.5522231 *  1.5582116 *

                6 H          7 H     

   1 C       1.0983769 *  1.0983769 *
   2 C       2.1463151 *  2.1463151 *
   3 O       3.1210656    3.1210656  
   4 H       2.5522231 *  2.5522231 *
   5 H       0.3310942 *  1.5582116 *
   6 H       0.0000000    1.7622233 *
   7 H       1.7622233 *  0.0000000  

  * ... LESS THAN  3.000


     ATOMIC BASIS SET
     ----------------
 THE CONTRACTED PRIMITIVE FUNCTIONS HAVE BEEN UNNORMALIZED
 THE CONTRACTED BASIS FUNCTIONS ARE NOW NORMALIZED TO UNITY

  SHELL TYPE  PRIMITIVE        EXPONENT          CONTRACTION COEFFICIENT(S)

 C         

      1   S       1          3047.5248800    0.001834737132
      1   S       2           457.3695180    0.014037322813
      1   S       3           103.9486850    0.068842622264
      1   S       4            29.2101553    0.232184443216
      1   S       5             9.2866630    0.467941348435
      1   S       6             3.1639270    0.362311985337

      2   L       7             7.8682723   -0.119332419775    0.068999066591
      2   L       8             1.8812885   -0.160854151696    0.316423960957
      2   L       9             0.5442493    1.143456437840    0.744308290898

      3   L      10             0.1687145    1.000000000000    1.000000000000

      4   D      11             0.8000000    1.000000000000

 C         

      5   S      12          3047.5248800    0.001834737132
      5   S      13           457.3695180    0.014037322813
      5   S      14           103.9486850    0.068842622264
      5   S      15            29.2101553    0.232184443216
      5   S      16             9.2866630    0.467941348435
      5   S      17             3.1639270    0.362311985337

      6   L      18             7.8682723   -0.119332419775    0.068999066591
      6   L      19             1.8812885   -0.160854151696    0.316423960957
      6   L      20             0.5442493    1.143456437840    0.744308290898

      7   L      21             0.1687145    1.000000000000    1.000000000000

      8   D      22             0.8000000    1.000000000000

 O         

      9   S      23          5484.6716600    0.001831074430
      9   S      24           825.2349460    0.013950172200
      9   S      25           188.0469580    0.068445078098
      9   S      26            52.9645000    0.232714335992
      9   S      27            16.8975704    0.470192897984
      9   S      28             5.7996353    0.358520852987

     10   L      29            15.5396162   -0.110777549525    0.070874268231
     10   L      30             3.5999336   -0.148026262701    0.339752839147
     10   L      31             1.0137618    1.130767015354    0.727158577316

     11   L      32             0.2700058    1.000000000000    1.000000000000

     12   D      33             0.8000000    1.000000000000

 H         

     13   S      34            18.7311370    0.033494604338
     13   S      35             2.8253944    0.234726953484
     13   S      36             0.6401217    0.813757326146

     14   S      37             0.1612778    1.000000000000

 H         

     15   S      38            18.7311370    0.033494604338
     15   S      39             2.8253944    0.234726953484
     15   S      40             0.6401217    0.813757326146

     16   S      41             0.1612778    1.000000000000

 H         

     17   S      42            18.7311370    0.033494604338
     17   S      43             2.8253944    0.234726953484
     17   S      44             0.6401217    0.813757326146

     18   S      45             0.1612778    1.000000000000

 H         

     19   S      46            18.7311370    0.033494604338
     19   S      47             2.8253944    0.234726953484
     19   S      48             0.6401217    0.813757326146

     20   S      49             0.1612778    1.000000000000

 TOTAL NUMBER OF BASIS SET SHELLS             =   20
 NUMBER OF CARTESIAN GAUSSIAN BASIS FUNCTIONS =   53
 NOTE: THIS RUN WILL RESTRICT THE MO VARIATION SPACE TO SPHERICAL HARMONICS.
 THE NUMBER OF ORBITALS KEPT IN THE VARIATIONAL SPACE WILL BE PRINTED LATER.
 NUMBER OF ELECTRONS                          =   24
 CHARGE OF MOLECULE                           =    0
 SPIN MULTIPLICITY                            =    1
 NUMBER OF OCCUPIED ORBITALS (ALPHA)          =   12
 NUMBER OF OCCUPIED ORBITALS (BETA )          =   12
 TOTAL NUMBER OF ATOMS                        =    7
 THE NUCLEAR REPULSION ENERGY IS       70.5329592598

     LEBEDEV GRID-BASED DFT OPTIONS
     ------------------------------
     DFTTYP=B3LYP   
     NRAD  =      96     NLEB  =     302
     NRAD0 =      24     NLEB0 =     110
     SWOFF =    5.00E-03 (PURE SCF -> DFT)
     SWITCH=    3.00E-04 (COARSE -> TIGHT GRID)
     THRESH=    0.00E+00 GTHRE=    1.00E+00

 GRIMME'S EMPIRICAL DISPERSION CORRECTION= F

     $CONTRL OPTIONS
     ---------------
 SCFTYP=RHF          RUNTYP=ENERGY       EXETYP=RUN     
 MPLEVL=       0     CITYP =NONE         CCTYP =NONE         VBTYP =NONE    
 DFTTYP=B3LYP        TDDFT =NONE    
 MULT  =       1     ICHARG=       0     NZVAR =      15     COORD =ZMT     
 PP    =NONE         RELWFN=NONE         LOCAL =NONE         NUMGRD=       F
 ISPHER=       1     NOSYM =       0     MAXIT =      30     UNITS =ANGS    
 PLTORB=       F     MOLPLT=       F     AIMPAC=       F     FRIEND=        
 NPRINT=       7     IREST =       0     GEOM  =INPUT   
 NORMF =       0     NORMP =       0     ITOL  =      20     ICUT  =       9
 INTTYP=BEST         GRDTYP=BEST         QMTTOL= 1.0E-06

     $SYSTEM OPTIONS
     ---------------
  REPLICATED MEMORY=     1000000 WORDS (ON EVERY NODE).
 DISTRIBUTED MEMDDI=           0 MILLION WORDS IN AGGREGATE,
 MEMDDI DISTRIBUTED OVER   1 PROCESSORS IS           0 WORDS/PROCESSOR.
 TOTAL MEMORY REQUESTED ON EACH PROCESSOR=     1000000 WORDS.
 TIMLIM=      525600.00 MINUTES, OR     365.0 DAYS.
 PARALL= F  BALTYP=  DLB     KDIAG=    0  COREFL= F
 MXSEQ2=     300 MXSEQ3=     150  mem10=         0

          ----------------
          PROPERTIES INPUT
          ----------------

     MOMENTS            FIELD           POTENTIAL          DENSITY
 IEMOM =       1   IEFLD =       0   IEPOT =       0   IEDEN =       0
 WHERE =COMASS     WHERE =NUCLEI     WHERE =NUCLEI     WHERE =NUCLEI  
 OUTPUT=BOTH       OUTPUT=BOTH       OUTPUT=BOTH       OUTPUT=BOTH    
 IEMINT=       0   IEFINT=       0                     IEDINT=       0
                                                       MORB  =       0
          EXTRAPOLATION IN EFFECT
          DIIS IN EFFECT
 ORBITAL PRINTING OPTION: NPREO=     1    53     2     1

     -------------------------------
     INTEGRAL TRANSFORMATION OPTIONS
     -------------------------------
     NWORD  =            0
     CUTOFF = 1.0E-09     MPTRAN =       0
     DIRTRF =       F     AOINTS =DUP     

          ----------------------
          INTEGRAL INPUT OPTIONS
          ----------------------
 NOPK  =       1 NORDER=       0 SCHWRZ=       T

   --- ENCODED Z MATRIX ---
 COORD  TYPE   I   J   K   L   M   N
    1      1    2   1
    2      1    3   2
    3      2    3   2   1
    4      1    4   2
    5      2    4   2   1
    6      3    4   2   1   3
    7      1    5   1
    8      2    5   1   2
    9      3    5   1   2   3
   10      1    6   1
   11      2    6   1   2
   12      3    6   1   2   3
   13      1    7   1
   14      2    7   1   2
   15      3    7   1   2   3

 THE DETERMINANT OF THE G MATRIX IS 10**(    -8)


                     --------------------
                     INTERNAL COORDINATES
                     --------------------

                 - - ATOMS - -         COORDINATE      COORDINATE
 NO.   TYPE    I  J  K  L  M  N        (BOHR,RAD)       (ANG,DEG)
 ----------------------------------------------------------------
   1 STRETCH   2  1                     2.8510092       1.5086892
   2 STRETCH   3  2                     2.2879376       1.2107245
   3 BEND      3  2  1                  2.1767066     124.7161000
   4 STRETCH   4  2                     2.1062515       1.1145804
   5 BEND      4  2  1                  2.0031825     114.7739000
   6 TORSION   4  2  1  3               3.1415927     180.0000000
   7 STRETCH   5  1                     2.0648622       1.0926781
   8 BEND      5  1  2                  1.9288960     110.5176000
   9 TORSION   5  1  2  3               2.4434610     140.0000000
  10 STRETCH   6  1                     2.0756314       1.0983769
  11 BEND      6  1  2                  1.9168340     109.8265000
  12 TORSION   6  1  2  3               2.1203813     121.4889000
  13 STRETCH   7  1                     2.0756314       1.0983769
  14 BEND      7  1  2                  1.9168340     109.8265000
  15 TORSION   7  1  2  3              -2.1203813    -121.4889000

     ------------------------------------------
     THE POINT GROUP IS C1 , NAXIS= 0, ORDER= 1
     ------------------------------------------

 -- VARIATIONAL SPACE WILL BE RESTRICTED TO PURE SPHERICAL HARMONICS ONLY --
 AFTER EXCLUDING CONTAMINANT COMBINATIONS FROM THE CARTESIAN GAUSSIAN BASIS
 SET, THE NUMBER OF SPHERICAL HARMONICS KEPT IN THE VARIATION SPACE IS   50

     DIMENSIONS OF THE SYMMETRY SUBSPACES ARE
 A   =   50

 ..... DONE SETTING UP THE RUN .....
 STEP CPU TIME =     0.01 TOTAL CPU TIME =          0.0 (      0.0 MIN)
 TOTAL WALL CLOCK TIME=          0.0 SECONDS, CPU UTILIZATION IS    33.33%

          ********************
          1 ELECTRON INTEGRALS
          ********************
 ...... END OF ONE-ELECTRON INTEGRALS ......
 STEP CPU TIME =     0.02 TOTAL CPU TIME =          0.0 (      0.0 MIN)
 TOTAL WALL CLOCK TIME=          0.0 SECONDS, CPU UTILIZATION IS   100.00%

          -------------
          GUESS OPTIONS
          -------------
          GUESS =HUCKEL            NORB  =       0          NORDER=       0
          MIX   =       F          PRTMO =       F          PUNMO =       F
          TOLZ  = 1.0E-08          TOLE  = 1.0E-05
          SYMDEN=       F          PURIFY=       F

 INITIAL GUESS ORBITALS GENERATED BY HUCKEL   ROUTINE.
 HUCKEL GUESS REQUIRES     27154 WORDS.

 STATISTICS FOR GENERATION OF SYMMETRY ORBITAL -Q- MATRIX
 NUMBER OF CARTESIAN ATOMIC ORBITALS=         53
 NUMBER OF SPHERICAL CONTAMINANTS DROPPED=     3
 NUMBER OF LINEARLY DEPENDENT MOS DROPPED=     0
 TOTAL NUMBER OF MOS IN VARIATION SPACE=      50

 SYMMETRIES FOR INITIAL GUESS ORBITALS FOLLOW.   BOTH SET(S).
    12 ORBITALS ARE OCCUPIED (    3 CORE ORBITALS).
     4=A        5=A        6=A        7=A        8=A        9=A       10=A   
    11=A       12=A       13=A       14=A       15=A       16=A       17=A   
    18=A       19=A       20=A       21=A       22=A   
 ...... END OF INITIAL ORBITAL SELECTION ......
 STEP CPU TIME =     0.00 TOTAL CPU TIME =          0.0 (      0.0 MIN)
 TOTAL WALL CLOCK TIME=          0.0 SECONDS, CPU UTILIZATION IS   100.00%

                    ----------------------
                    AO INTEGRAL TECHNOLOGY
                    ----------------------
     S,P,L SHELL ROTATED AXIS INTEGRALS, REPROGRAMMED BY
        KAZUYA ISHIMURA (IMS) AND JOSE SIERRA (SYNSTAR).
     S,P,D,L SHELL ROTATED AXIS INTEGRALS PROGRAMMED BY
        KAZUYA ISHIMURA (INSTITUTE FOR MOLECULAR SCIENCE).
     S,P,D,F,G SHELL TO TOTAL QUARTET ANGULAR MOMENTUM SUM 5,
        ERIC PROGRAM BY GRAHAM FLETCHER (ELORET AND NASA ADVANCED
        SUPERCOMPUTING DIVISION, AMES RESEARCH CENTER).
     S,P,D,F,G,L SHELL GENERAL RYS QUADRATURE PROGRAMMED BY
        MICHEL DUPUIS (PACIFIC NORTHWEST NATIONAL LABORATORY).

          --------------------
          2 ELECTRON INTEGRALS
          --------------------

 THE -PK- OPTION IS OFF, THE INTEGRALS ARE NOT IN SUPERMATRIX FORM.
 STORING   15000 INTEGRALS/RECORD ON DISK, USING 12 BYTES/INTEGRAL.
 TWO ELECTRON INTEGRAL EVALUATION REQUIRES   90606 WORDS OF MEMORY.
 SCHWARZ INEQUALITY OVERHEAD:      1430 INTEGRALS, T=        0.00
 II,JST,KST,LST =  1  1  1  1 NREC =         1 INTLOC =    1
 II,JST,KST,LST =  2  1  1  1 NREC =         1 INTLOC =    2
 II,JST,KST,LST =  3  1  1  1 NREC =         1 INTLOC =   34
 II,JST,KST,LST =  4  1  1  1 NREC =         1 INTLOC =  214
 II,JST,KST,LST =  5  1  1  1 NREC =         1 INTLOC = 1189
 II,JST,KST,LST =  6  1  1  1 NREC =         1 INTLOC = 3195
 II,JST,KST,LST =  7  1  1  1 NREC =         2 INTLOC =  920
 II,JST,KST,LST =  8  1  1  1 NREC =         3 INTLOC = 8147
 II,JST,KST,LST =  9  1  1  1 NREC =         7 INTLOC = 6015
 II,JST,KST,LST = 10  1  1  1 NREC =         8 INTLOC = 3317
 II,JST,KST,LST = 11  1  1  1 NREC =        13 INTLOC =  818
 II,JST,KST,LST = 12  1  1  1 NREC =        19 INTLOC =14581
 II,JST,KST,LST = 13  1  1  1 NREC =        34 INTLOC =10397
 II,JST,KST,LST = 14  1  1  1 NREC =        37 INTLOC =13338
 II,JST,KST,LST = 15  1  1  1 NREC =        41 INTLOC = 4882
 II,JST,KST,LST = 16  1  1  1 NREC =        44 INTLOC =11744
 II,JST,KST,LST = 17  1  1  1 NREC =        48 INTLOC =10017
 II,JST,KST,LST = 18  1  1  1 NREC =        52 INTLOC = 9115
 II,JST,KST,LST = 19  1  1  1 NREC =        56 INTLOC =14833
 II,JST,KST,LST = 20  1  1  1 NREC =        61 INTLOC = 6297
 SCHWARZ INEQUALITY TEST SKIPPED         968 INTEGRAL BLOCKS.
 TOTAL NUMBER OF NONZERO TWO-ELECTRON INTEGRALS =              980024
         66 INTEGRAL RECORDS WERE STORED ON DISK FILE  8.
  ...... END OF TWO-ELECTRON INTEGRALS .....
 STEP CPU TIME =     0.11 TOTAL CPU TIME =          0.1 (      0.0 MIN)
 TOTAL WALL CLOCK TIME=          0.1 SECONDS, CPU UTILIZATION IS    93.33%

          --------------------------
             R-B3LYP SCF CALCULATION
          --------------------------

     NUCLEAR ENERGY =        70.5329592598
     MAXIT =   30     NPUNCH=    2
     EXTRAP=T  DAMP=F  SHIFT=F  RSTRCT=F  DIIS=T  DEM=F  SOSCF=F
         DENSITY MATRIX CONVERGENCE THRESHOLD=  1.00E-05
     COARSE -> FINE DFT GRID SWITCH THRESHOLD=  3.00E-04 (SWITCH IN $DFT)
                   HF -> DFT SWITCH THRESHOLD=  5.00E-03 (SWOFF IN $DFT)
     MEMORY REQUIRED FOR RHF ITERS=    307426 WORDS.

 DFT CODE IS SWITCHING FROM THE FINE GRID NRAD= 96,  NLEB=  302
                      TO THE COARSE GRID NRAD0= 24, NLEB0=  110

     EXCHANGE FUNCTIONAL   =B88&HFX   
     CORRELATION FUNCTIONAL=LYP88&VWN5
     DFT THRESHOLD         =.197E-07
     GRID CHANGE THRESHOLD =.300E-03
 FOR AN EULER-MACLAURIN QUADRATURE USING  96 RADIAL POINTS:
 SMALLEST GAUSSIAN PRIMITIVE EXPONENT=        0.1612777588 OF TYPE -S-
 ON ATOM NUMBER   4 HAS RADIAL NORMALIZATION=  1.000000
  LARGEST GAUSSIAN PRIMITIVE EXPONENT=     5484.6716600000 OF TYPE -S-
 ON ATOM NUMBER   3 HAS RADIAL NORMALIZATION=  1.000000
 DFT IS SWITCHED OFF, PERFORMING PURE SCF UNTIL SWOFF THRESHOLD IS REACHED.

 ITER EX DEM     TOTAL ENERGY        E CHANGE  DENSITY CHANGE    DIIS ERROR
   1  0  0     -151.5945632154  -151.5945632154   0.435737774   0.504738972
          * * *   INITIATING DIIS PROCEDURE   * * *
   2  1  0     -152.2190593170    -0.6244961017   0.137079957   0.099894075
   3  2  0     -152.2536274662    -0.0345681492   0.072348535   0.068092137
   4  3  0     -152.2759640818    -0.0223366156   0.030568372   0.009821966
   5  4  0     -152.2771149062    -0.0011508244   0.012289476   0.002787165
   6  5  0     -152.2772595148    -0.0001446086   0.008401127   0.001882547
   7  6  0     -152.2772995494    -0.0000400346   0.003831083   0.000696416
 CONVERGED TO SWOFF, SO DFT CALCULATION IS NOW SWITCHED ON.
          * * *   INITIATING DIIS PROCEDURE   * * *
   8  7  0     -153.0893812101    -0.8120816608   0.275581511   0.050845365
   9  8  0     -153.1009180432    -0.0115368331   0.085445071   0.029825794
  10  9  0     -153.0982632322     0.0026548111   0.044963512   0.040961870
  11 10  0     -153.1041870042    -0.0059237721   0.018256489   0.009066342
  12 11  0     -153.1043934096    -0.0002064054   0.006471952   0.000905432
  13 12  0     -153.1043972176    -0.0000038080   0.000683592   0.000090030
  14 13  0     -153.1043972975    -0.0000000799   0.000153117   0.000036728
 DFT CODE IS SWITCHING BACK TO THE FINE GRID
          * * *   INITIATING DIIS PROCEDURE   * * *
  15 14  0     -153.1035694165     0.0008278809   0.002454554   0.001229223
  16 15  0     -153.1035777562    -0.0000083397   0.000840542   0.000275093
  17 16  0     -153.1035772331     0.0000005231   0.000507053   0.000424808
  18 17  0     -153.1035780718    -0.0000008387   0.000047033   0.000047413
  19 18  0     -153.1035780776    -0.0000000057   0.000034827   0.000009254
  20 19  0     -153.1035780779    -0.0000000003   0.000020472   0.000004796
  21 20  0     -153.1035780780    -0.0000000001   0.000002821   0.000000594
  22 21  0     -153.1035780780    -0.0000000000   0.000000369   0.000000075

          -----------------
          DENSITY CONVERGED
          -----------------
     TIME TO FORM FOCK OPERATORS=       5.2 SECONDS (       0.2 SEC/ITER)
     TIME TO SOLVE SCF EQUATIONS=       0.0 SECONDS (       0.0 SEC/ITER)

 FINAL R-B3LYP ENERGY IS     -153.1035780780 AFTER  22 ITERATIONS
 DFT EXCHANGE + CORRELATION ENERGY =       -16.9136704633
 TOTAL ELECTRON NUMBER             =        24.0000979521

          ------------
          EIGENVECTORS
          ------------

                      1          2          3          4          5
                  -19.1543   -10.2812   -10.2067    -1.0494    -0.9483
                     A          A          A          A          A   
    1  C  1  S   -0.000017   0.000975   0.995254  -0.022800  -0.122965
    2  C  1  S   -0.000550  -0.001162   0.036336   0.045335   0.244982
    3  C  1  X   -0.000272  -0.000917  -0.000941   0.018001  -0.094594
    4  C  1  Y    0.000057   0.000356  -0.003324  -0.015842  -0.106394
    5  C  1  Z    0.000003  -0.000030  -0.000590  -0.007166  -0.094630
    6  C  1  S    0.000911   0.006055  -0.030187   0.016112   0.107720
    7  C  1  X   -0.001150   0.002399   0.000987   0.003258  -0.011780
    8  C  1  Y   -0.001434  -0.002217   0.007292   0.004663  -0.004134
    9  C  1  Z    0.000103   0.000258  -0.000667  -0.000808  -0.007037
   10  C  1 XX   -0.000383  -0.000901   0.000183   0.004610  -0.000244
   11  C  1 YY    0.000387   0.000239  -0.000162  -0.002715  -0.003338
   12  C  1 ZZ   -0.000003   0.000662  -0.000021  -0.001896   0.003582
   13  C  1 XY   -0.000116   0.000824   0.000020  -0.001903   0.012464
   14  C  1 XZ    0.000028   0.000005   0.000147   0.000554   0.010535
   15  C  1 YZ   -0.000000   0.000022   0.000076   0.001210   0.012227
   16  C  2  S    0.000233   0.995150  -0.000951  -0.117705  -0.015192
   17  C  2  S    0.000054   0.035710  -0.001439   0.224510   0.020121
   18  C  2  X   -0.000061   0.001724   0.000523   0.156693  -0.078120
   19  C  2  Y   -0.000230   0.001276  -0.000362   0.093307  -0.006416
   20  C  2  Z    0.000012  -0.000064   0.000015  -0.008084  -0.004519
   21  C  2  S    0.008785  -0.016080   0.006983   0.086661   0.041968
   22  C  2  X    0.005496   0.006019  -0.005373  -0.018811  -0.037527
   23  C  2  Y    0.004857   0.002425  -0.000076  -0.020011  -0.008911
   24  C  2  Z   -0.000372  -0.000331   0.000214   0.000359  -0.009283
   25  C  2 XX   -0.000594   0.001421  -0.000887   0.018390   0.004209
   26  C  2 YY    0.000314  -0.000238   0.000381  -0.003160  -0.001873
   27  C  2 ZZ    0.000281  -0.001183   0.000506  -0.015230  -0.002336
   28  C  2 XY   -0.000753   0.001206   0.000835   0.021510  -0.007851
   29  C  2 XZ    0.000061  -0.000121  -0.000045  -0.001682   0.002649
   30  C  2 YZ    0.000017  -0.000074  -0.000009  -0.000802  -0.000285
   31  O  3  S    0.995117  -0.000047  -0.000029  -0.193804   0.030660
   32  O  3  S    0.029432   0.000458  -0.000635   0.428690  -0.070723
   33  O  3  X   -0.002006   0.000988   0.000104  -0.142007   0.013905
   34  O  3  Y   -0.001129   0.000490  -0.000013  -0.080731   0.013273
   35  O  3  Z    0.000135  -0.000054   0.000011   0.007927  -0.002953
   36  O  3  S   -0.019423  -0.005948   0.002286   0.375839  -0.047501
   37  O  3  X    0.005181   0.003786  -0.000370  -0.042098   0.002760
   38  O  3  Y    0.002583   0.002585  -0.000677  -0.023952  -0.001047
   39  O  3  Z   -0.000272  -0.000216   0.000013   0.002986   0.003017
   40  O  3 XX   -0.000189  -0.001208  -0.000053   0.006529  -0.000136
   41  O  3 YY    0.000108   0.000099   0.000233  -0.003815  -0.000055
   42  O  3 ZZ    0.000082   0.001109  -0.000181  -0.002714   0.000191
   43  O  3 XY   -0.000103  -0.001447   0.000126   0.009831  -0.001124
   44  O  3 XZ    0.000016   0.000146  -0.000013  -0.001284   0.000094
   45  O  3 YZ    0.000001   0.000097  -0.000029  -0.000005   0.000016
   46  H  4  S   -0.000227  -0.000955  -0.000630   0.027784   0.006827
   47  H  4  S    0.001160   0.005054  -0.000101  -0.013201  -0.005520
   48  H  5  S   -0.000327  -0.000244  -0.000270   0.027601   0.338687
   49  H  5  S    0.000286  -0.001428   0.006782   0.002012   0.064978
   50  H  6  S    0.000167  -0.000345  -0.000537   0.026268   0.325847
   51  H  6  S   -0.000803   0.001961   0.000732   0.000397   0.008852
   52  H  7  S   -0.000071  -0.000556  -0.000328   0.007999   0.059573
   53  H  7  S   -0.000603   0.000546   0.006611   0.000327   0.011637

                      6          7          8          9         10
                   -0.6557    -0.5294    -0.4699    -0.4340    -0.3824
                     A          A          A          A          A   
    1  C  1  S   -0.079630  -0.098255   0.013581   0.001324   0.025217
    2  C  1  S    0.146942   0.192284  -0.018272  -0.010169  -0.047605
    3  C  1  X    0.181797   0.020582   0.222278   0.164150   0.082748
    4  C  1  Y   -0.067559  -0.000039   0.028372  -0.058195  -0.019351
    5  C  1  Z    0.112758   0.181913  -0.223569  -0.121045  -0.070225
    6  C  1  S    0.194609   0.272589  -0.063979   0.024117  -0.096129
    7  C  1  X    0.030829  -0.014710   0.083425   0.078809   0.049307
    8  C  1  Y   -0.041380  -0.022099   0.030234  -0.037149   0.002149
    9  C  1  Z    0.015314   0.042172  -0.063384  -0.042123  -0.011603
   10  C  1 XX    0.002916   0.004394   0.004776  -0.005622  -0.000208
   11  C  1 YY    0.001442  -0.009369  -0.001727   0.009865   0.004002
   12  C  1 ZZ   -0.004357   0.004975  -0.003049  -0.004243  -0.003794
   13  C  1 XY   -0.016654   0.004421  -0.014333  -0.014540  -0.005987
   14  C  1 XZ   -0.009178  -0.009746   0.007555   0.002192   0.013979
   15  C  1 YZ   -0.007438  -0.013156   0.016786   0.010253   0.003531
   16  C  2  S   -0.139712   0.067196  -0.037061   0.016929  -0.009416
   17  C  2  S    0.291197  -0.139434   0.086186  -0.051612   0.019276
   18  C  2  X   -0.204534  -0.123932  -0.059748  -0.327998  -0.064321
   19  C  2  Y   -0.064333   0.282703   0.297114  -0.122289   0.027105
   20  C  2  Z    0.025500   0.044216  -0.109704  -0.081656   0.335863
   21  C  2  S    0.234923  -0.147541   0.064922   0.003925   0.027788
   22  C  2  X   -0.060677   0.000815  -0.059245  -0.067863  -0.027935
   23  C  2  Y   -0.043943   0.113643   0.068967  -0.031137   0.008043
   24  C  2  Z    0.012225   0.028141  -0.058510  -0.054490   0.194828
   25  C  2 XX   -0.004418   0.007919  -0.000775  -0.009303  -0.003677
   26  C  2 YY    0.009466  -0.010814  -0.000907   0.006662   0.004846
   27  C  2 ZZ   -0.005048   0.002894   0.001681   0.002641  -0.001169
   28  C  2 XY   -0.012298  -0.001824   0.001780  -0.011176   0.000969
   29  C  2 XZ   -0.001458  -0.003804   0.002863   0.000404   0.025344
   30  C  2 YZ    0.001042   0.003008  -0.003505  -0.003544   0.012352
   31  O  3  S    0.075162  -0.040160   0.042673  -0.072035  -0.004546
   32  O  3  S   -0.178262   0.095325  -0.099015   0.155811   0.006843
   33  O  3  X   -0.063726   0.020101  -0.276994   0.380738   0.029888
   34  O  3  Y   -0.018999   0.190066   0.076241   0.265506   0.104090
   35  O  3  Z    0.009372   0.023295  -0.072986  -0.113336   0.483958
   36  O  3  S   -0.186533   0.117246  -0.147029   0.316897   0.036011
   37  O  3  X   -0.044315   0.013833  -0.151028   0.192303   0.010166
   38  O  3  Y   -0.012258   0.097762   0.043363   0.138296   0.059916
   39  O  3  Z    0.003820   0.008202  -0.036124  -0.061096   0.301325
   40  O  3 XX    0.005676   0.005873   0.018373  -0.009810   0.000539
   41  O  3 YY   -0.001151  -0.009869  -0.012157  -0.000425  -0.004153
   42  O  3 ZZ   -0.004525   0.003996  -0.006215   0.010235   0.003614
   43  O  3 XY    0.003839  -0.011843  -0.000229  -0.015341  -0.004656
   44  O  3 XZ   -0.000965  -0.002054   0.004314   0.007021  -0.026884
   45  O  3 YZ   -0.000612   0.000042   0.003066   0.004334  -0.015558
   46  H  4  S    0.132220  -0.195722  -0.121365   0.053195   0.008083
   47  H  4  S    0.042264  -0.114141  -0.114373   0.053134   0.003165
   48  H  5  S   -0.156110  -0.087260   0.005542  -0.025065   0.045928
   49  H  5  S   -0.071875  -0.056142  -0.090780  -0.043858   0.029737
   50  H  6  S   -0.165092  -0.113555   0.070377   0.004484   0.063342
   51  H  6  S   -0.047412  -0.062804   0.141066   0.040271   0.052288
   52  H  7  S    0.071076   0.169145  -0.196546  -0.113598  -0.104829
   53  H  7  S    0.024382   0.103992  -0.151983  -0.098116  -0.101030

                     11         12         13         14         15
                   -0.2649    -0.2178    -0.0423     0.0541     0.1284
                     A          A          A          A          A   
    1  C  1  S    0.070108   0.070515   0.018296  -0.113087   0.051589
    2  C  1  S   -0.139770  -0.152611  -0.023384   0.134789  -0.064450
    3  C  1  X   -0.172488   0.074541   0.096120  -0.275981  -0.122680
    4  C  1  Y   -0.068013  -0.485166   0.102056  -0.200252   0.029919
    5  C  1  Z    0.094398   0.116288   0.091163  -0.233900   0.032044
    6  C  1  S   -0.391891  -0.201372  -0.198773   1.823240  -0.671745
    7  C  1  X   -0.066728   0.158666   0.093136  -0.578197  -0.291371
    8  C  1  Y    0.014486  -0.382742   0.129406  -0.539922   0.239939
    9  C  1  Z    0.037847   0.055833   0.180750  -0.402515   0.131060
   10  C  1 XX   -0.000364  -0.010225   0.004526   0.001598   0.001165
   11  C  1 YY    0.007750   0.031575  -0.004786   0.001043  -0.008017
   12  C  1 ZZ   -0.007385  -0.021350   0.000261  -0.002641   0.006851
   13  C  1 XY    0.011831   0.002292  -0.006388   0.021129  -0.012435
   14  C  1 XZ   -0.002660  -0.004650   0.025669   0.022048  -0.001055
   15  C  1 YZ   -0.006573  -0.000534  -0.014171   0.015836  -0.005436
   16  C  2  S   -0.005740  -0.009254  -0.007019   0.006343  -0.117074
   17  C  2  S    0.004820   0.039106   0.016638   0.025844   0.156148
   18  C  2  X    0.038390  -0.080878  -0.010815   0.039248  -0.054807
   19  C  2  Y   -0.080800   0.113551   0.035296  -0.092190  -0.300927
   20  C  2  Z    0.006768   0.014806   0.467707   0.133821   0.014144
   21  C  2  S    0.004747  -0.148646   0.075763  -0.199584   1.870410
   22  C  2  X   -0.095606  -0.048541   0.029021   0.129153  -0.162207
   23  C  2  Y    0.005503  -0.104422   0.057330  -0.108566  -0.648325
   24  C  2  Z    0.009096   0.022189   0.493200   0.226184   0.006976
   25  C  2 XX   -0.032969   0.021784  -0.005335   0.008550  -0.006446
   26  C  2 YY    0.033016  -0.025961   0.002132  -0.001234  -0.004464
   27  C  2 ZZ   -0.000047   0.004177   0.003203  -0.007316   0.010910
   28  C  2 XY    0.026914   0.008190  -0.007503   0.007721   0.005278
   29  C  2 XZ   -0.005984  -0.007009  -0.029060   0.001178   0.000450
   30  C  2 YZ   -0.002428   0.001863  -0.013224  -0.011185   0.001099
   31  O  3  S   -0.002634  -0.008841   0.004973  -0.011002   0.012942
   32  O  3  S    0.001530   0.012505  -0.010924   0.030727  -0.023780
   33  O  3  X   -0.296699   0.000065   0.029328  -0.080032   0.040168
   34  O  3  Y    0.496146  -0.139379  -0.034150   0.044401   0.108320
   35  O  3  Z   -0.068467  -0.046211  -0.427715  -0.081125  -0.001722
   36  O  3  S    0.055245   0.129977  -0.052830   0.070130  -0.152487
   37  O  3  X   -0.218228  -0.033785   0.033468  -0.108363   0.059494
   38  O  3  Y    0.337641  -0.115479  -0.028122   0.050412   0.200983
   39  O  3  Z   -0.049858  -0.035972  -0.432955  -0.110348  -0.003765
   40  O  3 XX    0.015400   0.002752  -0.000958   0.002514  -0.006304
   41  O  3 YY   -0.015579  -0.002147   0.000999  -0.001060  -0.001747
   42  O  3 ZZ    0.000179  -0.000604  -0.000041  -0.001454   0.008051
   43  O  3 XY   -0.008256   0.004661  -0.001073   0.002906   0.002157
   44  O  3 XZ    0.001560   0.001093   0.000485   0.000076   0.000064
   45  O  3 YZ    0.002655   0.001115   0.001372  -0.002343   0.000561
   46  H  4  S    0.141921  -0.130878   0.008489   0.023901  -0.084434
   47  H  4  S    0.218183  -0.246970   0.018892  -0.150440  -1.778882
   48  H  5  S    0.072115   0.112556   0.094608  -0.049852  -0.022544
   49  H  5  S    0.336676   0.516390   0.038233  -0.975023  -1.189642
   50  H  6  S    0.008848  -0.024026   0.112106  -0.060940   0.051633
   51  H  6  S   -0.209591  -0.447404   0.317602  -0.791775   1.393872
   52  H  7  S    0.058636   0.029453  -0.091822  -0.051189   0.034549
   53  H  7  S    0.105787   0.010585  -0.173066  -0.680917   0.155068

                     16         17         18         19         20
                    0.1394     0.1911     0.2580     0.2831     0.3901
                     A          A          A          A          A   
    1  C  1  S    0.048477   0.026284  -0.017533   0.072613  -0.068037
    2  C  1  S   -0.056165   0.033799  -0.042431  -0.090894   0.134829
    3  C  1  X    0.053636  -0.036077   0.123619  -0.250062  -0.047274
    4  C  1  Y   -0.047584   0.166733  -0.002471  -0.061595  -0.190162
    5  C  1  Z   -0.422492  -0.170260  -0.040231   0.031753   0.011484
    6  C  1  S   -0.860831  -0.948862   1.187669  -0.720636   0.534299
    7  C  1  X    0.231128  -0.393946   0.895131  -1.511347   0.141723
    8  C  1  Y   -0.014821   0.770470  -0.428278  -0.120292  -0.332618
    9  C  1  Z   -1.085584  -0.656991  -0.176277   0.130662  -0.276180
   10  C  1 XX   -0.015300   0.027890   0.005859   0.050748  -0.016840
   11  C  1 YY   -0.001622   0.008211  -0.012664  -0.029969   0.027735
   12  C  1 ZZ    0.016922  -0.036100   0.006805  -0.020779  -0.010895
   13  C  1 XY   -0.004490   0.002089   0.023984  -0.000218  -0.003096
   14  C  1 XZ    0.001726   0.002757   0.009138   0.004201  -0.050449
   15  C  1 YZ    0.008982   0.007050   0.019443  -0.005618  -0.042453
   16  C  2  S    0.011566  -0.053656  -0.011905  -0.082303   0.016717
   17  C  2  S   -0.057521   0.102516   0.014080   0.118736  -0.149677
   18  C  2  X    0.022408  -0.132936   0.219029  -0.256796   0.190573
   19  C  2  Y    0.047715  -0.004443  -0.082665   0.432244  -0.032864
   20  C  2  Z    0.118879   0.009261  -0.092425  -0.021676   0.311467
   21  C  2  S   -0.080483   0.877597   0.377823   1.879429   0.402537
   22  C  2  X   -0.052706  -0.717445   1.991263   0.284820   1.052797
   23  C  2  Y    0.073672  -0.027166   0.043235   1.645026   0.095115
   24  C  2  Z    0.353365   0.182830  -0.036906  -0.106758  -0.067129
   25  C  2 XX    0.000086   0.000150  -0.014163  -0.000714   0.032713
   26  C  2 YY   -0.007988   0.005309   0.009634  -0.014882  -0.029343
   27  C  2 ZZ    0.007902  -0.005459   0.004529   0.015596  -0.003369
   28  C  2 XY    0.002267  -0.002617  -0.019728   0.011281   0.003643
   29  C  2 XZ    0.011086   0.005351  -0.001405  -0.001251   0.018391
   30  C  2 YZ   -0.020065  -0.004309   0.003209   0.002316  -0.014247
   31  O  3  S   -0.000602  -0.004567   0.075593   0.063150   0.036255
   32  O  3  S    0.000101  -0.014751  -0.119792  -0.076305  -0.055664
   33  O  3  X   -0.003493   0.054024   0.082409   0.153298  -0.045482
   34  O  3  Y   -0.015104  -0.039416   0.137739  -0.017724   0.089089
   35  O  3  Z   -0.061488  -0.020222   0.010204   0.004017  -0.046079
   36  O  3  S    0.022089   0.245082  -1.457885  -1.344994  -0.829506
   37  O  3  X    0.005709   0.006600   0.428843   0.686084   0.253257
   38  O  3  Y   -0.033322  -0.109719   0.491869   0.038442   0.276239
   39  O  3  Z   -0.126314  -0.038869  -0.020576  -0.014731  -0.057103
   40  O  3 XX   -0.000850   0.002460  -0.018288  -0.011835  -0.025928
   41  O  3 YY   -0.000888  -0.000419   0.006898  -0.010908   0.009077
   42  O  3 ZZ    0.001739  -0.002041   0.011390   0.022743   0.016852
   43  O  3 XY    0.000273   0.004306  -0.025904  -0.025730  -0.016378
   44  O  3 XZ    0.002764   0.002027   0.006651   0.002643  -0.013714
   45  O  3 YZ   -0.005162  -0.001123   0.004196   0.002928  -0.015095
   46  H  4  S   -0.022170  -0.025307  -0.003093  -0.057504  -0.133165
   47  H  4  S    0.157468  -0.406658  -0.361242   1.024775  -0.068968
   48  H  5  S   -0.133214   0.023671   0.236663   0.022899  -0.477838
   49  H  5  S   -0.896949   4.535469   1.312897  -1.487596   1.004575
   50  H  6  S    0.008642  -0.172352   0.136808  -0.000066  -0.529641
   51  H  6  S    0.373203  -4.509947  -1.771008   0.993818  -0.009659
   52  H  7  S    0.091311  -0.117204   0.014170  -0.010092   0.086628
   53  H  7  S    1.844447   0.360473   0.301013  -0.323387  -0.406967

                     21         22         23         24         25
                    0.5367     0.5562     0.6002     0.6573     0.6808
                     A          A          A          A          A   
    1  C  1  S    0.007525  -0.020489   0.016728  -0.023120  -0.023156
    2  C  1  S   -0.191981  -0.074455  -0.224867   0.155905   0.351093
    3  C  1  X   -0.548391  -0.499568  -0.511677  -0.102944   0.238267
    4  C  1  Y    0.596227   0.306451  -0.708543   0.210852   0.002164
    5  C  1  Z    0.045915  -0.006389  -0.268979  -0.619349  -0.431826
    6  C  1  S    0.209857   0.142973  -0.757137   0.486323  -0.889639
    7  C  1  X    0.800658   0.601219   0.496776   0.406503  -0.755842
    8  C  1  Y   -0.546552  -0.420804   1.082784  -0.305177   0.081749
    9  C  1  Z   -0.024044  -0.233696   0.642362   1.465991   1.023554
   10  C  1 XX    0.002118  -0.018993  -0.060385  -0.007512  -0.011523
   11  C  1 YY   -0.026532   0.007415   0.066850   0.024016  -0.015911
   12  C  1 ZZ    0.024414   0.011578  -0.006465  -0.016504   0.027435
   13  C  1 XY    0.025696   0.007310   0.040658  -0.077085   0.021355
   14  C  1 XZ    0.003575  -0.021323   0.026342   0.042805   0.016471
   15  C  1 YZ   -0.004354  -0.012694   0.034251   0.041713   0.026436
   16  C  2  S   -0.041854  -0.023179  -0.003934   0.022232  -0.047383
   17  C  2  S   -0.027148  -0.185258  -0.424525  -0.342407   0.278123
   18  C  2  X    0.096063   0.102708   0.219712  -0.461348   0.846772
   19  C  2  Y    0.114790   0.002952  -0.156005   0.146571   0.361180
   20  C  2  Z    0.575069  -0.781314   0.110707   0.088684  -0.022032
   21  C  2  S   -0.384687   0.000516   0.651411   0.119798   0.788144
   22  C  2  X   -0.309337  -0.038990  -0.787425   0.907771  -1.019065
   23  C  2  Y   -0.140936  -0.029370   0.174400  -0.979785  -0.041827
   24  C  2  Z   -0.698443   1.079180  -0.318132  -0.456947  -0.232348
   25  C  2 XX   -0.093339  -0.044577   0.008294   0.056488  -0.046603
   26  C  2 YY    0.013918  -0.023934  -0.040424  -0.064924  -0.002298
   27  C  2 ZZ    0.079422   0.068511   0.032131   0.008436   0.048901
   28  C  2 XY    0.029159   0.035256   0.037815   0.068560  -0.115657
   29  C  2 XZ    0.005297   0.005993  -0.000873  -0.009736   0.006717
   30  C  2 YZ    0.016416  -0.022733   0.020441   0.032573   0.023651
   31  O  3  S    0.007656   0.013306   0.010219  -0.016853   0.037879
   32  O  3  S   -0.077388  -0.077690  -0.099268   0.084938  -0.131758
   33  O  3  X    0.138204   0.055666   0.085309  -0.277179   0.238971
   34  O  3  Y   -0.047570  -0.022646  -0.169528   0.122191   0.218087
   35  O  3  Z    0.042959  -0.081968   0.002124  -0.005446  -0.032058
   36  O  3  S    0.274141   0.029414   0.197055  -0.157942   0.087853
   37  O  3  X   -0.025299   0.049913   0.033349  -0.095826   0.344295
   38  O  3  Y   -0.070120   0.005850  -0.008023   0.056809   0.099771
   39  O  3  Z    0.076377  -0.114941   0.065198   0.103157   0.052826
   40  O  3 XX    0.027161   0.008048  -0.012956  -0.040637   0.067540
   41  O  3 YY   -0.020909  -0.007541   0.005103  -0.000238  -0.008586
   42  O  3 ZZ   -0.006252  -0.000508   0.007853   0.040875  -0.058954
   43  O  3 XY    0.014102   0.008258  -0.015621  -0.050929   0.116035
   44  O  3 XZ   -0.037382   0.048916  -0.012397  -0.013759  -0.019569
   45  O  3 YZ   -0.018483   0.021131   0.005858   0.020144   0.006096
   46  H  4  S   -0.071006  -0.180934  -0.090089  -0.374544  -0.059719
   47  H  4  S   -0.056960  -0.017650   0.114284  -0.392116  -0.025866
   48  H  5  S    0.057247  -0.153219   0.031128  -0.099177  -0.076783
   49  H  5  S    0.202798   0.121924   0.751617  -0.683679  -0.820234
   50  H  6  S    0.077902  -0.134077  -0.118728  -0.034304  -0.028891
   51  H  6  S   -0.393103   0.241637  -0.046714   1.443128   1.173281
   52  H  7  S    0.143821  -0.009591  -0.225781  -0.293582  -0.110468
   53  H  7  S    0.046828  -0.120275   0.084408  -0.311875  -0.486165

                     26         27         28         29         30
                    0.7319     0.7634     0.8551     0.8890     0.9233
                     A          A          A          A          A   
    1  C  1  S   -0.009643  -0.008309  -0.012092   0.030854  -0.018123
    2  C  1  S   -0.424862   0.215059   0.068106  -1.152378   0.463391
    3  C  1  X    0.319964   0.297843   0.074376   0.382212   0.050590
    4  C  1  Y    0.110273   0.295038   0.103252   0.053436   0.047099
    5  C  1  Z    0.567672  -0.359095   0.059044  -0.373598   0.060618
    6  C  1  S    0.410588  -1.084847  -0.502419   2.021693  -1.166098
    7  C  1  X   -1.087742  -1.737251  -0.562430  -0.703105  -0.703356
    8  C  1  Y   -0.081071  -0.753735  -0.032595  -0.051737  -0.131356
    9  C  1  Z   -0.898654   0.892806  -0.057612   0.529354   0.021246
   10  C  1 XX   -0.079475  -0.027951  -0.030020  -0.065221   0.053883
   11  C  1 YY    0.080734  -0.018664   0.011325  -0.025978  -0.032554
   12  C  1 ZZ   -0.001259   0.046615   0.018694   0.091198  -0.021329
   13  C  1 XY   -0.005667   0.023472   0.038710   0.036574   0.067651
   14  C  1 XZ    0.061459  -0.000480   0.019067  -0.110004   0.040848
   15  C  1 YZ    0.005228   0.003447   0.006866  -0.021598   0.007193
   16  C  2  S   -0.015305   0.012975   0.051099  -0.014596  -0.018805
   17  C  2  S   -0.639365  -0.133400  -0.971207  -0.707651  -1.051071
   18  C  2  X    0.309531   0.138648   0.184327   0.015500  -0.033714
   19  C  2  Y   -0.123234  -0.825359   0.473091   0.124951  -0.042192
   20  C  2  Z    0.033571   0.037876  -0.026717  -0.016864  -0.001329
   21  C  2  S    1.579237   1.037004   2.977102   0.907808   1.330228
   22  C  2  X   -0.611483  -0.527986  -0.133185  -0.259971  -0.501534
   23  C  2  Y    0.193543   2.997674  -0.340549  -0.527268   0.330603
   24  C  2  Z    0.077194  -0.301092   0.020433  -0.015617  -0.000485
   25  C  2 XX    0.049543   0.071142   0.016945  -0.068055  -0.110510
   26  C  2 YY   -0.124833  -0.031514   0.088011   0.000968   0.052730
   27  C  2 ZZ    0.075290  -0.039628  -0.104956   0.067088   0.057780
   28  C  2 XY    0.033428   0.048418   0.111156   0.007063  -0.133080
   29  C  2 XZ   -0.031061  -0.006579  -0.017364   0.045247  -0.008159
   30  C  2 YZ    0.017340   0.008816  -0.008631  -0.020971   0.017481
   31  O  3  S    0.012662   0.013525   0.029278  -0.014176  -0.047728
   32  O  3  S   -0.065144   0.010542  -0.095978   0.025102   0.271222
   33  O  3  X   -0.114372  -0.144066  -0.351923   0.108352   0.541474
   34  O  3  Y    0.091910  -0.273489  -0.311100   0.065917   0.197221
   35  O  3  Z    0.083601  -0.002230   0.046211  -0.183692   0.059852
   36  O  3  S   -0.135924  -0.855634  -0.628931   0.186135  -0.038410
   37  O  3  X    0.224086   0.502176   0.789248  -0.304944  -0.951946
   38  O  3  Y    0.030869  -0.048876   0.486147  -0.123122  -0.533280
   39  O  3  Z   -0.082175   0.040805  -0.063145   0.199938  -0.037789
   40  O  3 XX   -0.050623  -0.108377  -0.010829   0.004208  -0.019840
   41  O  3 YY    0.018891   0.041550  -0.046154  -0.018525  -0.017987
   42  O  3 ZZ    0.031731   0.066826   0.056982   0.014317   0.037827
   43  O  3 XY    0.018267  -0.014705  -0.072309  -0.012902  -0.004242
   44  O  3 XZ    0.011580  -0.002144   0.006697  -0.006374   0.002615
   45  O  3 YZ   -0.006700   0.012680   0.008367   0.001163   0.007752
   46  H  4  S   -0.653013  -0.019468   0.716317  -0.056692   0.308148
   47  H  4  S    0.318733   1.666643  -1.550722  -0.530463  -0.400924
   48  H  5  S    0.174293  -0.074460   0.014704   0.005485   0.016380
   49  H  5  S   -0.735012  -1.542987  -0.187264   0.236621  -0.776703
   50  H  6  S    0.106719   0.001831  -0.033686   0.098339  -0.117670
   51  H  6  S   -0.741373   1.386125  -0.029704  -0.741249   0.707463
   52  H  7  S   -0.421041   0.053326  -0.160444   0.771433  -0.322305
   53  H  7  S    0.345301  -0.838298   0.033791  -1.747366   0.275538

                     31         32         33         34         35
                    0.9867     1.0818     1.2002     1.3972     1.5148
                     A          A          A          A          A   
    1  C  1  S   -0.001338  -0.009602  -0.089203   0.009762   0.014853
    2  C  1  S    0.260612  -0.193801  -1.762179   0.120459   0.195282
    3  C  1  X   -0.031408  -0.076783   0.084394  -0.032760   0.023375
    4  C  1  Y    0.001234  -0.052270   0.250417  -0.105265   0.030793
    5  C  1  Z    0.155702   0.006222  -0.112536  -0.025246  -0.123712
    6  C  1  S   -0.594478  -0.431790   5.537787  -0.425427  -0.663569
    7  C  1  X   -0.015343  -0.440029   0.257939   0.085220  -0.046944
    8  C  1  Y    0.072910  -0.078151  -2.039225   0.347950   0.152741
    9  C  1  Z   -0.138783   0.039756   0.521729  -0.335101   0.305044
   10  C  1 XX    0.011611  -0.023493   0.056427  -0.053735   0.155724
   11  C  1 YY    0.007117   0.005540   0.151741  -0.149753   0.098364
   12  C  1 ZZ   -0.018728   0.017953  -0.208167   0.203488  -0.254089
   13  C  1 XY    0.000686   0.059122   0.022929  -0.079092   0.232901
   14  C  1 XZ    0.018583   0.009031   0.103268   0.354766  -0.106782
   15  C  1 YZ    0.050225   0.004567  -0.059328  -0.403307  -0.105967
   16  C  2  S   -0.000303  -0.001593   0.034201  -0.005022  -0.001304
   17  C  2  S   -0.041396   0.008520   0.707899  -0.072100  -0.070981
   18  C  2  X    0.005717   0.119209  -0.049055  -0.003875   0.013198
   19  C  2  Y   -0.004341  -0.289548  -0.034205   0.019875   0.008860
   20  C  2  Z    0.115484   0.011646   0.004096   0.037754   0.153614
   21  C  2  S    0.201782  -0.108891  -3.304714   0.229555   0.786498
   22  C  2  X   -0.107275  -0.813383   1.892642  -0.200225  -0.016361
   23  C  2  Y    0.049368   1.714828  -0.132674  -0.102186   0.021349
   24  C  2  Z   -0.577299  -0.078114  -0.193286  -0.041486  -0.152719
   25  C  2 XX    0.006266  -0.136629  -0.033714  -0.030507  -0.011937
   26  C  2 YY   -0.005100   0.144573   0.143702  -0.006403  -0.033328
   27  C  2 ZZ   -0.001166  -0.007943  -0.109988   0.036910   0.045265
   28  C  2 XY   -0.011278   0.071728  -0.027380  -0.019468   0.006391
   29  C  2 XZ   -0.046787  -0.005917  -0.109839  -0.517128  -0.252500
   30  C  2 YZ    0.011341  -0.005621   0.053730   0.183523  -0.524168
   31  O  3  S   -0.001695   0.002037   0.010765   0.001736  -0.012675
   32  O  3  S    0.020988  -0.041638  -0.149025  -0.057580   0.362493
   33  O  3  X   -0.012127  -0.374222   0.175532  -0.000429  -0.076245
   34  O  3  Y   -0.046405   0.715071  -0.081021   0.014199  -0.028485
   35  O  3  Z   -0.917635  -0.034588  -0.019692   0.052384   0.091642
   36  O  3  S   -0.038082   0.009639   0.031191   0.148306  -0.664099
   37  O  3  X    0.027997   0.697441  -0.384804  -0.016361   0.276195
   38  O  3  Y    0.053654  -1.365138   0.231104  -0.039927   0.144684
   39  O  3  Z    1.254494   0.066145   0.090956   0.113236   0.090270
   40  O  3 XX   -0.005621   0.085397   0.036988   0.006039   0.039104
   41  O  3 YY    0.002941  -0.089825   0.058335   0.008933  -0.007550
   42  O  3 ZZ    0.002680   0.004428  -0.095323  -0.014972  -0.031555
   43  O  3 XY    0.004083  -0.067770  -0.008549   0.001727   0.062548
   44  O  3 XZ    0.030514   0.001288   0.006386   0.126765   0.414693
   45  O  3 YZ    0.019996   0.009908   0.044227   0.240860   0.030194
   46  H  4  S    0.004113   0.240857   0.306696  -0.004014  -0.135569
   47  H  4  S    0.015717   0.799207   0.165684  -0.099412  -0.025713
   48  H  5  S    0.052770   0.017090  -0.006653  -0.523044   0.650047
   49  H  5  S   -0.128700  -0.250479  -2.910647   1.804148  -1.081058
   50  H  6  S    0.012214  -0.081363  -0.447599   0.465612  -0.545866
   51  H  6  S    0.011499   0.125321   1.931805  -1.720342   1.333301
   52  H  7  S   -0.172579  -0.095802  -0.610877   0.186084   0.104024
   53  H  7  S    0.479377  -0.077358  -0.742798   0.049639  -0.028664

                     36         37         38         39         40
                    1.5493     1.6270     1.6762     1.7917     1.8080
                     A          A          A          A          A   
    1  C  1  S   -0.020209   0.040749   0.007926  -0.006075   0.000782
    2  C  1  S   -0.248195   0.515929  -0.313313   0.409932   0.017049
    3  C  1  X   -0.031418  -0.007272  -0.213114   0.229546  -0.003973
    4  C  1  Y   -0.013379  -0.002787   0.029965  -0.065597   0.017453
    5  C  1  Z    0.056054  -0.035754   0.021798  -0.001208   0.082381
    6  C  1  S    0.839110  -1.900211  -0.014785  -0.328500  -0.069202
    7  C  1  X    0.054257   0.059314  -0.180964  -0.303191  -0.080272
    8  C  1  Y   -0.215163   0.857529   0.012994   0.051254  -0.041955
    9  C  1  Z    0.219095  -0.079761   0.013271   0.053841  -0.312637
   10  C  1 XX   -0.220612   0.211488   0.387676  -0.252706  -0.084967
   11  C  1 YY   -0.080457   0.081668  -0.472992   0.187243   0.032907
   12  C  1 ZZ    0.301069  -0.293156   0.085315   0.065463   0.052060
   13  C  1 XY   -0.344915   0.167838  -0.048245   0.095783  -0.097280
   14  C  1 XZ   -0.057991  -0.034487   0.016155   0.041671  -0.323358
   15  C  1 YZ    0.188517  -0.094385   0.036617  -0.001109   0.408612
   16  C  2  S    0.000373  -0.025876  -0.002997  -0.023816  -0.002744
   17  C  2  S    0.093235  -0.313571  -0.444866   0.038980  -0.020106
   18  C  2  X   -0.012632  -0.093699   0.139000   0.010067   0.027153
   19  C  2  Y    0.001166   0.000696  -0.053555  -0.097628  -0.001672
   20  C  2  Z    0.106465  -0.008162  -0.002688  -0.000438   0.088428
   21  C  2  S   -1.318361  -0.725077   1.409715   0.677257   0.198274
   22  C  2  X   -0.174665  -2.069429  -0.192493   0.390153   0.065903
   23  C  2  Y   -0.100384  -1.206641   0.253214  -0.317574   0.158303
   24  C  2  Z   -0.147187   0.150417  -0.029317  -0.019749   0.192714
   25  C  2 XX    0.008715  -0.076061   0.159523  -0.235853   0.019484
   26  C  2 YY   -0.049683   0.178690   0.172642   0.394395   0.001789
   27  C  2 ZZ    0.040969  -0.102629  -0.332164  -0.158542  -0.021273
   28  C  2 XY   -0.086333  -0.295310  -0.255991   0.255319   0.005462
   29  C  2 XZ    0.036248  -0.027714   0.036122   0.007738  -0.139207
   30  C  2 YZ   -0.461921   0.060055  -0.052075  -0.043807  -0.063797
   31  O  3  S    0.021537   0.021762  -0.017069   0.004973   0.001264
   32  O  3  S   -0.689690  -1.405625   0.505952   0.072712   0.055207
   33  O  3  X    0.121372  -0.012002  -0.171118   0.183327   0.023787
   34  O  3  Y    0.062914   0.043991   0.016504  -0.175680   0.008107
   35  O  3  Z    0.029919   0.000400  -0.002177  -0.001120   0.069212
   36  O  3  S    1.348245   3.633726  -0.955856  -0.432979  -0.224337
   37  O  3  X   -0.501746  -0.957651   0.451920  -0.085079   0.053292
   38  O  3  Y   -0.274265  -0.588147   0.077421   0.366282   0.017254
   39  O  3  Z    0.090746   0.041792  -0.008260  -0.006231  -0.109617
   40  O  3 XX   -0.039553  -0.123471   0.040484   0.495589   0.039351
   41  O  3 YY    0.022353   0.195944   0.460265  -0.087759   0.115762
   42  O  3 ZZ    0.017200  -0.072473  -0.500749  -0.407830  -0.155113
   43  O  3 XY   -0.062185  -0.181392  -0.108456  -0.453825  -0.046306
   44  O  3 XZ    0.295560  -0.031194   0.005915   0.021324  -0.190362
   45  O  3 YZ   -0.130803   0.051174  -0.112178  -0.083160   0.798434
   46  H  4  S    0.201230  -0.243421  -0.184758  -0.506834   0.004625
   47  H  4  S    0.053754  -0.363712  -0.126444  -0.077330   0.039604
   48  H  5  S   -0.667462   0.381939  -0.233612  -0.181772   0.031307
   49  H  5  S    0.867385  -0.353019   0.451642  -0.037328   0.028400
   50  H  6  S    0.630160  -0.165152   0.187404   0.155771  -0.025514
   51  H  6  S   -0.938411   0.675749  -0.580080   0.074969  -0.174221
   52  H  7  S   -0.243964   0.285721  -0.062484  -0.020844  -0.013577
   53  H  7  S   -0.212334   0.309728  -0.168901   0.020539   0.125596

                     41         42         43         44         45
                    1.9289     2.0328     2.0683     2.2510     2.2885
                     A          A          A          A          A   
    1  C  1  S   -0.048857   0.008291   0.018245   0.020653   0.012578
    2  C  1  S   -0.346481   0.110042  -0.008585   0.103255   0.108940
    3  C  1  X    0.072540   0.030342  -0.071108  -0.040983  -0.080217
    4  C  1  Y   -0.128378   0.021995   0.020090   0.001730  -0.024500
    5  C  1  Z    0.027220  -0.036172  -0.010956  -0.029862   0.063582
    6  C  1  S    1.868119  -0.397815  -0.345575  -0.682694  -0.662988
    7  C  1  X    0.385315  -0.284117   0.219192  -0.297441  -0.578434
    8  C  1  Y   -0.222682   0.031641   0.141021   0.160003   0.082986
    9  C  1  Z   -0.087825  -0.553554  -0.462157  -0.157558   0.174447
   10  C  1 XX    0.311862  -0.241889   0.230025  -0.013148  -0.106880
   11  C  1 YY   -0.609921   0.087621   0.128834   0.222195   0.271860
   12  C  1 ZZ    0.298058   0.154268  -0.358859  -0.209047  -0.164980
   13  C  1 XY    0.449854   0.179200  -0.306541   0.294192   0.551323
   14  C  1 XZ    0.074689   0.213646   0.073621   0.843594  -0.460973
   15  C  1 YZ    0.284521   0.603072   0.437493   0.250046  -0.033921
   16  C  2  S    0.024086   0.001020  -0.016197  -0.027842  -0.041093
   17  C  2  S    0.319259   0.141957  -0.331955  -0.137987  -0.124658
   18  C  2  X   -0.204522  -0.156811   0.244413  -0.063727  -0.183478
   19  C  2  Y   -0.050143   0.108425  -0.112173   0.058985   0.118541
   20  C  2  Z    0.018865   0.024105   0.030907  -0.062191   0.054456
   21  C  2  S   -1.676832  -0.042355   0.753609   0.812319   1.030140
   22  C  2  X    0.280176  -0.195592   0.016250  -0.183964  -0.174746
   23  C  2  Y   -1.355217   0.357987  -0.090977   0.383382   0.642723
   24  C  2  Z    0.104513   0.302657   0.254031  -0.082550  -0.020610
   25  C  2 XX   -0.444158  -0.062273   0.234347   0.174753   0.125316
   26  C  2 YY    0.310017  -0.242150   0.304785   0.004372   0.163303
   27  C  2 ZZ    0.134141   0.304423  -0.539132  -0.179125  -0.288619
   28  C  2 XY   -0.120482   0.003327   0.006238   0.129727   0.219240
   29  C  2 XZ    0.013221  -0.228319  -0.212529   0.225072  -0.078043
   30  C  2 YZ   -0.006939   0.402229   0.260246  -0.436007   0.159872
   31  O  3  S   -0.016788  -0.002957   0.009352   0.008193   0.009781
   32  O  3  S   -0.143443  -0.007458   0.010112  -0.034430  -0.030542
   33  O  3  X   -0.134974  -0.066864   0.129845   0.080438   0.098100
   34  O  3  Y   -0.228376   0.025471   0.050515   0.091729   0.115387
   35  O  3  Z    0.028784   0.057049   0.040402  -0.024297   0.004595
   36  O  3  S    1.129247   0.109769  -0.368362  -0.283338  -0.423565
   37  O  3  X   -0.439599   0.043444   0.051320   0.123421   0.186533
   38  O  3  Y    0.195949  -0.154507   0.100686  -0.119700  -0.216486
   39  O  3  Z   -0.028416  -0.151462  -0.139063   0.066098  -0.047432
   40  O  3 XX   -0.031169  -0.098440   0.152620  -0.112919  -0.242209
   41  O  3 YY   -0.287251   0.387175  -0.463480   0.135989   0.287920
   42  O  3 ZZ    0.318420  -0.288735   0.310860  -0.023070  -0.045712
   43  O  3 XY    0.095503  -0.045281   0.081699   0.142827   0.309565
   44  O  3 XZ    0.045316   0.316578   0.261565  -0.231447   0.149483
   45  O  3 YZ    0.064534  -0.223347  -0.083362   0.167161  -0.067858
   46  H  4  S   -0.370900   0.280818  -0.295947   0.003771  -0.012075
   47  H  4  S   -0.307394   0.118530  -0.106966   0.052711   0.146336
   48  H  5  S   -0.385118   0.209723  -0.148143  -0.627843  -1.254348
   49  H  5  S    0.007473  -0.144419   0.573816   0.699314   0.796073
   50  H  6  S   -0.078996  -0.586435   0.121675   0.233517   1.355695
   51  H  6  S   -0.147432   0.082047  -0.567602  -0.547945  -0.840506
   52  H  7  S   -0.294185   0.324631   0.467696   0.516521  -0.269216
   53  H  7  S   -0.095443   0.096221   0.081264  -0.141200  -0.074514

                     46         47         48         49         50
                    2.3620     2.5121     2.5779     2.8564     2.9443
                     A          A          A          A          A   
    1  C  1  S   -0.025497   0.053969   0.003999   0.028034  -0.011844
    2  C  1  S   -0.238414   0.116981   0.011278  -0.129734   0.076048
    3  C  1  X    0.044106  -0.271373  -0.013016  -0.205667   0.099287
    4  C  1  Y   -0.066109   0.083839   0.013761   0.167695  -0.054594
    5  C  1  Z    0.019993  -0.002188   0.022954   0.000302  -0.004902
    6  C  1  S    1.089690  -1.615178  -0.118315  -0.139422   0.083743
    7  C  1  X    0.448761  -0.865274  -0.062980  -0.240604   0.175229
    8  C  1  Y   -0.271539   0.280188   0.015104   0.095711   0.045467
    9  C  1  Z    0.026212   0.002361   0.034295   0.049955   0.000975
   10  C  1 XX    0.325048  -0.784050  -0.062247  -0.182679   0.056605
   11  C  1 YY    0.313544   0.462630  -0.004710  -0.071847   0.013628
   12  C  1 ZZ   -0.638593   0.321420   0.066957   0.254525  -0.070233
   13  C  1 XY   -0.091951   0.116027  -0.005028   0.554106  -0.221378
   14  C  1 XZ    0.010917   0.027956   0.141792  -0.036443   0.009547
   15  C  1 YZ    0.070038  -0.027208  -0.183571   0.006772  -0.008572
   16  C  2  S    0.062880  -0.032205  -0.002608  -0.043662  -0.028799
   17  C  2  S    0.137697  -0.060620   0.007021  -0.344988  -1.322579
   18  C  2  X    0.100654  -0.226463  -0.000468  -0.406053  -1.089661
   19  C  2  Y   -0.135617   0.060936   0.020668  -0.169699  -0.632273
   20  C  2  Z    0.022433  -0.017727   0.240845   0.020337   0.059359
   21  C  2  S   -0.976541   1.750804   0.114121   0.088144  -1.737363
   22  C  2  X    0.354058  -0.754836  -0.047761  -0.320808  -0.715948
   23  C  2  Y   -0.335461   0.872231   0.066832  -0.478868  -0.512527
   24  C  2  Z    0.005233  -0.039484   0.235479   0.018980   0.044107
   25  C  2 XX   -0.415649  -0.137135   0.047253   0.848895  -0.715429
   26  C  2 YY   -0.233745   0.453911   0.063343  -0.763902   0.267851
   27  C  2 ZZ    0.649394  -0.316775  -0.110596  -0.084992   0.447578
   28  C  2 XY   -0.422405  -0.851067   0.006092  -0.608107  -0.376681
   29  C  2 XZ    0.102242  -0.024934   0.908027   0.001106   0.059493
   30  C  2 YZ    0.062827  -0.054216   0.392251   0.054025   0.022024
   31  O  3  S   -0.026918  -0.019286  -0.000358  -0.011081  -0.061250
   32  O  3  S    0.411350   0.559563   0.025276  -0.336605  -0.684839
   33  O  3  X   -0.338013  -0.334572  -0.012089  -0.011891  -0.249641
   34  O  3  Y   -0.202617  -0.136225  -0.005619   0.040781  -0.161942
   35  O  3  Z    0.022523   0.014386  -0.010744  -0.001814   0.013783
   36  O  3  S   -0.040414  -0.720732  -0.043264   1.010455   3.095203
   37  O  3  X    0.059044   0.500603   0.018906  -0.676832  -1.530298
   38  O  3  Y    0.226275  -0.029213  -0.019545   0.079737  -0.936431
   39  O  3  Z   -0.038273   0.023493  -0.451407   0.016273   0.083000
   40  O  3 XX    0.193054  -0.165405   0.024919   0.844278   0.764077
   41  O  3 YY   -0.138037  -0.001536   0.039407  -0.654550  -0.056505
   42  O  3 ZZ   -0.055017   0.166941  -0.064326  -0.189728  -0.707572
   43  O  3 XY   -0.237467   0.124244   0.051958  -0.127579   1.138964
   44  O  3 XZ    0.054000  -0.063541   0.846377  -0.023625  -0.095142
   45  O  3 YZ    0.043578  -0.031205   0.517666   0.026813  -0.062819
   46  H  4  S    0.154526  -0.264336  -0.020676   0.266002  -0.032958
   47  H  4  S   -0.103542   0.340047   0.027653  -0.395896   0.022898
   48  H  5  S   -1.025857   0.191722   0.146103  -0.166577   0.140411
   49  H  5  S    0.801737  -0.133589  -0.174499  -0.088713  -0.211468
   50  H  6  S    1.022025  -0.137565  -0.125688   0.052054  -0.092824
   51  H  6  S   -0.853568   0.102238   0.195290   0.083813   0.224485
   52  H  7  S    0.120952   0.044928  -0.014002  -0.137048   0.032333
   53  H  7  S   -0.180096  -0.011571  -0.018056  -0.017235   0.038493
 ...... END OF RHF CALCULATION ......
 STEP CPU TIME =     5.33 TOTAL CPU TIME =          5.5 (      0.1 MIN)
 TOTAL WALL CLOCK TIME=          5.5 SECONDS, CPU UTILIZATION IS    99.27%

     ---------------------------------------------------------------------
     PROPERTIES FOR THE B3LYP    DFT FUNCTIONAL (RHF  TYPE) DENSITY MATRIX
     ---------------------------------------------------------------------

          -----------------
          ENERGY COMPONENTS
          -----------------

         WAVEFUNCTION NORMALIZATION =       1.0000000000

                ONE ELECTRON ENERGY =    -345.9489339846
                TWO ELECTRON ENERGY =     122.3123966468
           NUCLEAR REPULSION ENERGY =      70.5329592598
                                      ------------------
                       TOTAL ENERGY =    -153.1035780780

 ELECTRON-ELECTRON POTENTIAL ENERGY =     122.3123966468
  NUCLEUS-ELECTRON POTENTIAL ENERGY =    -499.3516806907
   NUCLEUS-NUCLEUS POTENTIAL ENERGY =      70.5329592598
                                      ------------------
             TOTAL POTENTIAL ENERGY =    -306.5063247842
               TOTAL KINETIC ENERGY =     153.4027467061
                 VIRIAL RATIO (V/T) =       1.9980497831

          ---------------------------------------
          MULLIKEN AND LOWDIN POPULATION ANALYSES
          ---------------------------------------

     ATOMIC MULLIKEN POPULATION IN EACH MOLECULAR ORBITAL

                      1          2          3          4          5

                  2.000000   2.000000   2.000000   2.000000   2.000000

    1            -0.000027   0.001265   1.995490   0.023570   0.602340
    2             0.002251   2.000573   0.001778   0.522345   0.088487
    3             1.997748  -0.002786   0.000011   1.446499   0.027683
    4             0.000029   0.000915  -0.000003  -0.001775  -0.000721
    5             0.000000  -0.000043   0.001333   0.004693   0.683012
    6            -0.000001   0.000060   0.000107   0.004121   0.564250
    7            -0.000001   0.000017   0.001284   0.000546   0.034950

                      6          7          8          9         10

                  2.000000   2.000000   2.000000   2.000000   2.000000

    1             0.541245   0.493275   0.519814   0.234789   0.083414
    2             0.877904   0.643192   0.493299   0.415597   0.634229
    3             0.204060   0.257596   0.505869   1.215629   1.188872
    4             0.143070   0.306508   0.134632   0.027784   0.000393
    5             0.088211   0.022568   0.010073   0.002724   0.003556
    6             0.100755   0.040970   0.021264   0.001342   0.007647
    7             0.044754   0.235891   0.315049   0.102136   0.081890

                     11         12

                  2.000000   2.000000

    1             0.307729   1.557216
    2             0.060689   0.114801
    3             1.392899   0.075287
    4             0.164770   0.134747
    5             0.036200  -0.005153
    6             0.008503   0.120775
    7             0.029209   0.002327

               ----- POPULATIONS IN EACH AO -----
                             MULLIKEN      LOWDIN
              1  C  1  S      1.99683     1.98069
              2  C  1  S      0.71263     0.40136
              3  C  1  X      0.59959     0.53113
              4  C  1  Y      0.84668     0.81131
              5  C  1  Z      0.55000     0.48355
              6  C  1  S      0.70877     0.38426
              7  C  1  X      0.18615     0.32892
              8  C  1  Y      0.56303     0.72883
              9  C  1  Z      0.15617     0.35895
             10  C  1 XX      0.00407     0.17573
             11  C  1 YY      0.00266     0.12803
             12  C  1 ZZ      0.01280     0.18312
             13  C  1 XY      0.01174     0.02364
             14  C  1 XZ      0.00898     0.03154
             15  C  1 YZ      0.00000     0.01674
             16  C  2  S      1.99651     1.97447
             17  C  2  S      0.70311     0.36384
             18  C  2  X      0.73989     0.64399
             19  C  2  Y      0.74571     0.64589
             20  C  2  Z      0.46649     0.41990
             21  C  2  S      0.46787     0.31559
             22  C  2  X      0.12057     0.28359
             23  C  2  Y      0.23172     0.38303
             24  C  2  Z      0.29640     0.33433
             25  C  2 XX      0.00483     0.22314
             26  C  2 YY      0.04143     0.19162
             27  C  2 ZZ      0.02597     0.10362
             28  C  2 XY      0.01161     0.05297
             29  C  2 XZ      0.00304     0.02148
             30  C  2 YZ      0.00000     0.00521
             31  O  3  S      1.99732     1.97778
             32  O  3  S      0.93323     0.72498
             33  O  3  X      0.99067     0.92588
             34  O  3  Y      1.10486     1.05636
             35  O  3  Z      0.75145     0.70008
             36  O  3  S      0.92985     0.46911
             37  O  3  X      0.48228     0.56263
             38  O  3  Y      0.59714     0.65973
             39  O  3  Z      0.49445     0.53286
             40  O  3 XX      0.00228     0.18467
             41  O  3 YY      0.00742     0.17295
             42  O  3 ZZ      0.00714     0.17407
             43  O  3 XY      0.00848     0.01570
             44  O  3 XZ      0.00281     0.01136
             45  O  3 YZ      0.00000     0.00372
             46  H  4  S      0.53628     0.50758
             47  H  4  S      0.37407     0.39924
             48  H  5  S      0.74176     0.61596
             49  H  5  S      0.10541     0.18072
             50  H  6  S      0.71664     0.59032
             51  H  6  S      0.15316     0.18546
             52  H  7  S      0.51561     0.46708
             53  H  7  S      0.33245     0.35131

          ----- MULLIKEN ATOMIC OVERLAP POPULATIONS -----
          (OFF-DIAGONAL ELEMENTS NEED TO BE MULTIPLIED BY 2)

             1           2           3           4           5

    1    5.8136611
    2    0.3762452   4.6019198
    3   -0.0570283   0.5509682   7.8881533
    4   -0.1598301   0.3516840  -0.0761920   0.7852939
    5   -0.2937591  -0.0147081   0.0138782  -0.0167451   1.4661675
    6    0.3334270   0.0223210  -0.0121130   0.0187101  -0.3738749
    7    0.3474039  -0.0332851   0.0016996   0.0074297   0.0662151

             6           7

    6    0.9683442
    7   -0.0870224   0.5456124

          TOTAL MULLIKEN AND LOWDIN ATOMIC POPULATIONS
       ATOM         MULL.POP.    CHARGE          LOW.POP.     CHARGE
    1 C             6.360120   -0.360120         6.567806   -0.567806
    2 C             5.855145    0.144855         5.962666    0.037334
    3 O             8.309366   -0.309366         8.171868   -0.171868
    4 H             0.910351    0.089649         0.906817    0.093183
    5 H             0.847174    0.152826         0.796675    0.203325
    6 H             0.869792    0.130208         0.775780    0.224220
    7 H             0.848053    0.151947         0.818387    0.181613

          MULLIKEN SPHERICAL HARMONIC POPULATIONS
       ATOM           S       P       D      F      G      H      I    TOTAL
    1 C             3.42    2.90    0.04   0.00   0.00   0.00   0.00    6.36
    2 C             3.17    2.60    0.09   0.00   0.00   0.00   0.00    5.86
    3 O             3.86    4.42    0.03   0.00   0.00   0.00   0.00    8.31
    4 H             0.91    0.00    0.00   0.00   0.00   0.00   0.00    0.91
    5 H             0.85    0.00    0.00   0.00   0.00   0.00   0.00    0.85
    6 H             0.87    0.00    0.00   0.00   0.00   0.00   0.00    0.87
    7 H             0.85    0.00    0.00   0.00   0.00   0.00   0.00    0.85

          -------------------------------
          BOND ORDER AND VALENCE ANALYSIS     BOND ORDER THRESHOLD=0.050
          -------------------------------

                   BOND                       BOND                       BOND
  ATOM PAIR DIST  ORDER      ATOM PAIR DIST  ORDER      ATOM PAIR DIST  ORDER
    1   2  1.509  1.124        1   5  1.093  0.190        1   6  1.098  0.553
    1   7  1.098  0.922        2   3  1.211  2.026        2   4  1.115  0.878
    5   6  0.331  0.531

                       TOTAL       BONDED        FREE
      ATOM            VALENCE     VALENCE     VALENCE
    1 C                 2.816       2.816       0.000
    2 C                 4.045       4.045      -0.000
    3 O                 2.117       2.117       0.000
    4 H                 0.918       0.918      -0.000
    5 H                 0.767       0.767      -0.000
    6 H                 1.086       1.086       0.000
    7 H                 0.950       0.950       0.000

          ---------------------
          ELECTROSTATIC MOMENTS
          ---------------------

 POINT   1           X           Y           Z (BOHR)    CHARGE
                -0.000000    0.000000    0.000000       -0.00 (A.U.)
         DX          DY          DZ         /D/  (DEBYE)
    -3.032798   -2.845312   -0.532768    4.192553
 ...... END OF PROPERTY EVALUATION ......
 STEP CPU TIME =     0.00 TOTAL CPU TIME =          5.5 (      0.1 MIN)
 TOTAL WALL CLOCK TIME=          5.5 SECONDS, CPU UTILIZATION IS    99.27%
                580000  WORDS OF DYNAMIC MEMORY USED
 EXECUTION OF GAMESS TERMINATED NORMALLY Thu Oct 17 23:42:55 2019
 DDI: 263640 bytes (0.3 MB / 0 MWords) used by master data server.

 ----------------------------------------
 CPU timing information for all processes
 ========================================
 0: 5.326 + 0.153 = 5.480
 ----------------------------------------
 ddikick.x: exited gracefully.
----- accounting info -----
Files used on the master node crcfe01.crc.nd.edu were:
-rw-r--r-- 1 cdrisko campus      490 Oct 17 23:42 /afs/crc.nd.edu/user/c/cdrisko/acetaldehyde.F05
-rw-r--r-- 1 cdrisko campus    45118 Oct 17 23:42 /afs/crc.nd.edu/user/c/cdrisko/acetaldehyde.F07
-rw-r--r-- 1 cdrisko campus 11881056 Oct 17 23:42 /afs/crc.nd.edu/user/c/cdrisko/acetaldehyde.F08
-rw-r--r-- 1 cdrisko campus  1799600 Oct 17 23:42 /afs/crc.nd.edu/user/c/cdrisko/acetaldehyde.F10
Thu Oct 17 23:42:59 EDT 2019
0.315u 0.219s 0:09.03 5.7%	0+0k 0+24io 0pf+0w
