  13  13   1   0
  0.5712941E+02  0.5880300E-09  0.5880300E-09  0.2480125E-08  0.5000000E-15
  1.000000000000000E-004
  CAR 
 unknown system                          
      8.96067033    -20.89732060  301     -1.28612713      1.00000000
    -20.897  0.0000E+00  0.0000E+00
    -20.798  0.0000E+00  0.0000E+00
    -20.698  0.0000E+00  0.0000E+00
    -20.599  0.0000E+00  0.0000E+00
    -20.499  0.0000E+00  0.0000E+00
    -20.400 -0.6199E-31 -0.6169E-32
    -20.300 -0.6400E-24 -0.6369E-25
    -20.201 -0.9100E-18 -0.9057E-19
    -20.101 -0.1719E-12 -0.1711E-13
    -20.002 -0.4501E-08 -0.4479E-09
    -19.902 -0.1559E-04 -0.1552E-05
    -19.803 -0.6789E-02 -0.6772E-03
    -19.703 -0.3077E+00 -0.3131E-01
    -19.603  0.6753E+00  0.3590E-01
    -19.504  0.1330E+02  0.1360E+01
    -19.404  0.7137E+01  0.2070E+01
    -19.305 -0.6234E+00  0.2008E+01
    -19.205 -0.7786E-01  0.2000E+01
    -19.106 -0.5996E-03  0.2000E+01
    -19.006 -0.5379E-06  0.2000E+01
    -18.907 -0.6193E-10  0.2000E+01
    -18.807  0.0000E+00  0.2000E+01
    -18.708  0.0000E+00  0.2000E+01
    -18.608  0.0000E+00  0.2000E+01
    -18.509  0.0000E+00  0.2000E+01
    -18.409  0.0000E+00  0.2000E+01
    -18.310  0.0000E+00  0.2000E+01
    -18.210  0.0000E+00  0.2000E+01
    -18.111  0.0000E+00  0.2000E+01
    -18.011  0.0000E+00  0.2000E+01
    -17.912  0.0000E+00  0.2000E+01
    -17.812  0.0000E+00  0.2000E+01
    -17.712  0.0000E+00  0.2000E+01
    -17.613  0.0000E+00  0.2000E+01
    -17.513  0.0000E+00  0.2000E+01
    -17.414  0.0000E+00  0.2000E+01
    -17.314  0.0000E+00  0.2000E+01
    -17.215  0.0000E+00  0.2000E+01
    -17.115  0.0000E+00  0.2000E+01
    -17.016  0.0000E+00  0.2000E+01
    -16.916  0.0000E+00  0.2000E+01
    -16.817  0.0000E+00  0.2000E+01
    -16.717  0.0000E+00  0.2000E+01
    -16.618  0.0000E+00  0.2000E+01
    -16.518  0.0000E+00  0.2000E+01
    -16.419  0.0000E+00  0.2000E+01
    -16.319  0.0000E+00  0.2000E+01
    -16.220  0.0000E+00  0.2000E+01
    -16.120  0.0000E+00  0.2000E+01
    -16.021  0.0000E+00  0.2000E+01
    -15.921  0.0000E+00  0.2000E+01
    -15.821  0.0000E+00  0.2000E+01
    -15.722  0.0000E+00  0.2000E+01
    -15.622  0.0000E+00  0.2000E+01
    -15.523  0.0000E+00  0.2000E+01
    -15.423  0.0000E+00  0.2000E+01
    -15.324  0.0000E+00  0.2000E+01
    -15.224  0.0000E+00  0.2000E+01
    -15.125  0.0000E+00  0.2000E+01
    -15.025  0.0000E+00  0.2000E+01
    -14.926  0.0000E+00  0.2000E+01
    -14.826  0.0000E+00  0.2000E+01
    -14.727  0.0000E+00  0.2000E+01
    -14.627  0.0000E+00  0.2000E+01
    -14.528  0.0000E+00  0.2000E+01
    -14.428  0.0000E+00  0.2000E+01
    -14.329  0.0000E+00  0.2000E+01
    -14.229  0.0000E+00  0.2000E+01
    -14.130  0.0000E+00  0.2000E+01
    -14.030  0.0000E+00  0.2000E+01
    -13.930  0.0000E+00  0.2000E+01
    -13.831  0.0000E+00  0.2000E+01
    -13.731  0.0000E+00  0.2000E+01
    -13.632  0.0000E+00  0.2000E+01
    -13.532  0.0000E+00  0.2000E+01
    -13.433  0.0000E+00  0.2000E+01
    -13.333  0.0000E+00  0.2000E+01
    -13.234  0.0000E+00  0.2000E+01
    -13.134  0.0000E+00  0.2000E+01
    -13.035  0.0000E+00  0.2000E+01
    -12.935  0.0000E+00  0.2000E+01
    -12.836  0.0000E+00  0.2000E+01
    -12.736  0.0000E+00  0.2000E+01
    -12.637  0.0000E+00  0.2000E+01
    -12.537  0.0000E+00  0.2000E+01
    -12.438  0.0000E+00  0.2000E+01
    -12.338  0.0000E+00  0.2000E+01
    -12.239  0.0000E+00  0.2000E+01
    -12.139  0.0000E+00  0.2000E+01
    -12.039  0.0000E+00  0.2000E+01
    -11.940  0.0000E+00  0.2000E+01
    -11.840  0.0000E+00  0.2000E+01
    -11.741  0.0000E+00  0.2000E+01
    -11.641  0.0000E+00  0.2000E+01
    -11.542  0.0000E+00  0.2000E+01
    -11.442  0.0000E+00  0.2000E+01
    -11.343  0.0000E+00  0.2000E+01
    -11.243  0.0000E+00  0.2000E+01
    -11.144  0.0000E+00  0.2000E+01
    -11.044  0.0000E+00  0.2000E+01
    -10.945  0.0000E+00  0.2000E+01
    -10.845  0.0000E+00  0.2000E+01
    -10.746  0.0000E+00  0.2000E+01
    -10.646 -0.3800E-31  0.2000E+01
    -10.547 -0.2641E-24  0.2000E+01
    -10.447 -0.2487E-18  0.2000E+01
    -10.347 -0.3050E-13  0.2000E+01
    -10.248 -0.5082E-09  0.2000E+01
    -10.148 -0.1099E-05  0.2000E+01
    -10.049 -0.2977E-03  0.2000E+01
     -9.949 -0.9524E-02  0.1999E+01
     -9.850 -0.8521E-02  0.1998E+01
     -9.750  0.5264E+00  0.2051E+01
     -9.651  0.1066E+01  0.2157E+01
     -9.551  0.8489E+00  0.2241E+01
     -9.452  0.1709E+01  0.2411E+01
     -9.352  0.5404E+00  0.2465E+01
     -9.253  0.9005E+00  0.2555E+01
     -9.153  0.2100E+01  0.2764E+01
     -9.054  0.1140E+01  0.2877E+01
     -8.954  0.3235E+00  0.2909E+01
     -8.855  0.1464E+01  0.3055E+01
     -8.755  0.2770E+01  0.3331E+01
     -8.656  0.9995E+00  0.3430E+01
     -8.556  0.9327E+00  0.3523E+01
     -8.456  0.2995E+01  0.3821E+01
     -8.357  0.1417E+01  0.3962E+01
     -8.257  0.1784E+01  0.4140E+01
     -8.158  0.3547E+01  0.4493E+01
     -8.058  0.8257E+01  0.5314E+01
     -7.959  0.6939E+01  0.6005E+01
     -7.859  0.2003E+01  0.6204E+01
     -7.760  0.3242E+01  0.6527E+01
     -7.660  0.1151E+02  0.7672E+01
     -7.561  0.1395E+02  0.9060E+01
     -7.461  0.1280E+02  0.1033E+02
     -7.362  0.1248E+02  0.1158E+02
     -7.262  0.1437E+02  0.1301E+02
     -7.163  0.1486E+02  0.1449E+02
     -7.063  0.2422E+02  0.1690E+02
     -6.964  0.2594E+02  0.1948E+02
     -6.864  0.2652E+02  0.2212E+02
     -6.765  0.2708E+02  0.2481E+02
     -6.665  0.2107E+02  0.2691E+02
     -6.565  0.1713E+02  0.2861E+02
     -6.466  0.1903E+02  0.3051E+02
     -6.366  0.2114E+02  0.3261E+02
     -6.267  0.2007E+02  0.3461E+02
     -6.167  0.1618E+02  0.3622E+02
     -6.068  0.1243E+02  0.3746E+02
     -5.968  0.2424E+02  0.3987E+02
     -5.869  0.3264E+02  0.4312E+02
     -5.769  0.3114E+02  0.4622E+02
     -5.670  0.3475E+02  0.4968E+02
     -5.570  0.3133E+02  0.5279E+02
     -5.471  0.2757E+02  0.5554E+02
     -5.371  0.2772E+02  0.5830E+02
     -5.272  0.2908E+02  0.6119E+02
     -5.172  0.3297E+02  0.6447E+02
     -5.073  0.3085E+02  0.6754E+02
     -4.973  0.2931E+02  0.7046E+02
     -4.874  0.2760E+02  0.7321E+02
     -4.774  0.2752E+02  0.7595E+02
     -4.674  0.2872E+02  0.7881E+02
     -4.575  0.2603E+02  0.8140E+02
     -4.475  0.2545E+02  0.8393E+02
     -4.376  0.3345E+02  0.8726E+02
     -4.276  0.3097E+02  0.9034E+02
     -4.177  0.3537E+02  0.9386E+02
     -4.077  0.3207E+02  0.9705E+02
     -3.978  0.2426E+02  0.9947E+02
     -3.878  0.2367E+02  0.1018E+03
     -3.779  0.2881E+02  0.1047E+03
     -3.679  0.2359E+02  0.1070E+03
     -3.580  0.2700E+02  0.1097E+03
     -3.480  0.3863E+02  0.1136E+03
     -3.381  0.4457E+02  0.1180E+03
     -3.281  0.3958E+02  0.1219E+03
     -3.182  0.2518E+02  0.1245E+03
     -3.082  0.2285E+02  0.1267E+03
     -2.983  0.1755E+02  0.1285E+03
     -2.883  0.8005E+01  0.1293E+03
     -2.783  0.3859E+01  0.1297E+03
     -2.684  0.7206E+01  0.1304E+03
     -2.584  0.1194E+02  0.1316E+03
     -2.485  0.9404E+01  0.1325E+03
     -2.385  0.8264E+01  0.1333E+03
     -2.286  0.3737E+01  0.1337E+03
     -2.186  0.4959E+01  0.1342E+03
     -2.087  0.3958E+01  0.1346E+03
     -1.987  0.7205E+01  0.1353E+03
     -1.888  0.3221E+01  0.1356E+03
     -1.788  0.2880E+01  0.1359E+03
     -1.689  0.8492E+01  0.1367E+03
     -1.589  0.6155E+01  0.1374E+03
     -1.490  0.9448E-01  0.1374E+03
     -1.390  0.1088E+01  0.1375E+03
     -1.291  0.4929E+01  0.1380E+03
     -1.191  0.7756E+01  0.1387E+03
     -1.092  0.5845E+01  0.1393E+03
     -0.992  0.5579E+01  0.1399E+03
     -0.892  0.4177E+01  0.1403E+03
     -0.793  0.2334E+01  0.1405E+03
     -0.693  0.8726E+00  0.1406E+03
     -0.594  0.6557E+01  0.1413E+03
     -0.494  0.6823E+01  0.1419E+03
     -0.395  0.2429E+01  0.1422E+03
     -0.295  0.2264E+01  0.1424E+03
     -0.196  0.5432E+01  0.1430E+03
     -0.096  0.4490E+01  0.1434E+03
      0.003  0.4742E+01  0.1439E+03
      0.103  0.4632E+01  0.1443E+03
      0.202  0.6443E+01  0.1450E+03
      0.302  0.2370E+01  0.1452E+03
      0.401  0.1530E+01  0.1454E+03
      0.501  0.4459E+01  0.1458E+03
      0.600  0.3655E+01  0.1462E+03
      0.700  0.3145E+01  0.1465E+03
      0.799  0.4819E+01  0.1470E+03
      0.899  0.2913E+01  0.1472E+03
      0.999  0.4563E+01  0.1477E+03
      1.098  0.4010E+01  0.1481E+03
      1.198  0.4946E+01  0.1486E+03
      1.297  0.3375E+01  0.1489E+03
      1.397  0.5858E+01  0.1495E+03
      1.496  0.5823E+01  0.1501E+03
      1.596  0.3221E+01  0.1504E+03
      1.695  0.5451E+00  0.1505E+03
      1.795  0.3617E+01  0.1508E+03
      1.894  0.5912E+01  0.1514E+03
      1.994  0.4231E+01  0.1518E+03
      2.093  0.8872E+00  0.1519E+03
      2.193  0.2709E+01  0.1522E+03
      2.292  0.5176E+01  0.1527E+03
      2.392  0.8115E+01  0.1535E+03
      2.491  0.6161E+01  0.1541E+03
      2.591  0.5285E+01  0.1547E+03
      2.690  0.4584E+01  0.1551E+03
      2.790  0.2401E+01  0.1554E+03
      2.890  0.3848E+01  0.1557E+03
      2.989  0.5837E+01  0.1563E+03
      3.089  0.4207E+01  0.1567E+03
      3.188  0.4391E+01  0.1572E+03
      3.288  0.3243E+01  0.1575E+03
      3.387  0.2485E+01  0.1577E+03
      3.487  0.2571E+01  0.1580E+03
      3.586  0.7545E+01  0.1588E+03
      3.686  0.4385E+01  0.1592E+03
      3.785  0.6133E+01  0.1598E+03
      3.885  0.8819E+01  0.1607E+03
      3.984  0.8367E+01  0.1615E+03
      4.084  0.5235E+01  0.1620E+03
      4.183  0.3942E+01  0.1624E+03
      4.283  0.7001E+01  0.1631E+03
      4.382  0.6400E+01  0.1638E+03
      4.482  0.9941E+01  0.1647E+03
      4.581  0.8274E+01  0.1656E+03
      4.681  0.1062E+02  0.1666E+03
      4.781  0.1068E+02  0.1677E+03
      4.880  0.5966E+01  0.1683E+03
      4.980  0.4561E+01  0.1687E+03
      5.079  0.8472E+01  0.1696E+03
      5.179  0.1131E+02  0.1707E+03
      5.278  0.7379E+01  0.1714E+03
      5.378  0.9002E+01  0.1723E+03
      5.477  0.7276E+01  0.1731E+03
      5.577  0.7097E+01  0.1738E+03
      5.676  0.1051E+02  0.1748E+03
      5.776  0.1262E+02  0.1761E+03
      5.875  0.7943E+01  0.1769E+03
      5.975  0.9768E+01  0.1778E+03
      6.074  0.1135E+02  0.1790E+03
      6.174  0.1322E+02  0.1803E+03
      6.273  0.1022E+02  0.1813E+03
      6.373  0.6832E+01  0.1820E+03
      6.473  0.9651E+01  0.1829E+03
      6.572  0.1045E+02  0.1840E+03
      6.672  0.1063E+02  0.1850E+03
      6.771  0.1137E+02  0.1862E+03
      6.871  0.1497E+02  0.1877E+03
      6.970  0.1406E+02  0.1891E+03
      7.070  0.6419E+01  0.1897E+03
      7.169  0.2706E+01  0.1900E+03
      7.269  0.9432E+01  0.1909E+03
      7.368  0.6732E+01  0.1916E+03
      7.468  0.1499E+01  0.1917E+03
      7.567  0.1603E+01  0.1919E+03
      7.667  0.1246E+01  0.1920E+03
      7.766  0.1622E-01  0.1920E+03
      7.866 -0.2640E-01  0.1920E+03
      7.965 -0.5457E-03  0.1920E+03
      8.065 -0.1234E-05  0.1920E+03
      8.164 -0.3592E-09  0.1920E+03
      8.264 -0.1416E-13  0.1920E+03
      8.364  0.0000E+00  0.1920E+03
      8.463  0.0000E+00  0.1920E+03
      8.563  0.0000E+00  0.1920E+03
      8.662  0.0000E+00  0.1920E+03
      8.762  0.0000E+00  0.1920E+03
      8.861  0.0000E+00  0.1920E+03
      8.961  0.0000E+00  0.1920E+03
      8.96067033    -20.89732060  301     -1.28612713      1.00000000
    -20.897  0.0000E+00  0.0000E+00  0.0000E+00
    -20.798  0.0000E+00  0.0000E+00  0.0000E+00
    -20.698  0.0000E+00  0.0000E+00  0.0000E+00
    -20.599  0.0000E+00  0.0000E+00  0.0000E+00
    -20.499  0.0000E+00  0.0000E+00  0.0000E+00
    -20.400 -0.6542E-39 -0.4251E-39 -0.8176E-40
    -20.300 -0.6523E-32 -0.4248E-32 -0.8264E-33
    -20.201 -0.8925E-26 -0.5819E-26 -0.1149E-26
    -20.101 -0.1617E-20 -0.1054E-20 -0.2119E-21
    -20.002 -0.4046E-16 -0.2633E-16 -0.5410E-17
    -19.902 -0.1336E-12 -0.8666E-13 -0.1827E-13
    -19.803 -0.5534E-10 -0.3569E-10 -0.7753E-11
    -19.703 -0.2363E-08 -0.1511E-08 -0.3412E-09
    -19.603  0.5995E-08  0.3930E-08  0.8049E-09
    -19.504  0.9821E-07  0.6229E-07  0.1448E-07
    -19.404  0.4951E-07  0.3093E-07  0.7552E-08
    -19.305 -0.4568E-08 -0.2896E-08 -0.6760E-09
    -19.205 -0.5246E-09 -0.3248E-09 -0.8134E-10
    -19.106 -0.3881E-11 -0.2370E-11 -0.6159E-12
    -19.006 -0.3369E-14 -0.2031E-14 -0.5451E-15
    -18.907 -0.3769E-18 -0.2243E-18 -0.6205E-19
    -18.807  0.0000E+00  0.0000E+00  0.0000E+00
    -18.708  0.0000E+00  0.0000E+00  0.0000E+00
    -18.608  0.0000E+00  0.0000E+00  0.0000E+00
    -18.509  0.0000E+00  0.0000E+00  0.0000E+00
    -18.409  0.0000E+00  0.0000E+00  0.0000E+00
    -18.310  0.0000E+00  0.0000E+00  0.0000E+00
    -18.210  0.0000E+00  0.0000E+00  0.0000E+00
    -18.111  0.0000E+00  0.0000E+00  0.0000E+00
    -18.011  0.0000E+00  0.0000E+00  0.0000E+00
    -17.912  0.0000E+00  0.0000E+00  0.0000E+00
    -17.812  0.0000E+00  0.0000E+00  0.0000E+00
    -17.712  0.0000E+00  0.0000E+00  0.0000E+00
    -17.613  0.0000E+00  0.0000E+00  0.0000E+00
    -17.513  0.0000E+00  0.0000E+00  0.0000E+00
    -17.414  0.0000E+00  0.0000E+00  0.0000E+00
    -17.314  0.0000E+00  0.0000E+00  0.0000E+00
    -17.215  0.0000E+00  0.0000E+00  0.0000E+00
    -17.115  0.0000E+00  0.0000E+00  0.0000E+00
    -17.016  0.0000E+00  0.0000E+00  0.0000E+00
    -16.916  0.0000E+00  0.0000E+00  0.0000E+00
    -16.817  0.0000E+00  0.0000E+00  0.0000E+00
    -16.717  0.0000E+00  0.0000E+00  0.0000E+00
    -16.618  0.0000E+00  0.0000E+00  0.0000E+00
    -16.518  0.0000E+00  0.0000E+00  0.0000E+00
    -16.419  0.0000E+00  0.0000E+00  0.0000E+00
    -16.319  0.0000E+00  0.0000E+00  0.0000E+00
    -16.220  0.0000E+00  0.0000E+00  0.0000E+00
    -16.120  0.0000E+00  0.0000E+00  0.0000E+00
    -16.021  0.0000E+00  0.0000E+00  0.0000E+00
    -15.921  0.0000E+00  0.0000E+00  0.0000E+00
    -15.821  0.0000E+00  0.0000E+00  0.0000E+00
    -15.722  0.0000E+00  0.0000E+00  0.0000E+00
    -15.622  0.0000E+00  0.0000E+00  0.0000E+00
    -15.523  0.0000E+00  0.0000E+00  0.0000E+00
    -15.423  0.0000E+00  0.0000E+00  0.0000E+00
    -15.324  0.0000E+00  0.0000E+00  0.0000E+00
    -15.224  0.0000E+00  0.0000E+00  0.0000E+00
    -15.125  0.0000E+00  0.0000E+00  0.0000E+00
    -15.025  0.0000E+00  0.0000E+00  0.0000E+00
    -14.926  0.0000E+00  0.0000E+00  0.0000E+00
    -14.826  0.0000E+00  0.0000E+00  0.0000E+00
    -14.727  0.0000E+00  0.0000E+00  0.0000E+00
    -14.627  0.0000E+00  0.0000E+00  0.0000E+00
    -14.528  0.0000E+00  0.0000E+00  0.0000E+00
    -14.428  0.0000E+00  0.0000E+00  0.0000E+00
    -14.329  0.0000E+00  0.0000E+00  0.0000E+00
    -14.229  0.0000E+00  0.0000E+00  0.0000E+00
    -14.130  0.0000E+00  0.0000E+00  0.0000E+00
    -14.030  0.0000E+00  0.0000E+00  0.0000E+00
    -13.930  0.0000E+00  0.0000E+00  0.0000E+00
    -13.831  0.0000E+00  0.0000E+00  0.0000E+00
    -13.731  0.0000E+00  0.0000E+00  0.0000E+00
    -13.632  0.0000E+00  0.0000E+00  0.0000E+00
    -13.532  0.0000E+00  0.0000E+00  0.0000E+00
    -13.433  0.0000E+00  0.0000E+00  0.0000E+00
    -13.333  0.0000E+00  0.0000E+00  0.0000E+00
    -13.234  0.0000E+00  0.0000E+00  0.0000E+00
    -13.134  0.0000E+00  0.0000E+00  0.0000E+00
    -13.035  0.0000E+00  0.0000E+00  0.0000E+00
    -12.935  0.0000E+00  0.0000E+00  0.0000E+00
    -12.836  0.0000E+00  0.0000E+00  0.0000E+00
    -12.736  0.0000E+00  0.0000E+00  0.0000E+00
    -12.637  0.0000E+00  0.0000E+00  0.0000E+00
    -12.537  0.0000E+00  0.0000E+00  0.0000E+00
    -12.438  0.0000E+00  0.0000E+00  0.0000E+00
    -12.338  0.0000E+00  0.0000E+00  0.0000E+00
    -12.239  0.0000E+00  0.0000E+00  0.0000E+00
    -12.139  0.0000E+00  0.0000E+00  0.0000E+00
    -12.039  0.0000E+00  0.0000E+00  0.0000E+00
    -11.940  0.0000E+00  0.0000E+00  0.0000E+00
    -11.840  0.0000E+00  0.0000E+00  0.0000E+00
    -11.741  0.0000E+00  0.0000E+00  0.0000E+00
    -11.641  0.0000E+00  0.0000E+00  0.0000E+00
    -11.542  0.0000E+00  0.0000E+00  0.0000E+00
    -11.442  0.0000E+00  0.0000E+00  0.0000E+00
    -11.343  0.0000E+00  0.0000E+00  0.0000E+00
    -11.243  0.0000E+00  0.0000E+00  0.0000E+00
    -11.144  0.0000E+00  0.0000E+00  0.0000E+00
    -11.044  0.0000E+00  0.0000E+00  0.0000E+00
    -10.945  0.0000E+00  0.0000E+00  0.0000E+00
    -10.845  0.0000E+00  0.0000E+00  0.0000E+00
    -10.746  0.0000E+00  0.0000E+00  0.0000E+00
    -10.646 -0.1247E-32 -0.8630E-34 -0.5275E-36
    -10.547 -0.8665E-26 -0.5998E-27 -0.3666E-29
    -10.447 -0.8158E-20 -0.5648E-21 -0.3453E-23
    -10.347 -0.1001E-14 -0.6928E-16 -0.4244E-18
    -10.248 -0.1667E-10 -0.1154E-11 -0.7140E-14
    -10.148 -0.3605E-07 -0.2498E-08 -0.1633E-10
    -10.049 -0.9760E-05 -0.6792E-06 -0.5871E-08
     -9.949 -0.3110E-03 -0.2221E-04 -0.4653E-06
     -9.850 -0.2568E-03 -0.2807E-04 -0.5169E-05
     -9.750  0.1711E-01  0.1257E-02  0.4202E-04
     -9.651  0.3454E-01  0.2594E-02  0.1090E-03
     -9.551  0.2666E-01  0.2340E-02  0.3113E-03
     -9.452  0.5284E-01  0.4945E-02  0.8680E-03
     -9.352  0.1675E-01  0.1566E-02  0.2597E-03
     -9.253  0.2572E-01  0.3042E-02  0.1156E-02
     -9.153  0.5997E-01  0.7063E-02  0.2700E-02
     -9.054  0.3094E-01  0.3982E-02  0.2040E-02
     -8.954  0.8968E-02  0.1139E-02  0.5417E-03
     -8.855  0.3410E-01  0.5335E-02  0.4180E-02
     -8.755  0.6313E-01  0.1001E-01  0.8282E-02
     -8.656  0.1825E-01  0.3362E-02  0.3746E-02
     -8.556  0.1218E-01  0.2743E-02  0.3746E-02
     -8.456  0.2234E-01  0.7080E-02  0.1108E-01
     -8.357  0.7222E-02  0.3091E-02  0.4482E-02
     -8.257  0.6793E-01  0.5249E-02  0.2106E-01
     -8.158  0.1409E+00  0.9649E-02  0.3959E-01
     -8.058  0.2265E+00  0.1843E-01  0.4430E-01
     -7.959  0.1626E+00  0.1561E-01  0.4773E-01
     -7.859  0.3341E-01  0.3707E-02  0.8405E-01
     -7.760  0.7349E-01  0.7033E-02  0.1034E+00
     -7.660  0.2082E+00  0.2995E-01  0.1828E+00
     -7.561  0.2114E+00  0.3377E-01  0.2480E+00
     -7.461  0.1091E+00  0.2512E-01  0.2803E+00
     -7.362  0.9696E-01  0.2493E-01  0.2788E+00
     -7.262  0.9152E-01  0.3755E-01  0.3044E+00
     -7.163  0.1286E+00  0.3713E-01  0.4412E+00
     -7.063  0.2284E+00  0.4648E-01  0.1258E+01
     -6.964  0.2292E+00  0.4786E-01  0.1338E+01
     -6.864  0.2615E+00  0.6120E-01  0.1386E+01
     -6.765  0.2176E+00  0.5881E-01  0.1279E+01
     -6.665  0.1045E+00  0.3254E-01  0.1068E+01
     -6.565  0.5677E-01  0.2407E-01  0.8211E+00
     -6.466  0.3221E-01  0.1700E-01  0.8037E+00
     -6.366  0.2317E-01  0.2375E-01  0.7983E+00
     -6.267  0.3031E-01  0.2957E-01  0.1028E+01
     -6.167  0.1439E-01  0.1963E-01  0.1233E+01
     -6.068  0.7800E-02  0.1218E-01  0.8492E+00
     -5.968  0.2703E-01  0.2742E-01  0.1367E+01
     -5.869  0.3071E-01  0.3997E-01  0.2347E+01
     -5.769  0.3633E-01  0.3382E-01  0.2098E+01
     -5.670  0.4503E-01  0.4135E-01  0.2200E+01
     -5.570  0.5379E-01  0.3004E-01  0.2067E+01
     -5.471  0.3102E-01  0.2659E-01  0.1617E+01
     -5.371  0.4784E-01  0.4895E-01  0.1641E+01
     -5.272  0.8797E-01  0.3801E-01  0.2218E+01
     -5.172  0.5929E-01  0.3548E-01  0.3043E+01
     -5.073  0.3148E-01  0.4034E-01  0.2958E+01
     -4.973  0.4350E-01  0.3871E-01  0.3196E+01
     -4.874  0.7732E-01  0.4890E-01  0.2861E+01
     -4.774  0.7890E-01  0.6854E-01  0.2530E+01
     -4.674  0.9249E-01  0.7379E-01  0.2072E+01
     -4.575  0.4999E-01  0.5593E-01  0.1757E+01
     -4.475  0.5206E-01  0.4659E-01  0.2117E+01
     -4.376  0.7515E-01  0.4873E-01  0.3015E+01
     -4.276  0.5945E-01  0.3986E-01  0.2637E+01
     -4.177  0.7009E-01  0.5476E-01  0.2579E+01
     -4.077  0.4539E-01  0.6082E-01  0.2361E+01
     -3.978  0.3757E-01  0.4710E-01  0.2347E+01
     -3.878  0.3645E-01  0.3559E-01  0.2329E+01
     -3.779  0.3157E-01  0.3904E-01  0.2670E+01
     -3.679  0.2167E-01  0.2897E-01  0.1545E+01
     -3.580  0.2048E-01  0.1979E-01  0.1217E+01
     -3.480  0.2397E-01  0.3616E-01  0.2162E+01
     -3.381  0.3905E-01  0.4435E-01  0.3234E+01
     -3.281  0.4419E-01  0.4003E-01  0.3472E+01
     -3.182  0.2391E-01  0.2615E-01  0.2029E+01
     -3.082  0.4787E-01  0.2446E-01  0.1636E+01
     -2.983  0.8679E-01  0.3008E-01  0.1399E+01
     -2.883  0.4660E-01  0.1529E-01  0.7447E+00
     -2.783  0.2398E-01  0.7010E-02  0.2440E+00
     -2.684  0.4977E-01  0.1928E-01  0.2595E+00
     -2.584  0.6026E-01  0.3860E-01  0.3598E+00
     -2.485  0.7186E-01  0.5909E-01  0.3296E+00
     -2.385  0.2554E-01  0.2909E-01  0.1670E+00
     -2.286  0.3038E-02  0.8545E-02  0.2842E-01
     -2.186  0.4858E-02  0.6131E-02  0.5362E-03
     -2.087  0.2469E-01  0.1978E-01  0.7588E-01
     -1.987  0.8232E-01  0.7891E-01  0.3853E+00
     -1.888  0.4064E-01  0.3258E-01  0.1764E+00
     -1.788  0.2667E-01  0.1880E-01  0.5771E-01
     -1.689  0.4000E-01  0.6517E-01  0.1731E+00
     -1.589  0.1213E-01  0.4620E-01  0.1324E+00
     -1.490 -0.1996E-02  0.5899E-04  0.4510E-02
     -1.390  0.1326E-01  0.1612E-01  0.4928E-01
     -1.291  0.1096E+00  0.6858E-01  0.1744E+00
     -1.191  0.2379E+00  0.1081E+00  0.2013E+00
     -1.092  0.9895E-01  0.1016E+00  0.7527E-01
     -0.992  0.1140E+00  0.1097E+00  0.1892E+00
     -0.892  0.9833E-01  0.5647E-01  0.2232E+00
     -0.793  0.7546E-01  0.1369E-01  0.1000E+00
     -0.693  0.1280E-01  0.2213E-02  0.3012E-01
     -0.594  0.8332E-01  0.4387E-01  0.1776E+00
     -0.494  0.1423E+00  0.6797E-01  0.1708E+00
     -0.395  0.6775E-01  0.2389E-01  0.6615E-01
     -0.295  0.2733E-01  0.5574E-02  0.8534E-01
     -0.196  0.3749E-01  0.3087E-01  0.1591E+00
     -0.096  0.6271E-01  0.4930E-01  0.1367E+00
      0.003  0.4072E-01  0.1264E+00  0.1125E+00
      0.103  0.5207E-01  0.1131E+00  0.5793E-01
      0.202  0.4582E-01  0.1312E+00  0.6559E-01
      0.302 -0.1255E-03  0.6980E-01  0.5281E-02
      0.401  0.1408E-01  0.6022E-01  0.1999E-01
      0.501  0.4406E-01  0.1330E+00  0.6201E-01
      0.600  0.6117E-01  0.5956E-01  0.5801E-01
      0.700  0.3366E-01  0.3896E-01  0.5621E-01
      0.799  0.9150E-02  0.9293E-01  0.6005E-01
      0.899  0.2833E-01  0.4477E-01  0.4613E-01
      0.999  0.1211E+00  0.6256E-01  0.7166E-01
      1.098  0.5096E-01  0.6726E-01  0.6001E-01
      1.198  0.6597E-01  0.1062E+00  0.9398E-01
      1.297  0.2729E-01  0.7915E-01  0.4928E-01
      1.397  0.1126E+00  0.9488E-01  0.8610E-01
      1.496  0.1896E+00  0.5977E-01  0.1063E+00
      1.596  0.8154E-01  0.2744E-01  0.5599E-01
      1.695  0.1709E-02  0.3946E-02  0.9320E-02
      1.795  0.5737E-01  0.3411E-01  0.5228E-01
      1.894  0.1852E+00  0.7942E-01  0.7302E-01
      1.994  0.1553E+00  0.4472E-01  0.5355E-01
      2.093  0.2836E-01  0.1968E-01  0.1215E-01
      2.193  0.1052E+00  0.2917E-01  0.4736E-01
      2.292  0.1045E+00  0.5527E-01  0.9195E-01
      2.392  0.1299E+00  0.8728E-01  0.1457E+00
      2.491  0.1822E+00  0.5909E-01  0.1137E+00
      2.591  0.1550E+00  0.7479E-01  0.9384E-01
      2.690  0.1373E+00  0.8168E-01  0.7849E-01
      2.790  0.8347E-01  0.4528E-01  0.4727E-01
      2.890  0.1124E+00  0.5538E-01  0.5348E-01
      2.989  0.1564E+00  0.8191E-01  0.8319E-01
      3.089  0.2139E-01  0.6484E-01  0.5630E-01
      3.188  0.9470E-01  0.7468E-01  0.5085E-01
      3.288  0.1209E+00  0.7025E-01  0.3313E-01
      3.387  0.1674E-01  0.5996E-01  0.2178E-01
      3.487  0.2359E-01  0.5977E-01  0.3583E-01
      3.586  0.1594E+00  0.1479E+00  0.8013E-01
      3.686  0.7222E-01  0.6014E-01  0.3538E-01
      3.785  0.3148E-01  0.6449E-01  0.5995E-01
      3.885  0.9641E-01  0.1172E+00  0.9808E-01
      3.984  0.1387E+00  0.1510E+00  0.7712E-01
      4.084  0.3690E-01  0.9751E-01  0.3934E-01
      4.183  0.4661E-02  0.6598E-01  0.2945E-01
      4.283  0.2924E-01  0.1031E+00  0.5755E-01
      4.382  0.2760E-01  0.8528E-01  0.4849E-01
      4.482  0.5828E-01  0.1423E+00  0.5732E-01
      4.581  0.1071E+00  0.1191E+00  0.5444E-01
      4.681  0.7416E-01  0.1341E+00  0.8090E-01
      4.781  0.7720E-01  0.2008E+00  0.7420E-01
      4.880  0.2805E-01  0.1233E+00  0.3633E-01
      4.980  0.3080E-01  0.4243E-01  0.3005E-01
      5.079  0.8496E-01  0.8963E-01  0.4781E-01
      5.179  0.8398E-01  0.1494E+00  0.6453E-01
      5.278  0.2684E-01  0.9145E-01  0.4528E-01
      5.378  0.4761E-01  0.1210E+00  0.5001E-01
      5.477  0.8702E-01  0.6192E-01  0.4367E-01
      5.577  0.4276E-01  0.3851E-01  0.3689E-01
      5.676  0.2432E-01  0.1261E+00  0.4606E-01
      5.776  0.6004E-01  0.2271E+00  0.6551E-01
      5.875  0.4113E-01  0.1451E+00  0.4264E-01
      5.975  0.5475E-01  0.1095E+00  0.3625E-01
      6.074  0.1168E+00  0.1557E+00  0.4404E-01
      6.174  0.1321E+00  0.2198E+00  0.6524E-01
      6.273  0.7059E-01  0.1237E+00  0.4836E-01
      6.373  0.1064E-01  0.2356E-01  0.1941E-01
      6.473  0.7321E-01  0.9966E-01  0.3595E-01
      6.572  0.5949E-01  0.1345E+00  0.5810E-01
      6.672  0.2321E-01  0.1547E+00  0.7739E-01
      6.771  0.2759E-01  0.1737E+00  0.5602E-01
      6.871  0.3363E-01  0.1676E+00  0.5955E-01
      6.970  0.3573E-01  0.1491E+00  0.4834E-01
      7.070  0.1222E-01  0.5390E-01  0.1990E-01
      7.169  0.6447E-02  0.1850E-01  0.5015E-02
      7.269  0.6205E-01  0.1276E+00  0.3205E-01
      7.368  0.3511E-01  0.1031E+00  0.2030E-01
      7.468  0.3274E-02  0.2315E-01  0.2891E-02
      7.567  0.7841E-02  0.1041E-01  0.3279E-02
      7.667  0.2331E-02  0.9361E-02  0.1434E-02
      7.766 -0.8470E-04  0.4718E-04  0.5341E-05
      7.866 -0.4634E-04 -0.1946E-03 -0.3195E-04
      7.965 -0.1173E-05 -0.3608E-05 -0.8145E-06
      8.065 -0.3347E-08 -0.7187E-08 -0.2255E-08
      8.164 -0.1193E-11 -0.1794E-11 -0.7840E-12
      8.264 -0.5559E-16 -0.5913E-16 -0.3589E-16
      8.364  0.0000E+00  0.0000E+00  0.0000E+00
      8.463  0.0000E+00  0.0000E+00  0.0000E+00
      8.563  0.0000E+00  0.0000E+00  0.0000E+00
      8.662  0.0000E+00  0.0000E+00  0.0000E+00
      8.762  0.0000E+00  0.0000E+00  0.0000E+00
      8.861  0.0000E+00  0.0000E+00  0.0000E+00
      8.961  0.0000E+00  0.0000E+00  0.0000E+00
      8.96067033    -20.89732060  301     -1.28612713      1.00000000
    -20.897  0.0000E+00  0.0000E+00  0.0000E+00
    -20.798  0.0000E+00  0.0000E+00  0.0000E+00
    -20.698  0.0000E+00  0.0000E+00  0.0000E+00
    -20.599  0.0000E+00  0.0000E+00  0.0000E+00
    -20.499  0.0000E+00  0.0000E+00  0.0000E+00
    -20.400 -0.1161E-38 -0.8682E-39 -0.4571E-39
    -20.300 -0.1128E-31 -0.8500E-32 -0.4626E-32
    -20.201 -0.1497E-25 -0.1138E-25 -0.6434E-26
    -20.101 -0.2617E-20 -0.2012E-20 -0.1186E-20
    -20.002 -0.6273E-16 -0.4887E-16 -0.3025E-16
    -19.902 -0.1972E-12 -0.1561E-12 -0.1019E-12
    -19.803 -0.7707E-10 -0.6223E-10 -0.4308E-10
    -19.703 -0.3044E-08 -0.2528E-08 -0.1885E-08
    -19.603  0.9190E-08  0.7177E-08  0.4523E-08
    -19.504  0.1194E-06  0.1014E-06  0.7957E-07
    -19.404  0.5415E-07  0.4799E-07  0.4113E-07
    -19.305 -0.5487E-08 -0.4679E-08 -0.3715E-08
    -19.205 -0.5423E-09 -0.4924E-09 -0.4407E-09
    -19.106 -0.3681E-11 -0.3475E-11 -0.3311E-11
    -19.006 -0.2949E-14 -0.2892E-14 -0.2909E-14
    -18.907 -0.3052E-18 -0.3112E-18 -0.3287E-18
    -18.807  0.0000E+00  0.0000E+00  0.0000E+00
    -18.708  0.0000E+00  0.0000E+00  0.0000E+00
    -18.608  0.0000E+00  0.0000E+00  0.0000E+00
    -18.509  0.0000E+00  0.0000E+00  0.0000E+00
    -18.409  0.0000E+00  0.0000E+00  0.0000E+00
    -18.310  0.0000E+00  0.0000E+00  0.0000E+00
    -18.210  0.0000E+00  0.0000E+00  0.0000E+00
    -18.111  0.0000E+00  0.0000E+00  0.0000E+00
    -18.011  0.0000E+00  0.0000E+00  0.0000E+00
    -17.912  0.0000E+00  0.0000E+00  0.0000E+00
    -17.812  0.0000E+00  0.0000E+00  0.0000E+00
    -17.712  0.0000E+00  0.0000E+00  0.0000E+00
    -17.613  0.0000E+00  0.0000E+00  0.0000E+00
    -17.513  0.0000E+00  0.0000E+00  0.0000E+00
    -17.414  0.0000E+00  0.0000E+00  0.0000E+00
    -17.314  0.0000E+00  0.0000E+00  0.0000E+00
    -17.215  0.0000E+00  0.0000E+00  0.0000E+00
    -17.115  0.0000E+00  0.0000E+00  0.0000E+00
    -17.016  0.0000E+00  0.0000E+00  0.0000E+00
    -16.916  0.0000E+00  0.0000E+00  0.0000E+00
    -16.817  0.0000E+00  0.0000E+00  0.0000E+00
    -16.717  0.0000E+00  0.0000E+00  0.0000E+00
    -16.618  0.0000E+00  0.0000E+00  0.0000E+00
    -16.518  0.0000E+00  0.0000E+00  0.0000E+00
    -16.419  0.0000E+00  0.0000E+00  0.0000E+00
    -16.319  0.0000E+00  0.0000E+00  0.0000E+00
    -16.220  0.0000E+00  0.0000E+00  0.0000E+00
    -16.120  0.0000E+00  0.0000E+00  0.0000E+00
    -16.021  0.0000E+00  0.0000E+00  0.0000E+00
    -15.921  0.0000E+00  0.0000E+00  0.0000E+00
    -15.821  0.0000E+00  0.0000E+00  0.0000E+00
    -15.722  0.0000E+00  0.0000E+00  0.0000E+00
    -15.622  0.0000E+00  0.0000E+00  0.0000E+00
    -15.523  0.0000E+00  0.0000E+00  0.0000E+00
    -15.423  0.0000E+00  0.0000E+00  0.0000E+00
    -15.324  0.0000E+00  0.0000E+00  0.0000E+00
    -15.224  0.0000E+00  0.0000E+00  0.0000E+00
    -15.125  0.0000E+00  0.0000E+00  0.0000E+00
    -15.025  0.0000E+00  0.0000E+00  0.0000E+00
    -14.926  0.0000E+00  0.0000E+00  0.0000E+00
    -14.826  0.0000E+00  0.0000E+00  0.0000E+00
    -14.727  0.0000E+00  0.0000E+00  0.0000E+00
    -14.627  0.0000E+00  0.0000E+00  0.0000E+00
    -14.528  0.0000E+00  0.0000E+00  0.0000E+00
    -14.428  0.0000E+00  0.0000E+00  0.0000E+00
    -14.329  0.0000E+00  0.0000E+00  0.0000E+00
    -14.229  0.0000E+00  0.0000E+00  0.0000E+00
    -14.130  0.0000E+00  0.0000E+00  0.0000E+00
    -14.030  0.0000E+00  0.0000E+00  0.0000E+00
    -13.930  0.0000E+00  0.0000E+00  0.0000E+00
    -13.831  0.0000E+00  0.0000E+00  0.0000E+00
    -13.731  0.0000E+00  0.0000E+00  0.0000E+00
    -13.632  0.0000E+00  0.0000E+00  0.0000E+00
    -13.532  0.0000E+00  0.0000E+00  0.0000E+00
    -13.433  0.0000E+00  0.0000E+00  0.0000E+00
    -13.333  0.0000E+00  0.0000E+00  0.0000E+00
    -13.234  0.0000E+00  0.0000E+00  0.0000E+00
    -13.134  0.0000E+00  0.0000E+00  0.0000E+00
    -13.035  0.0000E+00  0.0000E+00  0.0000E+00
    -12.935  0.0000E+00  0.0000E+00  0.0000E+00
    -12.836  0.0000E+00  0.0000E+00  0.0000E+00
    -12.736  0.0000E+00  0.0000E+00  0.0000E+00
    -12.637  0.0000E+00  0.0000E+00  0.0000E+00
    -12.537  0.0000E+00  0.0000E+00  0.0000E+00
    -12.438  0.0000E+00  0.0000E+00  0.0000E+00
    -12.338  0.0000E+00  0.0000E+00  0.0000E+00
    -12.239  0.0000E+00  0.0000E+00  0.0000E+00
    -12.139  0.0000E+00  0.0000E+00  0.0000E+00
    -12.039  0.0000E+00  0.0000E+00  0.0000E+00