   13   13    1    1
  0.5712941E+02  0.5880300E-09  0.5880300E-09  0.2480124E-08  0.5000000E-15
  1.000000000000000E-004
  CAR 
 unknown system                          
    138     12     96
 
  0.0000000E+00  0.0000000E+00  0.0000000E+00  0.1234568E-01
    1      -19.540139   1.000000
    2       -9.798578   1.000000
    3       -8.294873   1.000000
    4       -7.975953   1.000000
    5       -7.723799   1.000000
    6       -7.723755   1.000000
    7       -7.675996   1.000000
    8       -7.582967   1.000000
    9       -7.582965   1.000000
   10       -7.528161   1.000000
   11       -7.131582   1.000000
   12       -7.131567   1.000000
   13       -7.127437   1.000000
   14       -7.049195   1.000000
   15       -7.049195   1.000000
   16       -7.009111   1.000000
   17       -6.521307   1.000000
   18       -6.521251   1.000000
   19       -6.026330   1.000000
   20       -5.863608   1.000000
   21       -5.863605   1.000000
   22       -5.787350   1.000000
   23       -5.668692   1.000000
   24       -5.654717   1.000000
   25       -5.654713   1.000000
   26       -5.564778   1.000000
   27       -5.564777   1.000000
   28       -5.323922   1.000000
   29       -5.323922   1.000000
   30       -5.235639   1.000000
   31       -5.186047   1.000000
   32       -5.186047   1.000000
   33       -5.100130   1.000000
   34       -4.814046   1.000000
   35       -4.814022   1.000000
   36       -4.778231   1.000000
   37       -4.581854   1.000000
   38       -4.581849   1.000000
   39       -4.224385   1.000000
   40       -4.224384   1.000000
   41       -4.185629   1.000000
   42       -4.153037   1.000000
   43       -4.090405   1.000000
   44       -4.090398   1.000000
   45       -3.931375   1.000000
   46       -3.931374   1.000000
   47       -3.589334   1.000000
   48       -3.589327   1.000000
   49       -3.472398   1.000000
   50       -3.426315   1.000000
   51       -3.378863   1.000000
   52       -3.378863   1.000000
   53       -3.361678   1.000000
   54       -3.361678   1.000000
   55       -3.162997   1.000000
   56       -3.162997   1.000000
   57       -3.140649   1.000000
   58       -3.079622   1.000000
   59       -3.079617   1.000000
   60       -3.028350   1.000000
   61       -2.930555   1.000000
   62       -2.865595   1.000000
   63       -2.865595   1.000000
   64       -2.829394   1.000000
   65       -2.567721   1.000000
   66       -2.195345   1.000000
   67       -2.195229   1.000000
   68       -0.899599  -0.000000
   69       -0.899591  -0.000000
   70       -0.786840  -0.000000
   71       -0.562613  -0.000000
   72       -0.050950  -0.000000
   73       -0.050948  -0.000000
   74        0.051162  -0.000000
   75        0.441624  -0.000000
   76        0.441641  -0.000000
   77        1.149904  -0.000000
   78        2.164233   0.000000
   79        2.164241   0.000000
   80        2.419005   0.000000
   81        3.080900   0.000000
   82        3.080916   0.000000
   83        3.449622   0.000000
   84        3.569178   0.000000
   85        4.091032   0.000000
   86        4.218938   0.000000
   87        4.413553   0.000000
   88        4.413627   0.000000
   89        4.732202   0.000000
   90        5.487563   0.000000
   91        5.596891   0.000000
   92        6.816590   0.000000
   93        7.162230   0.000000
   94        7.162246   0.000000
   95        7.330217   0.000000
   96        7.603489   0.000000
 
  0.1111111E+00  0.0000000E+00  0.0000000E+00  0.7407407E-01
    1      -19.538043   1.000000
    2       -9.712647   1.000000
    3       -8.228371   1.000000
    4       -7.921528   1.000000
    5       -7.725434   1.000000
    6       -7.667632   1.000000
    7       -7.607117   1.000000
    8       -7.553046   1.000000
    9       -7.520767   1.000000
   10       -7.470963   1.000000
   11       -7.160148   1.000000
   12       -7.075015   1.000000
   13       -7.054930   1.000000
   14       -7.010109   1.000000
   15       -7.008877   1.000000
   16       -6.939755   1.000000
   17       -6.508564   1.000000
   18       -6.489015   1.000000
   19       -5.988863   1.000000
   20       -5.880315   1.000000
   21       -5.870277   1.000000
   22       -5.779731   1.000000
   23       -5.668406   1.000000
   24       -5.647159   1.000000
   25       -5.621772   1.000000
   26       -5.586515   1.000000
   27       -5.520195   1.000000
   28       -5.403867   1.000000
   29       -5.300174   1.000000
   30       -5.280904   1.000000
   31       -5.175179   1.000000
   32       -5.148421   1.000000
   33       -5.115967   1.000000
   34       -4.894812   1.000000
   35       -4.824170   1.000000
   36       -4.751172   1.000000
   37       -4.619077   1.000000
   38       -4.613223   1.000000
   39       -4.333405   1.000000
   40       -4.275353   1.000000
   41       -4.254603   1.000000
   42       -4.198787   1.000000
   43       -4.103714   1.000000
   44       -4.101406   1.000000
   45       -3.981038   1.000000
   46       -3.941086   1.000000
   47       -3.712094   1.000000
   48       -3.608725   1.000000
   49       -3.561987   1.000000
   50       -3.509708   1.000000
   51       -3.470791   1.000000
   52       -3.403253   1.000000
   53       -3.387005   1.000000
   54       -3.386321   1.000000
   55       -3.301179   1.000000
   56       -3.295111   1.000000
   57       -3.219072   1.000000
   58       -3.207470   1.000000
   59       -3.154449   1.000000
   60       -3.007051   1.000000
   61       -3.002765   1.000000
   62       -2.972717   1.000000
   63       -2.933615   1.000000
   64       -2.836291   1.000000
   65       -2.519273   1.000000
   66       -2.289489   1.000000
   67       -2.211094   1.000000
   68       -1.710113   1.000000
   69       -1.030355  -0.000891
   70       -1.024584  -0.000681
   71       -0.584006  -0.000000
   72       -0.230511  -0.000000
   73       -0.012898  -0.000000
   74        0.384802  -0.000000
   75        0.894324  -0.000000
   76        0.978403  -0.000000
   77        1.482675   0.000000
   78        2.185074   0.000000
   79        2.292168   0.000000
   80        2.530947   0.000000
   81        3.092629   0.000000
   82        3.239342   0.000000
   83        3.625662   0.000000
   84        3.759487   0.000000
   85        4.222783   0.000000
   86        4.286376   0.000000
   87        4.483998   0.000000
   88        4.692090   0.000000
   89        5.371052   0.000000
   90        5.578477   0.000000
   91        5.723782   0.000000
   92        6.602013   0.000000
   93        6.928329   0.000000
   94        6.982503   0.000000
   95        7.381070   0.000000
   96        7.505446   0.000000
 
  0.2222222E+00  0.2775558E-16  0.0000000E+00  0.7407407E-01
    1      -19.532263   1.000000
    2       -9.463510   1.000000
    3       -8.089577   1.000000
    4       -7.803373   1.000000
    5       -7.628874   1.000000
    6       -7.527257   1.000000
    7       -7.509054   1.000000
    8       -7.395541   1.000000
    9       -7.342676   1.000000
   10       -7.301162   1.000000
   11       -7.122932   1.000000
   12       -6.973344   1.000000
   13       -6.946864   1.000000
   14       -6.872783   1.000000
   15       -6.853190   1.000000
   16       -6.767996   1.000000
   17       -6.457187   1.000000
   18       -6.392260   1.000000
   19       -5.940065   1.000000
   20       -5.938155   1.000000
   21       -5.866398   1.000000
   22       -5.806076   1.000000
   23       -5.733500   1.000000
   24       -5.663437   1.000000
   25       -5.565776   1.000000
   26       -5.535039   1.000000
   27       -5.523953   1.000000
   28       -5.396177   1.000000
   29       -5.375629   1.000000
   30       -5.264975   1.000000
   31       -5.204671   1.000000
   32       -5.156295   1.000000
   33       -5.033042   1.000000
   34       -5.022659   1.000000
   35       -4.885103   1.000000
   36       -4.846402   1.000000
   37       -4.722228   1.000000
   38       -4.707291   1.000000
   39       -4.560147   1.000000
   40       -4.404753   1.000000
   41       -4.389793   1.000000
   42       -4.302189   1.000000
   43       -4.245184   1.000000
   44       -4.164250   1.000000
   45       -4.128466   1.000000
   46       -3.987376   1.000000
   47       -3.987331   1.000000
   48       -3.830301   1.000000
   49       -3.784805   1.000000
   50       -3.677931   1.000000
   51       -3.662300   1.000000
   52       -3.614236   1.000000
   53       -3.587919   1.000000
   54       -3.504070   1.000000
   55       -3.487744   1.000000
   56       -3.433670   1.000000
   57       -3.385773   1.000000
   58       -3.367426   1.000000
   59       -3.315097   1.000000
   60       -3.235512   1.000000
   61       -3.217070   1.000000
   62       -3.130196   1.000000
   63       -3.102995   1.000000
   64       -3.080662   1.000000
   65       -2.693995   1.000000
   66       -2.509985   1.000000
   67       -2.224447   1.000000
   68       -2.025746   1.000000
   69       -1.348266   0.929383
   70       -1.138671  -0.028770
   71       -0.951564  -0.000012
   72        0.095629  -0.000000
   73        0.124444  -0.000000
   74        0.488227  -0.000000
   75        1.084445  -0.000000
   76        1.752522   0.000000
   77        1.883240   0.000000
   78        2.445176   0.000000
   79        2.681722   0.000000
   80        3.156862   0.000000
   81        3.451649   0.000000
   82        3.771665   0.000000
   83        3.822144   0.000000
   84        4.443313   0.000000
   85        4.490515   0.000000
   86        4.582920   0.000000
   87        5.115894   0.000000
   88        5.315374   0.000000
   89        5.685944   0.000000
   90        5.788432   0.000000
   91        5.989131   0.000000
   92        6.533610   0.000000
   93        6.626187   0.000000
   94        6.961350   0.000000
   95        7.255449   0.000000
   96        7.584620   0.000000
 
  0.3333333E+00  0.5551115E-16  0.0000000E+00  0.7407407E-01
    1      -19.525909   1.000000
    2       -9.082795   1.000000
    3       -8.071058   1.000000
    4       -7.686988   1.000000
    5       -7.445892   1.000000
    6       -7.314089   1.000000
    7       -7.283888   1.000000
    8       -7.172989   1.000000
    9       -7.086360   1.000000
   10       -7.077192   1.000000
   11       -6.987187   1.000000
   12       -6.846992   1.000000
   13       -6.802675   1.000000
   14       -6.671430   1.000000
   15       -6.669890   1.000000
   16       -6.533409   1.000000
   17       -6.333758   1.000000
   18       -6.234549   1.000000
   19       -6.031687   1.000000
   20       -6.006306   1.000000
   21       -5.964282   1.000000
   22       -5.846233   1.000000
   23       -5.727461   1.000000
   24       -5.716815   1.000000
   25       -5.658678   1.000000
   26       -5.568061   1.000000
   27       -5.527894   1.000000
   28       -5.444303   1.000000
   29       -5.360543   1.000000
   30       -5.256656   1.000000
   31       -5.212840   1.000000
   32       -5.188704   1.000000
   33       -5.109273   1.000000
   34       -5.088325   1.000000
   35       -5.010499   1.000000
   36       -4.952481   1.000000
   37       -4.925560   1.000000
   38       -4.724527   1.000000
   39       -4.661186   1.000000
   40       -4.556177   1.000000
   41       -4.504878   1.000000
   42       -4.489767   1.000000
   43       -4.426671   1.000000
   44       -4.404835   1.000000
   45       -4.339183   1.000000
   46       -4.332644   1.000000
   47       -4.241239   1.000000
   48       -4.178556   1.000000
   49       -4.031471   1.000000
   50       -3.984060   1.000000
   51       -3.940314   1.000000
   52       -3.893466   1.000000
   53       -3.806034   1.000000
   54       -3.803635   1.000000
   55       -3.712193   1.000000
   56       -3.569735   1.000000
   57       -3.544053   1.000000
   58       -3.497867   1.000000
   59       -3.465448   1.000000
   60       -3.433371   1.000000
   61       -3.374816   1.000000
   62       -3.327771   1.000000
   63       -3.225557   1.000000
   64       -3.094361   1.000000
   65       -2.979827   1.000000
   66       -2.609025   1.000000
   67       -2.220141   1.000000
   68       -1.825539   1.000000
   69       -1.423812   1.032585
   70       -1.150807  -0.033336
   71       -0.990880  -0.000122
   72       -0.129030  -0.000000
   73        0.221743  -0.000000
   74        0.686051  -0.000000
   75        1.181651  -0.000000
   76        2.327331   0.000000
   77        2.356008   0.000000
   78        2.857522   0.000000
   79        2.874236   0.000000
   80        3.741354   0.000000
   81        4.102487   0.000000
   82        4.220979   0.000000
   83        4.513801   0.000000
   84        4.814743   0.000000
   85        4.879493   0.000000
   86        5.277872   0.000000
   87        5.812188   0.000000
   88        5.890588   0.000000
   89        5.943812   0.000000
   90        6.073217   0.000000
   91        6.127256   0.000000
   92        6.137624   0.000000
   93        6.486811   0.000000
   94        6.685935   0.000000
   95        6.849260   0.000000
   96        7.219698   0.000000
 
  0.4444444E+00  0.5551115E-16  0.0000000E+00  0.7407407E-01
    1      -19.521602   1.000000
    2       -8.653669   1.000000
    3       -8.224898   1.000000
    4       -7.709740   1.000000
    5       -7.216087   1.000000
    6       -7.077652   1.000000
    7       -7.076128   1.000000
    8       -7.012195   1.000000
    9       -6.908385   1.000000
   10       -6.866798   1.000000
   11       -6.812785   1.000000
   12       -6.731083   1.000000
   13       -6.637625   1.000000
   14       -6.488447   1.000000
   15       -6.476182   1.000000
   16       -6.344609   1.000000
   17       -6.310997   1.000000
   18       -6.166874   1.000000
   19       -6.143063   1.000000
   20       -6.002401   1.000000
   21       -5.952134   1.000000
   22       -5.886566   1.000000
   23       -5.855202   1.000000
   24       -5.831995   1.000000
   25       -5.776150   1.000000
   26       -5.697114   1.000000
   27       -5.589470   1.000000
   28       -5.518579   1.000000
   29       -5.439760   1.000000
   30       -5.372796   1.000000
   31       -5.215570   1.000000
   32       -5.183830   1.000000
   33       -5.145135   1.000000
   34       -5.038687   1.000000
   35       -5.033432   1.000000
   36       -4.976262   1.000000
   37       -4.901508   1.000000
   38       -4.901269   1.000000
   39       -4.839739   1.000000
   40       -4.781306   1.000000
   41       -4.730737   1.000000
   42       -4.706365   1.000000
   43       -4.657153   1.000000
   44       -4.464045   1.000000
   45       -4.455681   1.000000
   46       -4.434232   1.000000
   47       -4.429720   1.000000
   48       -4.265905   1.000000
   49       -4.253287   1.000000
   50       -4.217107   1.000000
   51       -4.171781   1.000000
   52       -4.125753   1.000000
   53       -3.952148   1.000000
   54       -3.870031   1.000000
   55       -3.824427   1.000000
   56       -3.804078   1.000000
   57       -3.682006   1.000000
   58       -3.664816   1.000000
   59       -3.499929   1.000000
   60       -3.385259   1.000000
   61       -3.382816   1.000000
   62       -3.336627   1.000000
   63       -3.240150   1.000000
   64       -3.116966   1.000000
   65       -3.089071   1.000000
   66       -2.668104   1.000000
   67       -2.212453   1.000000
   68       -1.773697   1.000000
   69       -1.302270   0.634659
   70       -1.138926  -0.028880
   71       -0.846715  -0.000000
   72       -0.483742  -0.000000
   73        0.264332  -0.000000
   74        0.583258  -0.000000
   75        1.840233   0.000000
   76        2.254696   0.000000
   77        2.377408   0.000000
   78        2.978144   0.000000
   79        3.834864   0.000000
   80        3.861241   0.000000
   81        4.491307   0.000000
   82        4.772530   0.000000
   83        5.003946   0.000000
   84        5.124917   0.000000
   85        5.307389   0.000000
   86        5.370926   0.000000
   87        5.495982   0.000000
   88        5.705524   0.000000
   89        5.908711   0.000000
   90        6.007202   0.000000
   91        6.205803   0.000000
   92        6.408052   0.000000
   93        6.586870   0.000000
   94        6.707765   0.000000
   95        6.988933   0.000000
   96        7.210202   0.000000
 
  0.2222222E+00  0.1111111E+00  0.0000000E+00  0.7407407E-01
    1      -19.533910   1.000000
    2       -9.544869   1.000000
    3       -8.122034   1.000000
    4       -7.833512   1.000000
    5       -7.656415   1.000000
    6       -7.577250   1.000000
    7       -7.522705   1.000000
    8       -7.508844   1.000000
    9       -7.366575   1.000000
   10       -7.359323   1.000000
   11       -7.133253   1.000000
   12       -7.031384   1.000000
   13       -6.950215   1.000000
   14       -6.924798   1.000000
   15       -6.896084   1.000000
   16       -6.830294   1.000000
   17       -6.478279   1.000000
   18       -6.423794   1.000000
   19       -5.941035   1.000000
   20       -5.920172   1.000000
   21       -5.868120   1.000000
   22       -5.784333   1.000000
   23       -5.719206   1.000000
   24       -5.666198   1.000000
   25       -5.587001   1.000000
   26       -5.535840   1.000000
   27       -5.505726   1.000000
   28       -5.427937   1.000000
   29       -5.350257   1.000000
   30       -5.261295   1.000000
   31       -5.198239   1.000000
   32       -5.160938   1.000000
   33       -5.066096   1.000000
   34       -4.981407   1.000000
   35       -4.871041   1.000000
   36       -4.797016   1.000000
   37       -4.713034   1.000000
   38       -4.621428   1.000000
   39       -4.540507   1.000000
   40       -4.353383   1.000000
   41       -4.333305   1.000000
   42       -4.280464   1.000000
   43       -4.189317   1.000000
   44       -4.145644   1.000000
   45       -4.062376   1.000000
   46       -4.006313   1.000000
   47       -3.882984   1.000000
   48       -3.749924   1.000000
   49       -3.730927   1.000000
   50       -3.611645   1.000000
   51       -3.578005   1.000000
   52       -3.555118   1.000000
   53       -3.501571   1.000000
   54       -3.458880   1.000000
   55       -3.441656   1.000000
   56       -3.418964   1.000000
   57       -3.364683   1.000000
   58       -3.333013   1.000000
   59       -3.304416   1.000000
   60       -3.175254   1.000000
   61       -3.128975   1.000000
   62       -3.106863   1.000000
   63       -3.093194   1.000000
   64       -2.776434   1.000000
   65       -2.633383   1.000000
   66       -2.398842   1.000000
   67       -2.142990   1.000000
   68       -2.030722   1.000000
   69       -1.880168   1.000000
   70       -0.999736  -0.000196
   71       -0.481712  -0.000000
   72       -0.087516  -0.000000
   73        0.146271  -0.000000
   74        0.455270  -0.000000
   75        0.996537  -0.000000
   76        1.341411  -0.000000
   77        2.065929   0.000000
   78        2.409115   0.000000
   79        2.487620   0.000000
   80        2.703774   0.000000
   81        3.557368   0.000000
   82        3.745503   0.000000
   83        3.807562   0.000000
   84        4.197376   0.000000
   85        4.344830   0.000000
   86        4.419299   0.000000
   87        4.669292   0.000000
   88        5.322156   0.000000
   89        5.623822   0.000000
   90        5.735730   0.000000
   91        5.871770   0.000000
   92        6.612591   0.000000
   93        6.826239   0.000000
   94        6.998592   0.000000
   95        7.256056   0.000000
   96        7.345667   0.000000
 
  0.3333333E+00  0.1111111E+00  0.0000000E+00  0.1481481E+00
    1      -19.527989   1.000000
    2       -9.227619   1.000000
    3       -8.039013   1.000000
    4       -7.678567   1.000000
    5       -7.504659   1.000000
    6       -7.429462   1.000000
    7       -7.389066   1.000000
    8       -7.324854   1.000000
    9       -7.158466   1.000000
   10       -7.110056   1.000000
   11       -7.044170   1.000000
   12       -6.921006   1.000000
   13       -6.818137   1.000000
   14       -6.762912   1.000000
   15       -6.709007   1.000000
   16       -6.631142   1.000000
   17       -6.408382   1.000000
   18       -6.285437   1.000000
   19       -6.021209   1.000000
   20       -5.948705   1.000000
   21       -5.910033   1.000000
   22       -5.837740   1.000000
   23       -5.730256   1.000000
   24       -5.695169   1.000000
   25       -5.640990   1.000000
   26       -5.558807   1.000000
   27       -5.468349   1.000000
   28       -5.423840   1.000000
   29       -5.352715   1.000000
   30       -5.255070   1.000000
   31       -5.240701   1.000000
   32       -5.179954   1.000000
   33       -5.138567   1.000000
   34       -5.038602   1.000000
   35       -4.984526   1.000000
   36       -4.926369   1.000000
   37       -4.838254   1.000000
   38       -4.743302   1.000000
   39       -4.607874   1.000000
   40       -4.517208   1.000000
   41       -4.463741   1.000000
   42       -4.395942   1.000000
   43       -4.365051   1.000000
   44       -4.288257   1.000000
   45       -4.245832   1.000000
   46       -4.211956   1.000000
   47       -4.143971   1.000000
   48       -4.053143   1.000000
   49       -3.998544   1.000000
   50       -3.883827   1.000000
   51       -3.874776   1.000000
   52       -3.812549   1.000000
   53       -3.764357   1.000000
   54       -3.725705   1.000000
   55       -3.561248   1.000000
   56       -3.503173   1.000000
   57       -3.460567   1.000000
   58       -3.435773   1.000000
   59       -3.397281   1.000000
   60       -3.361754   1.000000
   61       -3.277200   1.000000
   62       -3.237410   1.000000
   63       -3.155632   1.000000
   64       -3.080408   1.000000
   65       -2.781433   1.000000
   66       -2.566081   1.000000
   67       -2.427072   1.000000
   68       -2.039526   1.000000
   69       -1.744239   1.000000
   70       -1.298317   0.602316
   71       -0.583888  -0.000000
   72       -0.082066  -0.000000
   73        0.515242  -0.000000
   74        0.767224  -0.000000
   75        1.167292  -0.000000
   76        1.497189   0.000000
   77        1.920199   0.000000
   78        2.919512   0.000000
   79        3.320736   0.000000
   80        3.516704   0.000000
   81        3.947412   0.000000
   82        4.060942   0.000000
   83        4.586325   0.000000
   84        4.670232   0.000000
   85        4.695831   0.000000
   86        4.747387   0.000000
   87        5.117410   0.000000
   88        5.671044   0.000000
   89        5.927567   0.000000
   90        5.966084   0.000000
   91        6.170325   0.000000
   92        6.461684   0.000000
   93        6.684130   0.000000
   94        6.859343   0.000000
   95        7.169928   0.000000
   96        7.272569   0.000000
 
  0.4444444E+00  0.1111111E+00  0.0000000E+00  0.1481481E+00
    1      -19.522665   1.000000
    2       -8.811734   1.000000
    3       -8.092729   1.000000
    4       -7.648858   1.000000
    5       -7.288273   1.000000
    6       -7.216259   1.000000
    7       -7.129348   1.000000
    8       -7.079693   1.000000
    9       -6.977836   1.000000
   10       -6.898787   1.000000
   11       -6.827019   1.000000
   12       -6.769751   1.000000
   13       -6.674206   1.000000
   14       -6.573825   1.000000
   15       -6.534056   1.000000
   16       -6.410378   1.000000
   17       -6.287136   1.000000
   18       -6.202637   1.000000
   19       -6.124879   1.000000
   20       -6.002250   1.000000
   21       -5.957051   1.000000
   22       -5.885406   1.000000
   23       -5.827157   1.000000
   24       -5.789970   1.000000
   25       -5.698722   1.000000
   26       -5.654516   1.000000
   27       -5.600007   1.000000
   28       -5.488711   1.000000
   29       -5.459781   1.000000
   30       -5.331635   1.000000
   31       -5.284135   1.000000
   32       -5.230876   1.000000
   33       -5.160299   1.000000
   34       -5.125202   1.000000
   35       -5.033621   1.000000
   36       -4.976071   1.000000
   37       -4.877883   1.000000
   38       -4.819880   1.000000
   39       -4.753566   1.000000
   40       -4.698712   1.000000
   41       -4.665235   1.000000
   42       -4.616895   1.000000
   43       -4.556056   1.000000
   44       -4.512325   1.000000
   45       -4.422779   1.000000
   46       -4.394459   1.000000
   47       -4.371803   1.000000
   48       -4.225640   1.000000
   49       -4.197851   1.000000
   50       -4.141623   1.000000
   51       -4.080473   1.000000
   52       -4.051753   1.000000
   53       -3.892882   1.000000
   54       -3.843671   1.000000
   55       -3.726702   1.000000
   56       -3.637156   1.000000
   57       -3.569546   1.000000
   58       -3.550417   1.000000
   59       -3.497242   1.000000
   60       -3.426303   1.000000
   61       -3.367894   1.000000
   62       -3.334019   1.000000
   63       -3.266837   1.000000
   64       -3.158360   1.000000
   65       -3.024917   1.000000
   66       -2.655965   1.000000
   67       -2.413768   1.000000
   68       -2.012229   1.000000
   69       -1.661594   1.000001
   70       -1.191465  -0.018664
   71       -0.596108  -0.000000
   72       -0.245253  -0.000000
   73        0.128127  -0.000000
   74        1.312793  -0.000000
   75        1.401438  -0.000000
   76        1.766056   0.000000
   77        2.375005   0.000000
   78        3.165832   0.000000
   79        3.579291   0.000000
   80        3.944114   0.000000
   81        4.283043   0.000000
   82        4.424831   0.000000
   83        5.001956   0.000000
   84        5.085469   0.000000
   85        5.125035   0.000000
   86        5.292619   0.000000
   87        5.411771   0.000000
   88        6.021233   0.000000
   89        6.138005   0.000000
   90        6.274698   0.000000
   91        6.352368   0.000000
   92        6.414903   0.000000
   93        6.468214   0.000000
   94        6.568526   0.000000
   95        6.774959   0.000000
   96        7.260647   0.000000
 
 -0.4444444E+00  0.1111111E+00  0.0000000E+00  0.7407407E-01
    1      -19.520501   1.000000
    2       -8.486659   1.000000
    3       -8.252280   1.000000
    4       -7.693055   1.000000
    5       -7.161238   1.000000
    6       -7.095105   1.000000
    7       -6.981572   1.000000
    8       -6.954798   1.000000
    9       -6.861647   1.000000
   10       -6.801326   1.000000
   11       -6.739558   1.000000
   12       -6.717988   1.000000
   13       -6.533129   1.000000
   14       -6.445068   1.000000
   15       -6.397789   1.000000
   16       -6.349929   1.000000
   17       -6.284714   1.000000
   18       -6.234998   1.000000
   19       -6.183718   1.000000
   20       -6.002864   1.000000
   21       -5.990466   1.000000
   22       -5.973804   1.000000
   23       -5.883415   1.000000
   24       -5.803765   1.000000
   25       -5.766725   1.000000
   26       -5.708687   1.000000
   27       -5.651794   1.000000
   28       -5.565268   1.000000
   29       -5.438363   1.000000
   30       -5.425020   1.000000
   31       -5.299348   1.000000
   32       -5.245662   1.000000
   33       -5.170192   1.000000
   34       -5.146164   1.000000
   35       -5.123079   1.000000
   36       -5.023699   1.000000
   37       -4.981967   1.000000
   38       -4.903211   1.000000
   39       -4.870849   1.000000
   40       -4.852389   1.000000
   41       -4.776855   1.000000
   42       -4.666359   1.000000
   43       -4.611816   1.000000
   44       -4.569145   1.000000
   45       -4.454991   1.000000
   46       -4.389132   1.000000
   47       -4.363780   1.000000
   48       -4.289376   1.000000
   49       -4.246320   1.000000
   50       -4.229830   1.000000
   51       -4.122324   1.000000
   52       -4.033312   1.000000
   53       -3.999511   1.000000
   54       -3.849689   1.000000
   55       -3.829554   1.000000
   56       -3.767870   1.000000
   57       -3.708457   1.000000
   58       -3.660248   1.000000
   59       -3.555518   1.000000
   60       -3.436195   1.000000
   61       -3.363293   1.000000
   62       -3.304475   1.000000
   63       -3.252384   1.000000
   64       -3.154402   1.000000
   65       -3.129666   1.000000
   66       -2.687993   1.000000
   67       -2.406115   1.000000
   68       -2.002075   1.000000
   69       -1.655145   1.000001
   70       -1.033247  -0.001017
   71       -0.602166  -0.000000
   72       -0.369068  -0.000000
   73        0.007961  -0.000000
   74        1.336497  -0.000000
   75        1.408645  -0.000000
   76        2.375833   0.000000
   77        2.581191   0.000000
   78        2.879157   0.000000
   79        3.775965   0.000000
   80        3.913024   0.000000
   81        4.655996   0.000000
   82        4.811485   0.000000
   83        4.960717   0.000000
   84        5.129991   0.000000
   85        5.501908   0.000000
   86        5.608632   0.000000
   87        5.665936   0.000000
   88        5.707059   0.000000
   89        5.764504   0.000000
   90        5.805294   0.000000
   91        6.115664   0.000000
   92        6.708558   0.000000
   93        6.866263   0.000000
   94        6.885596   0.000000
   95        6.912376   0.000000
   96        7.007511   0.000000
 
  0.4444444E+00  0.2222222E+00  0.0000000E+00  0.7407407E-01
    1      -19.523117   1.000000
    2       -8.868426   1.000000
    3       -8.018439   1.000000
    4       -7.548081   1.000000
    5       -7.411528   1.000000
    6       -7.237599   1.000000
    7       -7.204299   1.000000
    8       -7.133783   1.000000
    9       -6.947440   1.000000
   10       -6.930228   1.000000
   11       -6.826701   1.000000
   12       -6.796641   1.000000
   13       -6.657826   1.000000
   14       -6.611070   1.000000
   15       -6.523359   1.000000
   16       -6.449904   1.000000
   17       -6.344534   1.000000
   18       -6.223926   1.000000
   19       -6.112538   1.000000
   20       -5.988287   1.000000