       N       E                     dE             d eps       ncg     rms          rms(c)
DAV:   1     0.813606088916E+03    0.81361E+03   -0.50812E+04  2304   0.965E+02
DAV:   2    -0.406486277521E+01   -0.81767E+03   -0.77007E+03  3048   0.221E+02
DAV:   3    -0.456232161199E+02   -0.41558E+02   -0.40578E+02  2880   0.508E+01
DAV:   4    -0.462423878575E+02   -0.61917E+00   -0.61900E+00  2424   0.686E+00
DAV:   5    -0.462550858509E+02   -0.12698E-01   -0.12697E-01  3216   0.977E-01    0.277E+01
DAV:   6    -0.427563219104E+02    0.34988E+01   -0.22430E+01  3264   0.203E+01    0.214E+01
DAV:   7    -0.429936423007E+02   -0.23732E+00   -0.41277E+01  3192   0.215E+01    0.174E+01
DAV:   8    -0.413317661364E+02    0.16619E+01   -0.15980E+01  3024   0.198E+01    0.566E+00
DAV:   9    -0.410066140719E+02    0.32515E+00   -0.41583E+00  2616   0.121E+01    0.234E+00
DAV:  10    -0.409677151794E+02    0.38899E-01   -0.44805E-01  2736   0.345E+00    0.118E+00
DAV:  11    -0.409582342275E+02    0.94810E-02   -0.48250E-02  2904   0.978E-01    0.481E-01
DAV:  12    -0.409575914207E+02    0.64281E-03   -0.14991E-02  2712   0.470E-01    0.164E-01
DAV:  13    -0.409584062116E+02   -0.81479E-03   -0.11631E-03  2880   0.122E-01    0.788E-02
DAV:  14    -0.409588361621E+02   -0.42995E-03   -0.38915E-04  2184   0.984E-02    0.316E-02
DAV:  15    -0.409593578554E+02   -0.52169E-03   -0.12859E-04  2184   0.361E-02    0.125E-02
DAV:  16    -0.409595857496E+02   -0.22789E-03   -0.35363E-05  1968   0.218E-02    0.106E-02
DAV:  17    -0.409598318513E+02   -0.24610E-03   -0.38099E-05  1968   0.175E-02    0.687E-03
DAV:  18    -0.409600681225E+02   -0.23627E-03   -0.42297E-05  2040   0.131E-02    0.471E-03
DAV:  19    -0.409601535756E+02   -0.85453E-04   -0.91365E-06  1800   0.710E-03
   1 F= -.40960154E+02 E0= -.40958571E+02  d E =-.474688E-02
