 vasp.5.4.1 05Feb16 (build Feb 08 2018 09:21:51) complex                        
  
 executed on             LinuxIFC date 2019.11.21  23:49:39
 running on   24 total cores
 distrk:  each k-point on   24 cores,    1 groups
 distr:  one band on NCORES_PER_BAND=   1 cores,   24 groups


--------------------------------------------------------------------------------------------------------


 INCAR:
 POTCAR:    PAW_PBE Au 04Oct2007                  
 POTCAR:    PAW_PBE O 08Apr2002                   

 ----------------------------------------------------------------------------- 
|                                                                             |
|           W    W    AA    RRRRR   N    N  II  N    N   GGGG   !!!           |
|           W    W   A  A   R    R  NN   N  II  NN   N  G    G  !!!           |
|           W    W  A    A  R    R  N N  N  II  N N  N  G       !!!           |
|           W WW W  AAAAAA  RRRRR   N  N N  II  N  N N  G  GGG   !            |
|           WW  WW  A    A  R   R   N   NN  II  N   NN  G    G                |
|           W    W  A    A  R    R  N    N  II  N    N   GGGG   !!!           |
|                                                                             |
|      For optimal performance we recommend to set                            |
|        NCORE= 4 - approx SQRT( number of cores)                             |
|      NCORE specifies how many cores store one orbital (NPAR=cpu/NCORE).     |
|      This setting can  greatly improve the performance of VASP for DFT.     |
|      The default, NPAR=number of cores might be grossly inefficient         |
|      on modern multi-core architectures or massively parallel machines.     |
|      Do your own testing !!!!                                               |
|      Unfortunately you need to use the default for GW and RPA calculations. |
|      (for HF NCORE is supported but not extensively tested yet)             |
|                                                                             |
 ----------------------------------------------------------------------------- 

 POTCAR:    PAW_PBE Au 04Oct2007                  
   VRHFIN =Au: s1d10                                                            
   LEXCH  = PE                                                                  
   EATOM  =   926.0867 eV,   68.0654 Ry                                         
                                                                                
   TITEL  = PAW_PBE Au 04Oct2007                                                
   LULTRA =        F    use ultrasoft PP ?                                      
   IUNSCR =        1    unscreen: 0-lin 1-nonlin 2-no                           
   RPACOR =    2.330    partial core radius                                     
   POMASS =  196.966; ZVAL   =   11.000    mass and valenz                      
   RCORE  =    2.500    outmost cutoff radius                                   
   RWIGS  =    2.840; RWIGS  =    1.503    wigner-seitz radius (au A)           
   ENMAX  =  229.943; ENMIN  =  172.457 eV                                      
   ICORE  =        3    local potential                                         
   LCOR   =        T    correct aug charges                                     
   LPAW   =        T    paw PP                                                  
   EAUG   =  356.670                                                            
   DEXC   =    0.000                                                            
   RMAX   =    2.562    core radius for proj-oper                               
   RAUG   =    1.300    factor for augmentation sphere                          
   RDEP   =    2.598    radius for radial grids                                 
   RDEPT  =    2.193    core radius for aug-charge                              
                                                                                
   Atomic configuration                                                         
   16 entries                                                                   
     n  l   j            E        occ.                                          
     1  0  0.50    -80748.5001   2.0000                                         
     2  0  0.50    -14244.7466   2.0000                                         
     2  1  1.50    -12310.9591   6.0000                                         
     3  0  0.50     -3362.1768   2.0000                                         
     3  1  1.50     -2801.5463   6.0000                                         
     3  2  2.50     -2203.8206  10.0000                                         
     4  0  0.50      -729.8168   2.0000                                         
     4  1  1.50      -546.0527   6.0000                                         
     4  2  2.50      -325.7302  10.0000                                         
     4  3  3.50       -81.1472  14.0000                                         
     5  0  0.50      -108.3201   2.0000                                         
     5  1  1.50       -59.7479   6.0000                                         
     5  2  2.50        -6.8783  10.0000                                         
     6  0  0.50        -5.7602   1.0000                                         
     6  1  1.50        -6.8029   0.0000                                         
     5  3  2.50        -1.3606   0.0000                                         
   Description                                                                  
     l       E           TYP  RCUT    TYP  RCUT                                 
     2     -6.8782861     23  2.500                                             
     2     -8.2388687     23  2.500                                             
     0     -5.7601759     23  2.500                                             
     0     -0.8493231     23  2.500                                             
     1     -2.7211652     23  2.500                                             
     1     27.2116520     23  2.500                                             
     3     -1.3605826     23  2.500                                             
  local pseudopotential read in
  partial core-charges read in
  partial kinetic energy density read in
  atomic valenz-charges read in
  non local Contribution for L=           2  read in
    real space projection operators read in
  non local Contribution for L=           2  read in
    real space projection operators read in
  non local Contribution for L=           0  read in
    real space projection operators read in
  non local Contribution for L=           0  read in
    real space projection operators read in
  non local Contribution for L=           1  read in
    real space projection operators read in
  non local Contribution for L=           1  read in
    real space projection operators read in
    PAW grid and wavefunctions read in
 
   number of l-projection  operators is LMAX  =           6
   number of lm-projection operators is LMMAX =          18
 
 POTCAR:    PAW_PBE O 08Apr2002                   
   VRHFIN =O: s2p4                                                              
   LEXCH  = PE                                                                  
   EATOM  =   432.3788 eV,   31.7789 Ry                                         
                                                                                
   TITEL  = PAW_PBE O 08Apr2002                                                 
   LULTRA =        F    use ultrasoft PP ?                                      
   IUNSCR =        1    unscreen: 0-lin 1-nonlin 2-no                           
   RPACOR =    1.200    partial core radius                                     
   POMASS =   16.000; ZVAL   =    6.000    mass and valenz                      
   RCORE  =    1.520    outmost cutoff radius                                   
   RWIGS  =    1.550; RWIGS  =    0.820    wigner-seitz radius (au A)           
   ENMAX  =  400.000; ENMIN  =  300.000 eV                                      
   ICORE  =        2    local potential                                         
   LCOR   =        T    correct aug charges                                     
   LPAW   =        T    paw PP                                                  
   EAUG   =  605.392                                                            
   DEXC   =    0.000                                                            
   RMAX   =    1.553    core radius for proj-oper                               
   RAUG   =    1.300    factor for augmentation sphere                          
   RDEP   =    1.550    radius for radial grids                                 
   RDEPT  =    1.329    core radius for aug-charge                              
                                                                                
   Atomic configuration                                                         
    4 entries                                                                   
     n  l   j            E        occ.                                          
     1  0  0.50      -514.6923   2.0000                                         
     2  0  0.50       -23.9615   2.0000                                         
     2  1  0.50        -9.0305   4.0000                                         
     3  2  1.50        -9.5241   0.0000                                         
   Description                                                                  
     l       E           TYP  RCUT    TYP  RCUT                                 
     0    -23.9615318     23  1.200                                             
     0     -9.5240782     23  1.200                                             
     1     -9.0304911     23  1.520                                             
     1      8.1634956     23  1.520                                             
     2     -9.5240782      7  1.500                                             
  local pseudopotential read in
  partial core-charges read in
  partial kinetic energy density read in
  kinetic energy density of atom read in
  atomic valenz-charges read in
  non local Contribution for L=           0  read in
    real space projection operators read in
  non local Contribution for L=           0  read in
    real space projection operators read in
  non local Contribution for L=           1  read in
    real space projection operators read in
  non local Contribution for L=           1  read in
    real space projection operators read in
    PAW grid and wavefunctions read in
 
   number of l-projection  operators is LMAX  =           4
   number of lm-projection operators is LMMAX =           8
 
  PAW_PBE Au 04Oct2007                  :
 energy of atom  1       EATOM= -926.0867
 kinetic energy error for atom=    0.0062 (will be added to EATOM!!)
  PAW_PBE O 08Apr2002                   :
 energy of atom  2       EATOM= -432.3788
 kinetic energy error for atom=    0.1156 (will be added to EATOM!!)
 
 
 POSCAR: Au  O                                   
  positions in cartesian coordinates
  No initial velocities read in
 exchange correlation table for  LEXCH =        8
   RHO(1)=    0.500       N(1)  =     2000
   RHO(2)=  100.500       N(2)  =     4000
 


--------------------------------------------------------------------------------------------------------


 ion  position               nearest neighbor table
   1  0.167  0.167  0.404-   5 2.91   6 2.91   8 2.91   2 2.94   2 2.94   4 2.94   4 2.94   3 2.94
                             3 2.94
   2  0.667  0.166  0.402-   3 2.93   4 2.93   1 2.94   1 2.94   3 2.95   4 2.95   6 2.96   5 2.96
                             7 3.02
   3  0.166  0.667  0.402-   4 2.93   2 2.93   1 2.94   1 2.94   4 2.95   2 2.95   8 2.96   6 2.96
                             7 3.02
   4  0.667  0.667  0.402-   3 2.93   2 2.93   1 2.94   1 2.94   3 2.95   2 2.95   8 2.96   5 2.96
                             7 3.02
   5  0.837  0.332  0.499-  12 2.82   6 2.91   8 2.91   1 2.91   7 2.94   7 2.94   2 2.96   4 2.96
                             6 2.97   8 2.97  11 3.05   9 3.05
   6  0.332  0.332  0.499-  12 2.82   5 2.91   8 2.91   1 2.91   7 2.94   7 2.94   2 2.96   3 2.96
                             5 2.97   8 2.97  11 3.05  10 3.05
   7  0.833  0.833  0.503-  10 2.90  11 2.90   9 2.90   8 2.94   5 2.94   6 2.94   6 2.94   8 2.94
                             5 2.94   4 3.02   3 3.02   2 3.02
   8  0.332  0.837  0.499-  12 2.82   5 2.91   6 2.91   1 2.91   7 2.94   7 2.94   4 2.96   3 2.96
                             5 2.97   6 2.97  10 3.05   9 3.05
   9  0.989  0.989  0.600-  13 2.11  10 2.75  11 2.75   7 2.90  12 2.95  12 2.95   8 3.05   5 3.05
                            10 3.13  11 3.13
  10  0.521  0.989  0.600-  13 2.11   9 2.75  11 2.75   7 2.90  12 2.95  12 2.95   8 3.05   6 3.05
                             9 3.13  11 3.13
  11  0.989  0.521  0.600-  13 2.11  10 2.75   9 2.75   7 2.90  12 2.95  12 2.95   5 3.05   6 3.05
                            10 3.13   9 3.13
  12  0.500  0.500  0.590-   6 2.82   5 2.82   8 2.82  11 2.95  11 2.95   9 2.95   9 2.95  10 2.95
                            10 2.95
  13  0.167  0.167  0.645-  10 2.11  11 2.11   9 2.11
 
  LATTYP: Found a hexagonal cell.
 ALAT       =     5.8802999934
 C/A-ratio  =     4.2176835991
  
  Lattice vectors:
  
 A1 = (   2.9401499900,  -5.0924891800,   0.0000000000)
 A2 = (  -5.8802999900,   0.0000000000,   0.0000000000)
 A3 = (   0.0000000000,   0.0000000000, -24.8012448400)


Analysis of symmetry for initial positions (statically):
=====================================================================
 Subroutine PRICEL returns:
 Original cell was already a primitive cell.
 

 Routine SETGRP: Setting up the symmetry group for a 
 hexagonal supercell.


 Subroutine GETGRP returns: Found  6 space group operations
 (whereof  2 operations were pure point group operations)
 out of a pool of 24 trial point group operations.


The static configuration has the point symmetry C_1h.
 The point group associated with its full space group is C_3v.


Analysis of symmetry for dynamics (positions and initial velocities):
=====================================================================
 Subroutine PRICEL returns:
 Original cell was already a primitive cell.
 

 Routine SETGRP: Setting up the symmetry group for a 
 hexagonal supercell.


 Subroutine GETGRP returns: Found  6 space group operations
 (whereof  2 operations were pure point group operations)
 out of a pool of 24 trial point group operations.


The dynamic configuration has the point symmetry C_1h.
 The point group associated with its full space group is C_3v.


 Subroutine INISYM returns: Found  6 space group operations
 (whereof  2 operations are pure point group operations),
 and found     1 'primitive' translations

 
 
 KPOINTS: KPOINTS created by Atomic Simulation Env

Automatic generation of k-mesh.
Space group operators:
 irot       det(A)        alpha          n_x          n_y          n_z        tau_x        tau_y        tau_z
    1     1.000000     0.000000     1.000000     0.000000     0.000000     0.000000     0.000000     0.000000
    2    -1.000000   180.000000     0.500000    -0.866025     0.000000     0.000000     0.000000     0.000000
    3     1.000000   120.000000     0.000000     0.000000     1.000000     0.000000    -0.500000     0.000000
    4     1.000000   120.000000     0.000000     0.000000    -1.000000    -0.500000     0.000000     0.000000
    5    -1.000000   180.000000     1.000000    -0.000000     0.000000    -0.500000     0.000000     0.000000
    6    -1.000000   180.000000    -0.500000    -0.866025     0.000000     0.000000    -0.500000     0.000000
 
 Subroutine IBZKPT returns following result:
 ===========================================
 
 Found     12 irreducible k-points:
 
 Following reciprocal coordinates:
            Coordinates               Weight
  0.000000  0.000000  0.000000      1.000000
  0.111111  0.000000  0.000000      6.000000
  0.222222  0.000000  0.000000      6.000000
  0.333333  0.000000  0.000000      6.000000
  0.444444  0.000000  0.000000      6.000000
  0.222222  0.111111  0.000000      6.000000
  0.333333  0.111111  0.000000     12.000000
  0.444444  0.111111  0.000000     12.000000
 -0.444444  0.111111  0.000000      6.000000
  0.444444  0.222222  0.000000      6.000000
 -0.444444  0.222222  0.000000     12.000000
 -0.333333  0.333333  0.000000      2.000000
 
 Following cartesian coordinates:
            Coordinates               Weight
  0.000000  0.000000  0.000000      1.000000
  0.018895 -0.010909  0.000000      6.000000
  0.037791 -0.021819  0.000000      6.000000
  0.056686 -0.032728  0.000000      6.000000
  0.075582 -0.043637  0.000000      6.000000
  0.037791 -0.000000  0.000000      6.000000
  0.056686 -0.010909  0.000000     12.000000
  0.075582 -0.021819  0.000000     12.000000
 -0.075582  0.065456  0.000000      6.000000
  0.075582 -0.000000  0.000000      6.000000
 -0.075582  0.087274  0.000000     12.000000
 -0.056686  0.098184  0.000000      2.000000
 


--------------------------------------------------------------------------------------------------------




 Dimension of arrays:
   k-points           NKPTS =     12   k-points in BZ     NKDIM =     12   number of bands    NBANDS=     96
   number of dos      NEDOS =    301   number of ions     NIONS =     13
   non local maximal  LDIM  =      6   non local SUM 2l+1 LMDIM =     18
   total plane-waves  NPLWV = 113400
   max r-space proj   IRMAX =      1   max aug-charges    IRDMAX=   9536
   dimension x,y,z NGX =    30 NGY =   30 NGZ =  126
   dimension x,y,z NGXF=    60 NGYF=   60 NGZF=  252
   support grid    NGXF=    60 NGYF=   60 NGZF=  252
   ions per type =              12   1
 NGX,Y,Z   is equivalent  to a cutoff of   8.48,  8.48,  8.45 a.u.
 NGXF,Y,Z  is equivalent  to a cutoff of  16.96, 16.96, 16.89 a.u.


 I would recommend the setting:
   dimension x,y,z NGX =    29 NGY =   29 NGZ =  121
 SYSTEM =  unknown system                          
 POSCAR =  Au  O                                   

 Startparameter for this run:
   NWRITE =      2    write-flag & timer
   PREC   = normal    normal or accurate (medium, high low for compatibility)
   ISTART =      0    job   : 0-new  1-cont  2-samecut
   ICHARG =      2    charge: 1-file 2-atom 10-const
   ISPIN  =      1    spin polarized calculation?
   LNONCOLLINEAR =      F non collinear calculations
   LSORBIT =      F    spin-orbit coupling
   INIWAV =      1    electr: 0-lowe 1-rand  2-diag
   LASPH  =      F    aspherical Exc in radial PAW
   METAGGA=      F    non-selfconsistent MetaGGA calc.

 Electronic Relaxation 1
   ENCUT  =  400.0 eV  29.40 Ry    5.42 a.u.   9.59  9.59 40.44*2*pi/ulx,y,z
   ENINI  =  400.0     initial cutoff
   ENAUG  =  605.4 eV  augmentation charge cutoff
   NELM   =     60;   NELMIN=  2; NELMDL= -5     # of ELM steps 
   EDIFF  = 0.1E-03   stopping-criterion for ELM
   LREAL  =      F    real-space projection
   NLSPLINE    = F    spline interpolate recip. space projectors
   LCOMPAT=      F    compatible to vasp.4.4
   GGA_COMPAT  = T    GGA compatible to vasp.4.4-vasp.4.6
   LMAXPAW     = -100 max onsite density
   LMAXMIX     =    2 max onsite mixed and CHGCAR
   VOSKOWN=      0    Vosko Wilk Nusair interpolation
   ROPT   =    0.00000   0.00000
 Ionic relaxation
   EDIFFG = 0.1E-02   stopping-criterion for IOM
   NSW    =      0    number of steps for IOM
   NBLOCK =      1;   KBLOCK =      1    inner block; outer block 
   IBRION =     -1    ionic relax: 0-MD 1-quasi-New 2-CG
   NFREE  =      0    steps in history (QN), initial steepest desc. (CG)
   ISIF   =      2    stress and relaxation
   IWAVPR =     10    prediction:  0-non 1-charg 2-wave 3-comb
   ISYM   =      2    0-nonsym 1-usesym 2-fastsym
   LCORR  =      T    Harris-Foulkes like correction to forces

   POTIM  = 0.5000    time-step for ionic-motion
   TEIN   =    0.0    initial temperature
   TEBEG  =    0.0;   TEEND  =   0.0 temperature during run
   SMASS  =  -3.00    Nose mass-parameter (am)
   estimated Nose-frequenzy (Omega)   =  0.10E-29 period in steps =****** mass=  -0.790E-27a.u.
   SCALEE = 1.0000    scale energy and forces
   NPACO  =    256;   APACO  = 16.0  distance and # of slots for P.C.
   PSTRESS=    0.0 pullay stress

  Mass of Ions in am
   POMASS = 196.97 16.00
  Ionic Valenz
   ZVAL   =  11.00  6.00
  Atomic Wigner-Seitz radii
   RWIGS  =  -1.00 -1.00
  virtual crystal weights 
   VCA    =   1.00  1.00
   NELECT =     138.0000    total number of electrons
   NUPDOWN=      -1.0000    fix difference up-down

 DOS related values:
   EMIN   =  10.00;   EMAX   =-10.00  energy-range for DOS
   EFERMI =   0.00
   ISMEAR =     1;   SIGMA  =   0.10  broadening in eV -4-tet -1-fermi 0-gaus

 Electronic relaxation 2 (details)
   IALGO  =     38    algorithm
   LDIAG  =      T    sub-space diagonalisation (order eigenvalues)
   LSUBROT=      F    optimize rotation matrix (better conditioning)
   TURBO    =      0    0=normal 1=particle mesh
   IRESTART =      0    0=no restart 2=restart with 2 vectors
   NREBOOT  =      0    no. of reboots
   NMIN     =      0    reboot dimension
   EREF     =   0.00    reference energy to select bands
   IMIX   =      4    mixing-type and parameters
     AMIX     =   0.40;   BMIX     =  1.00
     AMIX_MAG =   1.60;   BMIX_MAG =  1.00
     AMIN     =   0.10
     WC   =   100.;   INIMIX=   1;  MIXPRE=   1;  MAXMIX= -45

 Intra band minimization:
   WEIMIN = 0.0000     energy-eigenvalue tresh-hold
   EBREAK =  0.26E-06  absolut break condition
   DEPER  =   0.30     relativ break condition  

   TIME   =   0.40     timestep for ELM

  volume/ion in A,a.u.               =      57.13       385.53
  Fermi-wavevector in a.u.,A,eV,Ry     =   0.934186  1.765356 11.873860  0.872704
  Thomas-Fermi vector in A             =   2.060965
 
 Write flags
   LWAVE  =      F    write WAVECAR
   LCHARG =      F    write CHGCAR
   LVTOT  =      F    write LOCPOT, total local potential
   LVHAR  =      F    write LOCPOT, Hartree potential only
   LELF   =      F    write electronic localiz. function (ELF)
   LORBIT =     10    0 simple, 1 ext, 2 COOP (PROOUT)


 Dipole corrections
   LMONO  =      F    monopole corrections only (constant potential shift)
   LDIPOL =      F    correct potential (dipole corrections)
   IDIPOL =      0    1-x, 2-y, 3-z, 4-all directions 
   EPSILON=  1.0000000 bulk dielectric constant

 Exchange correlation treatment:
   GGA     =    --    GGA type
   LEXCH   =     8    internal setting for exchange type
   VOSKOWN=      0    Vosko Wilk Nusair interpolation
   LHFCALC =     F    Hartree Fock is set to
   LHFONE  =     F    Hartree Fock one center treatment
   AEXX    =    0.0000 exact exchange contribution

 Linear response parameters
   LEPSILON=     F    determine dielectric tensor
   LRPA    =     F    only Hartree local field effects (RPA)
   LNABLA  =     F    use nabla operator in PAW spheres
   LVEL    =     F    velocity operator in full k-point grid
   LINTERFAST=   F  fast interpolation
   KINTER  =     0    interpolate to denser k-point grid
   CSHIFT  =0.1000    complex shift for real part using Kramers Kronig
   OMEGAMAX=  -1.0    maximum frequency
   DEG_THRESHOLD= 0.2000000E-02 threshold for treating states as degnerate
   RTIME   =    0.100 relaxation time in fs

 Orbital magnetization related:
   ORBITALMAG=     F  switch on orbital magnetization
   LCHIMAG   =     F  perturbation theory with respect to B field
   DQ        =  0.001000  dq finite difference perturbation B field



--------------------------------------------------------------------------------------------------------


 Static calculation
 charge density and potential will be updated during run
 non-spin polarized calculation
 Variant of blocked Davidson
 Davidson routine will perform the subspace rotation
 perform sub-space diagonalisation
    after iterative eigenvector-optimisation
 modified Broyden-mixing scheme, WC =      100.0
 initial mixing is a Kerker type mixing with AMIX =  0.4000 and BMIX =      1.0000
 Hartree-type preconditioning will be used
 using additional bands           27
 reciprocal scheme for non local part
 use partial core corrections
 calculate Harris-corrections to forces 
   (improved forces if not selfconsistent)
 use gradient corrections 
 use of overlap-Matrix (Vanderbilt PP)
 Methfessel and Paxton  Order N= 1 SIGMA  =   0.10


--------------------------------------------------------------------------------------------------------


  energy-cutoff  :      400.00
  volume of cell :      742.68
      direct lattice vectors                 reciprocal lattice vectors
     5.880299990  0.000000000  0.000000000     0.170059351 -0.098183812  0.000000000
     2.940150000  5.092489180  0.000000000     0.000000000  0.196367624  0.000000000
     0.000000000  0.000000000 24.801244840     0.000000000  0.000000000  0.040320557

  length of vectors
     5.880299990  5.880299998 24.801244840     0.196367624  0.196367624  0.040320557


 
 k-points in units of 2pi/SCALE and weight: KPOINTS created by Atomic Simulation Env
   0.00000000  0.00000000  0.00000000       0.012
   0.01889548 -0.01090931  0.00000000       0.074
   0.03779097 -0.02181862  0.00000000       0.074
   0.05668645 -0.03272794  0.00000000       0.074
   0.07558193 -0.04363725  0.00000000       0.074
   0.03779097 -0.00000000  0.00000000       0.074
   0.05668645 -0.01090931  0.00000000       0.148
   0.07558193 -0.02181862  0.00000000       0.148
  -0.07558193  0.06545587  0.00000000       0.074
   0.07558193 -0.00000000  0.00000000       0.074
  -0.07558193  0.08727450  0.00000000       0.148
  -0.05668645  0.09818381  0.00000000       0.025
 
 k-points in reciprocal lattice and weights: KPOINTS created by Atomic Simulation Env
   0.00000000  0.00000000  0.00000000       0.012
   0.11111111  0.00000000  0.00000000       0.074
   0.22222222  0.00000000  0.00000000       0.074
   0.33333333  0.00000000  0.00000000       0.074
   0.44444444  0.00000000  0.00000000       0.074
   0.22222222  0.11111111  0.00000000       0.074
   0.33333333  0.11111111  0.00000000       0.148
   0.44444444  0.11111111  0.00000000       0.148
  -0.44444444  0.11111111  0.00000000       0.074
   0.44444444  0.22222222  0.00000000       0.074
  -0.44444444  0.22222222  0.00000000       0.148
  -0.33333333  0.33333333  0.00000000       0.025
 
 position of ions in fractional coordinates (direct lattice) 
   0.16666667  0.16666667  0.40351343
   0.66698622  0.16602757  0.40195179
   0.16602757  0.66698622  0.40195179
   0.66698622  0.66698622  0.40195179
   0.83676353  0.33161824  0.49932906
   0.33161824  0.33161824  0.49932906
   0.83333333  0.83333333  0.50252501
   0.33161824  0.83676353  0.49932906
   0.98931101  0.98931101  0.60031121
   0.52137798  0.98931101  0.60031121
   0.98931101  0.52137798  0.60031121
   0.50000000  0.50000000  0.58976581
   0.16666667  0.16666667  0.64459867
 
 position of ions in cartesian coordinates  (Angst):
   1.47007503  0.84874821 10.00763537
   4.41022502  0.84549360  9.96890476
   2.93733145  3.39662011  9.96890476
   5.88311860  3.39662011  9.96890476
   5.89542795  1.68876230 12.38398227
   2.92502210  1.68876230 12.38398227
   7.35037496  4.24374097 12.46324581
   4.41022503  4.26120922 12.38398227
   8.72616829  5.03805561 14.88846530
   5.97458170  5.03805561 14.88846530
   7.35037499  2.65511172 14.88846530
   4.41022500  2.54624459 14.62692625
   1.47007503  0.84874821 15.98684944
 


--------------------------------------------------------------------------------------------------------


 k-point  1 :   0.0000 0.0000 0.0000  plane waves:   13545
 k-point  2 :   0.1111 0.0000 0.0000  plane waves:   13569
 k-point  3 :   0.2222 0.0000 0.0000  plane waves:   13513
 k-point  4 :   0.3333 0.0000 0.0000  plane waves:   13500
 k-point  5 :   0.4444 0.0000 0.0000  plane waves:   13456
 k-point  6 :   0.2222 0.1111 0.0000  plane waves:   13505
 k-point  7 :   0.3333 0.1111 0.0000  plane waves:   13506
 k-point  8 :   0.4444 0.1111 0.0000  plane waves:   13477
 k-point  9 :  -0.4444 0.1111 0.0000  plane waves:   13452
 k-point 10 :   0.4444 0.2222 0.0000  plane waves:   13492
 k-point 11 :  -0.4444 0.2222 0.0000  plane waves:   13483
 k-point 12 :  -0.3333 0.3333 0.0000  plane waves:   13470

 maximum and minimum number of plane-waves per node :     13569    13452

 maximum number of plane-waves:     13569
 maximum index in each direction: 
   IXMAX=   10   IYMAX=    9   IZMAX=   40
   IXMIN=  -10   IYMIN=   -9   IZMIN=  -40

 WARNING: aliasing errors must be expected set NGX to  42 to avoid them
 WARNING: aliasing errors must be expected set NGY to  38 to avoid them
 WARNING: aliasing errors must be expected set NGZ to 162 to avoid them
 aliasing errors are usually negligible using standard VASP settings
 and one can safely disregard these warnings

 serial   3D FFT for wavefunctions
 parallel 3D FFT for charge:
    minimum data exchange during FFTs selected (reduces bandwidth)


 total amount of memory used by VASP on root node    99643. kBytes
========================================================================

   base      :      30000. kBytes
   nonl-proj :      49771. kBytes
   fftplans  :       1950. kBytes
   grid      :       7104. kBytes
   one-center:        202. kBytes
   wavefun   :      10616. kBytes
 
     INWAV:  cpu time    0.0000: real time    0.0253
 Broyden mixing: mesh for mixing (old mesh)
   NGX = 19   NGY = 19   NGZ = 81
  (NGX  = 60   NGY  = 60   NGZ  =252)
  gives a total of  29241 points

 initial charge density was supplied:
 charge density of overlapping atoms calculated
 number of electron     138.0000000 magnetization 
 keeping initial charge density in first step


--------------------------------------------------------------------------------------------------------


 Maximum index for augmentation-charges          714 (set IRDMAX)


--------------------------------------------------------------------------------------------------------


 First call to EWALD:  gamma=   0.196
 Maximum number of real-space cells 5x 5x 1
 Maximum number of reciprocal cells 2x 2x 7

 FEWALD executed in parallel
    FEWALD:  cpu time    0.0020: real time    0.0026


----------------------------------------- Iteration    1(   1)  ---------------------------------------


    POTLOK:  cpu time    0.0408: real time    0.0412
    SETDIJ:  cpu time    0.0038: real time    0.0038
     EDDAV:  cpu time    4.2050: real time    4.2066
       DOS:  cpu time    0.0009: real time    0.0009
    --------------------------------------------
      LOOP:  cpu time    4.2523: real time    4.2561

 eigenvalue-minimisations  :  2304
 total energy-change (2. order) : 0.8136061E+03  (-0.5081175E+04)
 number of electron     138.0000000 magnetization 
 augmentation part      138.0000000 magnetization 

 Free energy of the ion-electron system (eV)
  ---------------------------------------------------
  alpha Z        PSCENC =       240.41329892
  Ewald energy   TEWEN  =     48299.88778067
  -Hartree energ DENC   =    -60028.25454268
  -exchange      EXHF   =         0.00000000
  -V(xc)+E(xc)   XCENC  =       210.04320895
  PAW double counting   =     10835.71951712   -10560.46976544
  entropy T*S    EENTRO =         0.00430296
  eigenvalues    EBANDS =       271.03286717
  atomic energy  EATOM  =     11545.22942124
  Solvation  Ediel_sol  =         0.00000000
  ---------------------------------------------------
  free energy    TOTEN  =       813.60608892 eV

  energy without entropy =      813.60178595  energy(sigma->0) =      813.60465459


--------------------------------------------------------------------------------------------------------




----------------------------------------- Iteration    1(   2)  ---------------------------------------


     EDDAV:  cpu time    4.9304: real time    4.9311
       DOS:  cpu time    0.0009: real time    0.0009
    --------------------------------------------
      LOOP:  cpu time    4.9328: real time    4.9346

 eigenvalue-minimisations  :  3048
 total energy-change (2. order) :-0.8176710E+03  (-0.7700650E+03)
 number of electron     138.0000000 magnetization 
 augmentation part      138.0000000 magnetization 

 Free energy of the ion-electron system (eV)
  ---------------------------------------------------
  alpha Z        PSCENC =       240.41329892
  Ewald energy   TEWEN  =     48299.88778067
  -Hartree energ DENC   =    -60028.25454268
  -exchange      EXHF   =         0.00000000
  -V(xc)+E(xc)   XCENC  =       210.04320895
  PAW double counting   =     10835.71951712   -10560.46976544
  entropy T*S    EENTRO =        -0.00263355
  eigenvalues    EBANDS =      -546.63114800
  atomic energy  EATOM  =     11545.22942124
  Solvation  Ediel_sol  =         0.00000000
  ---------------------------------------------------
  free energy    TOTEN  =        -4.06486278 eV

  energy without entropy =       -4.06222922  energy(sigma->0) =       -4.06398492


--------------------------------------------------------------------------------------------------------




----------------------------------------- Iteration    1(   3)  ---------------------------------------


     EDDAV:  cpu time    4.4797: real time    4.4806
       DOS:  cpu time    0.0009: real time    0.0009
    --------------------------------------------
      LOOP:  cpu time    4.4815: real time    4.4843

 eigenvalue-minimisations  :  2880
 total energy-change (2. order) :-0.4155835E+02  (-0.4057760E+02)
 number of electron     138.0000000 magnetization 
 augmentation part      138.0000000 magnetization 

 Free energy of the ion-electron system (eV)
  ---------------------------------------------------
  alpha Z        PSCENC =       240.41329892
  Ewald energy   TEWEN  =     48299.88778067
  -Hartree energ DENC   =    -60028.25454268
  -exchange      EXHF   =         0.00000000
  -V(xc)+E(xc)   XCENC  =       210.04320895
  PAW double counting   =     10835.71951712   -10560.46976544
  entropy T*S    EENTRO =        -0.00669963
  eigenvalues    EBANDS =      -588.18543527
  atomic energy  EATOM  =     11545.22942124
  Solvation  Ediel_sol  =         0.00000000
  ---------------------------------------------------
  free energy    TOTEN  =       -45.62321612 eV

  energy without entropy =      -45.61651649  energy(sigma->0) =      -45.62098291


--------------------------------------------------------------------------------------------------------




----------------------------------------- Iteration    1(   4)  ---------------------------------------


     EDDAV:  cpu time    3.8588: real time    3.8592
       DOS:  cpu time    0.0009: real time    0.0009
    --------------------------------------------
      LOOP:  cpu time    3.8607: real time    3.8625

 eigenvalue-minimisations  :  2424
 total energy-change (2. order) :-0.6191717E+00  (-0.6190024E+00)
 number of electron     138.0000000 magnetization 
 augmentation part      138.0000000 magnetization 

 Free energy of the ion-electron system (eV)
  ---------------------------------------------------
  alpha Z        PSCENC =       240.41329892
  Ewald energy   TEWEN  =     48299.88778067
  -Hartree energ DENC   =    -60028.25454268
  -exchange      EXHF   =         0.00000000
  -V(xc)+E(xc)   XCENC  =       210.04320895
  PAW double counting   =     10835.71951712   -10560.46976544
  entropy T*S    EENTRO =        -0.00752905
  eigenvalues    EBANDS =      -588.80377759
  atomic energy  EATOM  =     11545.22942124
  Solvation  Ediel_sol  =         0.00000000
  ---------------------------------------------------
  free energy    TOTEN  =       -46.24238786 eV

  energy without entropy =      -46.23485881  energy(sigma->0) =      -46.23987818


--------------------------------------------------------------------------------------------------------




----------------------------------------- Iteration    1(   5)  ---------------------------------------


     EDDAV:  cpu time    4.8871: real time    4.8881
       DOS:  cpu time    0.0009: real time    0.0009
    CHARGE:  cpu time    0.1495: real time    0.1721
    MIXING:  cpu time    0.0018: real time    0.0019
    --------------------------------------------
      LOOP:  cpu time    5.0405: real time    5.0784

 eigenvalue-minimisations  :  3216
 total energy-change (2. order) :-0.1269799E-01  (-0.1269736E-01)
 number of electron     138.0000037 magnetization 
 augmentation part       47.1296879 magnetization 

 Broyden mixing:
  rms(total) = 0.27691E+01    rms(broyden)= 0.27690E+01
  rms(prec ) = 0.28286E+01
  weight for this iteration     100.00

 Free energy of the ion-electron system (eV)
  ---------------------------------------------------
  alpha Z        PSCENC =       240.41329892
  Ewald energy   TEWEN  =     48299.88778067
  -Hartree energ DENC   =    -60028.25454268
  -exchange      EXHF   =         0.00000000
  -V(xc)+E(xc)   XCENC  =       210.04320895
  PAW double counting   =     10835.71951712   -10560.46976544
  entropy T*S    EENTRO =        -0.00755235
  eigenvalues    EBANDS =      -588.81645228
  atomic energy  EATOM  =     11545.22942124
  Solvation  Ediel_sol  =         0.00000000
  ---------------------------------------------------
  free energy    TOTEN  =       -46.25508585 eV

  energy without entropy =      -46.24753350  energy(sigma->0) =      -46.25256840


--------------------------------------------------------------------------------------------------------




----------------------------------------- Iteration    1(   6)  ---------------------------------------


    POTLOK:  cpu time    0.0438: real time    0.0439
    SETDIJ:  cpu time    0.0038: real time    0.0038
     EDDAV:  cpu time    4.8814: real time    4.8831
       DOS:  cpu time    0.0007: real time    0.0007
    CHARGE:  cpu time    0.1461: real time    0.1462
    MIXING:  cpu time    0.0019: real time    0.0019
    --------------------------------------------
      LOOP:  cpu time    5.0792: real time    5.0950

 eigenvalue-minimisations  :  3264
 total energy-change (2. order) : 0.3498764E+01  (-0.2242993E+01)
 number of electron     138.0000076 magnetization 
 augmentation part       48.3154416 magnetization 

 Broyden mixing:
  rms(total) = 0.21400E+01    rms(broyden)= 0.21395E+01
  rms(prec ) = 0.22326E+01
  weight for this iteration     100.00

 eigenvalues of (default mixing * dielectric matrix)
  average eigenvalue GAMMA=   0.8008
  0.8008

 Free energy of the ion-electron system (eV)
  ---------------------------------------------------
  alpha Z        PSCENC =       240.41329892
  Ewald energy   TEWEN  =     48299.88778067
  -Hartree energ DENC   =    -59909.72577220
  -exchange      EXHF   =         0.00000000
  -V(xc)+E(xc)   XCENC  =       207.21292207
  PAW double counting   =     11461.52812863   -11199.41126214
  entropy T*S    EENTRO =        -0.00049087
  eigenvalues    EBANDS =      -687.89034823
  atomic energy  EATOM  =     11545.22942124
  Solvation  Ediel_sol  =         0.00000000
  ---------------------------------------------------
  free energy    TOTEN  =       -42.75632191 eV

  energy without entropy =      -42.75583104  energy(sigma->0) =      -42.75615829


--------------------------------------------------------------------------------------------------------




----------------------------------------- Iteration    1(   7)  ---------------------------------------


    POTLOK:  cpu time    0.0290: real time    0.0290
    SETDIJ:  cpu time    0.0038: real time    0.0038
     EDDAV:  cpu time    4.8301: real time    4.8308
       DOS:  cpu time    0.0009: real time    0.0009
    CHARGE:  cpu time    0.1622: real time    0.1622
    MIXING:  cpu time    0.0014: real time    0.0014
    --------------------------------------------
      LOOP:  cpu time    5.0285: real time    5.0311

 eigenvalue-minimisations  :  3192
 total energy-change (2. order) :-0.2373204E+00  (-0.4127695E+01)
 number of electron     138.0000041 magnetization 
 augmentation part       48.9135027 magnetization 

 Broyden mixing:
  rms(total) = 0.17383E+01    rms(broyden)= 0.17380E+01
  rms(prec ) = 0.18410E+01
  weight for this iteration     100.00

 eigenvalues of (default mixing * dielectric matrix)
  average eigenvalue GAMMA=   1.2822
  2.1400  0.4244

 Free energy of the ion-electron system (eV)
  ---------------------------------------------------
  alpha Z        PSCENC =       240.41329892
  Ewald energy   TEWEN  =     48299.88778067
  -Hartree energ DENC   =    -59896.48760275
  -exchange      EXHF   =         0.00000000
  -V(xc)+E(xc)   XCENC  =       205.47234980
  PAW double counting   =     11788.28918679   -11530.97160590
  entropy T*S    EENTRO =        -0.00801150
  eigenvalues    EBANDS =      -694.81845956
  atomic energy  EATOM  =     11545.22942124
  Solvation  Ediel_sol  =         0.00000000
  ---------------------------------------------------
  free energy    TOTEN  =       -42.99364230 eV

  energy without entropy =      -42.98563080  energy(sigma->0) =      -42.99097180


--------------------------------------------------------------------------------------------------------




----------------------------------------- Iteration    1(   8)  ---------------------------------------


    POTLOK:  cpu time    0.0371: real time    0.0375
    SETDIJ:  cpu time    0.0033: real time    0.0033
     EDDAV:  cpu time    4.6324: real time    4.6331
       DOS:  cpu time    0.0011: real time    0.0011
    CHARGE:  cpu time    0.1574: real time    0.1574
    MIXING:  cpu time    0.0013: real time    0.0013
    --------------------------------------------
      LOOP:  cpu time    4.8337: real time    4.8492

 eigenvalue-minimisations  :  3024
 total energy-change (2. order) : 0.1661876E+01  (-0.1598022E+01)
 number of electron     138.0000053 magnetization 
 augmentation part       48.9377012 magnetization 

 Broyden mixing:
  rms(total) = 0.56582E+00    rms(broyden)= 0.56575E+00
  rms(prec ) = 0.62199E+00
  weight for this iteration     100.00

 eigenvalues of (default mixing * dielectric matrix)
  average eigenvalue GAMMA=   1.2147
  2.4961  0.7358  0.4122

 Free energy of the ion-electron system (eV)
  ---------------------------------------------------
  alpha Z        PSCENC =       240.41329892
  Ewald energy   TEWEN  =     48299.88778067
  -Hartree energ DENC   =    -59873.53773681
  -exchange      EXHF   =         0.00000000
  -V(xc)+E(xc)   XCENC  =       204.76654682
  PAW double counting   =     12404.36461588   -12154.51376481
  entropy T*S    EENTRO =        -0.01018139
  eigenvalues    EBANDS =      -707.93174666
  atomic energy  EATOM  =     11545.22942124
  Solvation  Ediel_sol  =         0.00000000
  ---------------------------------------------------
  free energy    TOTEN  =       -41.33176614 eV

  energy without entropy =      -41.32158475  energy(sigma->0) =      -41.32837234


--------------------------------------------------------------------------------------------------------




----------------------------------------- Iteration    1(   9)  ---------------------------------------


    POTLOK:  cpu time    0.0394: real time    0.0394
    SETDIJ:  cpu time    0.0036: real time    0.0036
     EDDAV:  cpu time    4.4785: real time    4.4791
       DOS:  cpu time    0.0007: real time    0.0007
    CHARGE:  cpu time    0.1536: real time    0.1536
    MIXING:  cpu time    0.0014: real time    0.0014
    --------------------------------------------
      LOOP:  cpu time    4.6784: real time    4.7000

 eigenvalue-minimisations  :  2616
 total energy-change (2. order) : 0.3251521E+00  (-0.4158283E+00)
 number of electron     138.0000057 magnetization 
 augmentation part       49.0305797 magnetization 

 Broyden mixing:
  rms(total) = 0.23422E+00    rms(broyden)= 0.23399E+00
  rms(prec ) = 0.24873E+00
  weight for this iteration     100.00

 eigenvalues of (default mixing * dielectric matrix)
  average eigenvalue GAMMA=   1.1827
  2.5552  1.2147  0.5434  0.4176

 Free energy of the ion-electron system (eV)
  ---------------------------------------------------
  alpha Z        PSCENC =       240.41329892
  Ewald energy   TEWEN  =     48299.88778067
  -Hartree energ DENC   =    -59859.57090810
  -exchange      EXHF   =         0.00000000
  -V(xc)+E(xc)   XCENC  =       204.88244450
  PAW double counting   =     12607.19389432   -12359.71646670
  entropy T*S    EENTRO =        -0.00393869
  eigenvalues    EBANDS =      -719.32214024
  atomic energy  EATOM  =     11545.22942124
  Solvation  Ediel_sol  =         0.00000000
  ---------------------------------------------------
  free energy    TOTEN  =       -41.00661407 eV

  energy without entropy =      -41.00267539  energy(sigma->0) =      -41.00530118


--------------------------------------------------------------------------------------------------------




----------------------------------------- Iteration    1(  10)  ---------------------------------------


    POTLOK:  cpu time    0.0351: real time    0.0356
    SETDIJ:  cpu time    0.0033: real time    0.0033
     EDDAV:  cpu time    4.8071: real time    4.8076
       DOS:  cpu time    0.0007: real time    0.0007
    CHARGE:  cpu time    0.1556: real time    0.1556
    MIXING:  cpu time    0.0016: real time    0.0016
    --------------------------------------------
      LOOP:  cpu time    5.0046: real time    5.0126

 eigenvalue-minimisations  :  2736
 total energy-change (2. order) : 0.3889889E-01  (-0.4480531E-01)
 number of electron     138.0000058 magnetization 
 augmentation part       48.9048490 magnetization 

 Broyden mixing:
  rms(total) = 0.11826E+00    rms(broyden)= 0.11823E+00
  rms(prec ) = 0.12374E+00
  weight for this iteration     100.00

 eigenvalues of (default mixing * dielectric matrix)
  average eigenvalue GAMMA=   1.1069
  2.4749  1.2384  0.4073  0.7426  0.6716

 Free energy of the ion-electron system (eV)
  ---------------------------------------------------
  alpha Z        PSCENC =       240.41329892
  Ewald energy   TEWEN  =     48299.88778067
  -Hartree energ DENC   =    -59864.14110645
  -exchange      EXHF   =         0.00000000
  -V(xc)+E(xc)   XCENC  =       205.07804924
  PAW double counting   =     12628.83217013   -12381.16747303
  entropy T*S    EENTRO =        -0.00371268
  eigenvalues    EBANDS =      -715.09614322
  atomic energy  EATOM  =     11545.22942124
  Solvation  Ediel_sol  =         0.00000000
  ---------------------------------------------------
  free energy    TOTEN  =       -40.96771518 eV

  energy without entropy =      -40.96400250  energy(sigma->0) =      -40.96647762


--------------------------------------------------------------------------------------------------------




----------------------------------------- Iteration    1(  11)  ---------------------------------------


    POTLOK:  cpu time    0.0302: real time    0.0303
    SETDIJ:  cpu time    0.0033: real time    0.0034
     EDDAV:  cpu time    5.0479: real time    5.0508
       DOS:  cpu time    0.0007: real time    0.0007
    CHARGE:  cpu time    0.1570: real time    0.1570
    MIXING:  cpu time    0.0015: real time    0.0015
    --------------------------------------------
      LOOP:  cpu time    5.2420: real time    5.2467

 eigenvalue-minimisations  :  2904
 total energy-change (2. order) : 0.9480952E-02  (-0.4825028E-02)
 number of electron     138.0000057 magnetization 
 augmentation part       48.8910838 magnetization 

 Broyden mixing:
  rms(total) = 0.48094E-01    rms(broyden)= 0.48081E-01
  rms(prec ) = 0.51071E-01
  weight for this iteration     100.00

 eigenvalues of (default mixing * dielectric matrix)
  average eigenvalue GAMMA=   1.1236
  2.3931  1.3365  1.1740  0.4102  0.6095  0.8184

 Free energy of the ion-electron system (eV)
  ---------------------------------------------------
  alpha Z        PSCENC =       240.41329892
  Ewald energy   TEWEN  =     48299.88778067
  -Hartree energ DENC   =    -59863.91479479
  -exchange      EXHF   =         0.00000000
  -V(xc)+E(xc)   XCENC  =       205.06379176
  PAW double counting   =     12604.84108509   -12356.98279478
  entropy T*S    EENTRO =        -0.00459163
  eigenvalues    EBANDS =      -715.49143071
  atomic energy  EATOM  =     11545.22942124
  Solvation  Ediel_sol  =         0.00000000
  ---------------------------------------------------
  free energy    TOTEN  =       -40.95823423 eV

  energy without entropy =      -40.95364260  energy(sigma->0) =      -40.95670368


--------------------------------------------------------------------------------------------------------




----------------------------------------- Iteration    1(  12)  ---------------------------------------


    POTLOK:  cpu time    0.0404: real time    0.0404
    SETDIJ:  cpu time    0.0037: real time    0.0037
     EDDAV:  cpu time    4.8560: real time    4.8612
       DOS:  cpu time    0.0007: real time    0.0007
    CHARGE:  cpu time    0.1590: real time    0.1593
    MIXING:  cpu time    0.0021: real time    0.0021
    --------------------------------------------
      LOOP:  cpu time    5.0633: real time    5.0837

 eigenvalue-minimisations  :  2712
 total energy-change (2. order) : 0.6428068E-03  (-0.1499059E-02)
 number of electron     138.0000056 magnetization 
 augmentation part       48.9004201 magnetization 

 Broyden mixing:
  rms(total) = 0.16393E-01    rms(broyden)= 0.16358E-01
  rms(prec ) = 0.17120E-01
  weight for this iteration     100.00

 eigenvalues of (default mixing * dielectric matrix)
  average eigenvalue GAMMA=   1.2381
  2.3955  2.3955  1.2292  0.4103  0.6077  0.8143  0.8143

 Free energy of the ion-electron system (eV)
  ---------------------------------------------------
  alpha Z        PSCENC =       240.41329892
  Ewald energy   TEWEN  =     48299.88778067
  -Hartree energ DENC   =    -59862.00167836
  -exchange      EXHF   =         0.00000000
  -V(xc)+E(xc)   XCENC  =       205.04498195
  PAW double counting   =     12579.95507974   -12332.01386772
  entropy T*S    EENTRO =        -0.00493244
  eigenvalues    EBANDS =      -717.46767542
  atomic energy  EATOM  =     11545.22942124
  Solvation  Ediel_sol  =         0.00000000
  ---------------------------------------------------
  free energy    TOTEN  =       -40.95759142 eV

  energy without entropy =      -40.95265898  energy(sigma->0) =      -40.95594727


--------------------------------------------------------------------------------------------------------




----------------------------------------- Iteration    1(  13)  ---------------------------------------


    POTLOK:  cpu time    0.0312: real time    0.0313
    SETDIJ:  cpu time    0.0034: real time    0.0034
     EDDAV:  cpu time    5.0422: real time    5.0485
       DOS:  cpu time    0.0007: real time    0.0007
    CHARGE:  cpu time    0.1579: real time    0.1580
    MIXING:  cpu time    0.0015: real time    0.0015
    --------------------------------------------
      LOOP:  cpu time    5.2383: real time    5.2462

 eigenvalue-minimisations  :  2880
 total energy-change (2. order) :-0.8147909E-03  (-0.1163071E-03)
 number of electron     138.0000056 magnetization 
 augmentation part       48.8963656 magnetization 

 Broyden mixing:
  rms(total) = 0.78761E-02    rms(broyden)= 0.78708E-02
  rms(prec ) = 0.89769E-02
  weight for this iteration     100.00

 eigenvalues of (default mixing * dielectric matrix)
  average eigenvalue GAMMA=   1.2411
  2.2945  2.2945  1.5475  0.4101  0.9585  0.9585  0.6119  0.8534

 Free energy of the ion-electron system (eV)
  ---------------------------------------------------
  alpha Z        PSCENC =       240.41329892
  Ewald energy   TEWEN  =     48299.88778067
  -Hartree energ DENC   =    -59860.22782896
  -exchange      EXHF   =         0.00000000
  -V(xc)+E(xc)   XCENC  =       205.04161762
  PAW double counting   =     12565.97873529   -12318.03608384
  entropy T*S    EENTRO =        -0.00485282
  eigenvalues    EBANDS =      -719.24049433
  atomic energy  EATOM  =     11545.22942124
  Solvation  Ediel_sol  =         0.00000000
  ---------------------------------------------------
  free energy    TOTEN  =       -40.95840621 eV

  energy without entropy =      -40.95355339  energy(sigma->0) =      -40.95678861


--------------------------------------------------------------------------------------------------------




----------------------------------------- Iteration    1(  14)  ---------------------------------------


    POTLOK:  cpu time    0.0307: real time    0.0307
    SETDIJ:  cpu time    0.0033: real time    0.0033
     EDDAV:  cpu time    4.1345: real time    4.1402
       DOS:  cpu time    0.0007: real time    0.0007
    CHARGE:  cpu time    0.1576: real time    0.1576
    MIXING:  cpu time    0.0017: real time    0.0017
    --------------------------------------------
      LOOP:  cpu time    4.3296: real time    4.3372

 eigenvalue-minimisations  :  2184
 total energy-change (2. order) :-0.4299505E-03  (-0.3891536E-04)
 number of electron     138.0000056 magnetization 
 augmentation part       48.8975453 magnetization 

 Broyden mixing:
  rms(total) = 0.31590E-02    rms(broyden)= 0.31581E-02
  rms(prec ) = 0.39468E-02
  weight for this iteration     100.00

 eigenvalues of (default mixing * dielectric matrix)
  average eigenvalue GAMMA=   1.3072
  2.6969  2.1125  2.1125  1.2811  0.4101  0.8736  0.8736  0.6093  0.7954

 Free energy of the ion-electron system (eV)
  ---------------------------------------------------
  alpha Z        PSCENC =       240.41329892
  Ewald energy   TEWEN  =     48299.88778067
  -Hartree energ DENC   =    -59859.26991701
  -exchange      EXHF   =         0.00000000
  -V(xc)+E(xc)   XCENC  =       205.03337222
  PAW double counting   =     12564.00401933   -12316.07395000
  entropy T*S    EENTRO =        -0.00480346
  eigenvalues    EBANDS =      -720.17805808
  atomic energy  EATOM  =     11545.22942124
  Solvation  Ediel_sol  =         0.00000000
  ---------------------------------------------------
  free energy    TOTEN  =       -40.95883616 eV

  energy without entropy =      -40.95403270  energy(sigma->0) =      -40.95723501


--------------------------------------------------------------------------------------------------------




----------------------------------------- Iteration    1(  15)  ---------------------------------------


    POTLOK:  cpu time    0.0303: real time    0.0304
    SETDIJ:  cpu time    0.0033: real time    0.0033
     EDDAV:  cpu time    4.1249: real time    4.1326
       DOS:  cpu time    0.0011: real time    0.0011
    CHARGE:  cpu time    0.1596: real time    0.1596
    MIXING:  cpu time    0.0020: real time    0.0021
    --------------------------------------------
      LOOP:  cpu time    4.3225: real time    4.3387

 eigenvalue-minimisations  :  2184
 total energy-change (2. order) :-0.5216934E-03  (-0.1285864E-04)
 number of electron     138.0000056 magnetization 
 augmentation part       48.8970288 magnetization 

 Broyden mixing:
  rms(total) = 0.12529E-02    rms(broyden)= 0.12504E-02
  rms(prec ) = 0.20264E-02
  weight for this iteration     100.00

 eigenvalues of (default mixing * dielectric matrix)
  average eigenvalue GAMMA=   1.3095
  2.5168  2.5168  1.8389  0.4101  1.3099  1.3099  0.6096  0.8859  0.8859  0.8111

 Free energy of the ion-electron system (eV)
  ---------------------------------------------------
  alpha Z        PSCENC =       240.41329892
  Ewald energy   TEWEN  =     48299.88778067
  -Hartree energ DENC   =    -59858.00527277
  -exchange      EXHF   =         0.00000000
  -V(xc)+E(xc)   XCENC  =       205.02944694
  PAW double counting   =     12562.34859485   -12314.42819554
  entropy T*S    EENTRO =        -0.00477054
  eigenvalues    EBANDS =      -721.42966162
  atomic energy  EATOM  =     11545.22942124
  Solvation  Ediel_sol  =         0.00000000
  ---------------------------------------------------
  free energy    TOTEN  =       -40.95935786 eV

  energy without entropy =      -40.95458732  energy(sigma->0) =      -40.95776768


--------------------------------------------------------------------------------------------------------




----------------------------------------- Iteration    1(  16)  ---------------------------------------


    POTLOK:  cpu time    0.0309: real time    0.0309
    SETDIJ:  cpu time    0.0033: real time    0.0033
     EDDAV:  cpu time    3.8284: real time    3.8329
       DOS:  cpu time    0.0007: real time    0.0007
    CHARGE:  cpu time    0.1552: real time    0.1554
    MIXING:  cpu time    0.0020: real time    0.0020
    --------------------------------------------
      LOOP:  cpu time    4.0216: real time    4.0279

 eigenvalue-minimisations  :  1968
 total energy-change (2. order) :-0.2278942E-03  (-0.3536286E-05)
 number of electron     138.0000056 magnetization 
 augmentation part       48.8973256 magnetization 

 Broyden mixing:
  rms(total) = 0.10568E-02    rms(broyden)= 0.10551E-02
  rms(prec ) = 0.16812E-02
  weight for this iteration     100.00

 eigenvalues of (default mixing * dielectric matrix)
  average eigenvalue GAMMA=   1.3230
  2.7498  2.4343  2.0017  1.4913  0.4101  1.1586  1.1586  0.6098  0.8640  0.8640
  0.8106

 Free energy of the ion-electron system (eV)
  ---------------------------------------------------
  alpha Z        PSCENC =       240.41329892
  Ewald energy   TEWEN  =     48299.88778067
  -Hartree energ DENC   =    -59857.32990551
  -exchange      EXHF   =         0.00000000
  -V(xc)+E(xc)   XCENC  =       205.02675603
  PAW double counting   =     12562.02757339   -12314.10394902
  entropy T*S    EENTRO =        -0.00478007
  eigenvalues    EBANDS =      -722.10578140
  atomic energy  EATOM  =     11545.22942124
  Solvation  Ediel_sol  =         0.00000000
  ---------------------------------------------------
  free energy    TOTEN  =       -40.95958575 eV

  energy without entropy =      -40.95480568  energy(sigma->0) =      -40.95799239


--------------------------------------------------------------------------------------------------------




----------------------------------------- Iteration    1(  17)  ---------------------------------------


    POTLOK:  cpu time    0.0390: real time    0.0390
    SETDIJ:  cpu time    0.0035: real time    0.0035
     EDDAV:  cpu time    3.7621: real time    3.7626
       DOS:  cpu time    0.0012: real time    0.0012
    CHARGE:  cpu time    0.1573: real time    0.1573
    MIXING:  cpu time    0.0023: real time    0.0023
    --------------------------------------------
      LOOP:  cpu time    3.9666: real time    3.9958

 eigenvalue-minimisations  :  1968
 total energy-change (2. order) :-0.2461017E-03  (-0.3809930E-05)
 number of electron     138.0000056 magnetization 
 augmentation part       48.8970419 magnetization 

 Broyden mixing:
  rms(total) = 0.68683E-03    rms(broyden)= 0.68402E-03
  rms(prec ) = 0.10561E-02
  weight for this iteration     100.00

 eigenvalues of (default mixing * dielectric matrix)
  average eigenvalue GAMMA=   1.4325
  3.7765  2.3865  2.3865  1.5019  1.5019  0.4101  1.1854  0.6097  0.8987  0.8987
  0.8169  0.8169

 Free energy of the ion-electron system (eV)
  ---------------------------------------------------
  alpha Z        PSCENC =       240.41329892
  Ewald energy   TEWEN  =     48299.88778067
  -Hartree energ DENC   =    -59856.45263381
  -exchange      EXHF   =         0.00000000
  -V(xc)+E(xc)   XCENC  =       205.02407320
  PAW double counting   =     12561.96314658   -12314.03926140
  entropy T*S    EENTRO =        -0.00475036
  eigenvalues    EBANDS =      -722.98090689
  atomic energy  EATOM  =     11545.22942124
  Solvation  Ediel_sol  =         0.00000000
  ---------------------------------------------------
  free energy    TOTEN  =       -40.95983185 eV

  energy without entropy =      -40.95508149  energy(sigma->0) =      -40.95824840


--------------------------------------------------------------------------------------------------------




----------------------------------------- Iteration    1(  18)  ---------------------------------------


    POTLOK:  cpu time    0.0297: real time    0.0298
    SETDIJ:  cpu time    0.0037: real time    0.0037
     EDDAV:  cpu time    3.8013: real time    3.8108
       DOS:  cpu time    0.0007: real time    0.0007
    CHARGE:  cpu time    0.1552: real time    0.1555
    MIXING:  cpu time    0.0020: real time    0.0020
    --------------------------------------------
      LOOP:  cpu time    3.9940: real time    4.0098

 eigenvalue-minimisations  :  2040
 total energy-change (2. order) :-0.2362712E-03  (-0.4229706E-05)
 number of electron     138.0000056 magnetization 
 augmentation part       48.8973239 magnetization 

 Broyden mixing:
  rms(total) = 0.47103E-03    rms(broyden)= 0.46731E-03
  rms(prec ) = 0.60012E-03
  weight for this iteration     100.00

 eigenvalues of (default mixing * dielectric matrix)
  average eigenvalue GAMMA=   1.5450
  4.8888  2.5239  2.5239  1.7215  1.4975  1.4975  0.4101  1.0589  0.8984  0.8984
  0.6097  0.7780  0.7780

 Free energy of the ion-electron system (eV)
  ---------------------------------------------------
  alpha Z        PSCENC =       240.41329892
  Ewald energy   TEWEN  =     48299.88778067
  -Hartree energ DENC   =    -59855.45292693
  -exchange      EXHF   =         0.00000000
  -V(xc)+E(xc)   XCENC  =       205.01988392
  PAW double counting   =     12561.99253711   -12314.06947566
  entropy T*S    EENTRO =        -0.00474258
  eigenvalues    EBANDS =      -723.97584481
  atomic energy  EATOM  =     11545.22942124
  Solvation  Ediel_sol  =         0.00000000
  ---------------------------------------------------
  free energy    TOTEN  =       -40.96006812 eV

  energy without entropy =      -40.95532554  energy(sigma->0) =      -40.95848726


--------------------------------------------------------------------------------------------------------




----------------------------------------- Iteration    1(  19)  ---------------------------------------


    POTLOK:  cpu time    0.0294: real time    0.0295
    SETDIJ:  cpu time    0.0032: real time    0.0032
     EDDAV:  cpu time    3.4794: real time    3.4835
       DOS:  cpu time    0.0014: real time    0.0014
    --------------------------------------------
      LOOP:  cpu time    3.5146: real time    3.5206

 eigenvalue-minimisations  :  1800
 total energy-change (2. order) :-0.8545313E-04  (-0.9136464E-06)
 number of electron     138.0000056 magnetization 
 augmentation part       48.8973239 magnetization 

 Free energy of the ion-electron system (eV)
  ---------------------------------------------------
  alpha Z        PSCENC =       240.41329892
  Ewald energy   TEWEN  =     48299.88778067
  -Hartree energ DENC   =    -59855.05387658
  -exchange      EXHF   =         0.00000000
  -V(xc)+E(xc)   XCENC  =       205.01849015
  PAW double counting   =     12562.32501488   -12314.40144113
  entropy T*S    EENTRO =        -0.00474688
  eigenvalues    EBANDS =      -724.37409484
  atomic energy  EATOM  =     11545.22942124
  Solvation  Ediel_sol  =         0.00000000
  ---------------------------------------------------
  free energy    TOTEN  =       -40.96015358 eV

  energy without entropy =      -40.95540670  energy(sigma->0) =      -40.95857128


--------------------------------------------------------------------------------------------------------




 average (electrostatic) potential at core
  the test charge radii are     1.2098  0.7215
  (the norm of the test charge is              1.0000)
       1 -74.4666       2 -74.3631       3 -74.3631       4 -74.3631       5 -74.6712
       6 -74.6712       7 -74.7500       8 -74.6712       9 -74.5610      10 -74.5610
      11 -74.5610      12 -74.4369      13 -77.1922
 
 
 
 E-fermi :  -1.2861     XC(G=0):  -4.3689     alpha+bet : -3.9375


 k-point     1 :       0.0000    0.0000    0.0000
  band No.  band energies     occupation 
      1     -19.5401      2.00000
      2      -9.7986      2.00000
      3      -8.2949      2.00000
      4      -7.9760      2.00000
      5      -7.7238      2.00000
      6      -7.7238      2.00000
      7      -7.6760      2.00000
      8      -7.5830      2.00000
      9      -7.5830      2.00000
     10      -7.5282      2.00000
     11      -7.1316      2.00000
     12      -7.1316      2.00000
     13      -7.1274      2.00000
     14      -7.0492      2.00000
     15      -7.0492      2.00000
     16      -7.0091      2.00000
     17      -6.5213      2.00000
     18      -6.5213      2.00000
     19      -6.0263      2.00000
     20      -5.8636      2.00000
     21      -5.8636      2.00000
     22      -5.7874      2.00000
     23      -5.6687      2.00000
     24      -5.6547      2.00000
     25      -5.6547      2.00000
     26      -5.5648      2.00000
     27      -5.5648      2.00000
     28      -5.3239      2.00000
     29      -5.3239      2.00000
     30      -5.2356      2.00000
     31      -5.1860      2.00000
     32      -5.1860      2.00000
     33      -5.1001      2.00000
     34      -4.8140      2.00000
     35      -4.8140      2.00000
     36      -4.7782      2.00000
     37      -4.5819      2.00000
     38      -4.5818      2.00000
     39      -4.2244      2.00000
     40      -4.2244      2.00000
     41      -4.1856      2.00000
     42      -4.1530      2.00000
     43      -4.0904      2.00000
     44      -4.0904      2.00000
     45      -3.9314      2.00000
     46      -3.9314      2.00000
     47      -3.5893      2.00000
     48      -3.5893      2.00000
     49      -3.4724      2.00000
     50      -3.4263      2.00000
     51      -3.3789      2.00000
     52      -3.3789      2.00000
     53      -3.3617      2.00000
     54      -3.3617      2.00000
     55      -3.1630      2.00000
     56      -3.1630      2.00000
     57      -3.1406      2.00000
     58      -3.0796      2.00000
     59      -3.0796      2.00000
     60      -3.0283      2.00000
     61      -2.9306      2.00000
     62      -2.8656      2.00000
     63      -2.8656      2.00000
     64      -2.8294      2.00000
     65      -2.5677      2.00000
     66      -2.1953      2.00000
     67      -2.1952      2.00000
     68      -0.8996     -0.00000
     69      -0.8996     -0.00000
     70      -0.7868     -0.00000
     71      -0.5626     -0.00000
     72      -0.0509     -0.00000
     73      -0.0509     -0.00000
     74       0.0512     -0.00000
     75       0.4416     -0.00000
     76       0.4416     -0.00000
     77       1.1499     -0.00000
     78       2.1642      0.00000
     79       2.1642      0.00000
     80       2.4190      0.00000
     81       3.0809      0.00000
     82       3.0809      0.00000
     83       3.4496      0.00000
     84       3.5692      0.00000
     85       4.0910      0.00000
     86       4.2189      0.00000
     87       4.4136      0.00000
     88       4.4136      0.00000
     89       4.7322      0.00000
     90       5.4876      0.00000
     91       5.5969      0.00000
     92       6.8166      0.00000
     93       7.1622      0.00000
     94       7.1622      0.00000
     95       7.3302      0.00000
     96       7.6035      0.00000

 k-point     2 :       0.1111    0.0000    0.0000
  band No.  band energies     occupation 
      1     -19.5380      2.00000
      2      -9.7126      2.00000
      3      -8.2284      2.00000
      4      -7.9215      2.00000
      5      -7.7254      2.00000
      6      -7.6676      2.00000
      7      -7.6071      2.00000
      8      -7.5530      2.00000
      9      -7.5208      2.00000
     10      -7.4710      2.00000
     11      -7.1601      2.00000
     12      -7.0750      2.00000
     13      -7.0549      2.00000
     14      -7.0101      2.00000
     15      -7.0089      2.00000
     16      -6.9398      2.00000
     17      -6.5086      2.00000
     18      -6.4890      2.00000
     19      -5.9889      2.00000
     20      -5.8803      2.00000
     21      -5.8703      2.00000
     22      -5.7797      2.00000
     23      -5.6684      2.00000
     24      -5.6472      2.00000
     25      -5.6218      2.00000
     26      -5.5865      2.00000
     27      -5.5202      2.00000
     28      -5.4039      2.00000
     29      -5.3002      2.00000
     30      -5.2809      2.00000
     31      -5.1752      2.00000
     32      -5.1484      2.00000
     33      -5.1160      2.00000
     34      -4.8948      2.00000
     35      -4.8242      2.00000
     36      -4.7512      2.00000
     37      -4.6191      2.00000
     38      -4.6132      2.00000
     39      -4.3334      2.00000
     40      -4.2754      2.00000
     41      -4.2546      2.00000
     42      -4.1988      2.00000
     43      -4.1037      2.00000
     44      -4.1014      2.00000
     45      -3.9810      2.00000
     46      -3.9411      2.00000
     47      -3.7121      2.00000
     48      -3.6087      2.00000
     49      -3.5620      2.00000
     50      -3.5097      2.00000
     51      -3.4708      2.00000
     52      -3.4033      2.00000
     53      -3.3870      2.00000
     54      -3.3863      2.00000
     55      -3.3012      2.00000
     56      -3.2951      2.00000
     57      -3.2191      2.00000
     58      -3.2075      2.00000
     59      -3.1544      2.00000
     60      -3.0071      2.00000
     61      -3.0028      2.00000
     62      -2.9727      2.00000
     63      -2.9336      2.00000
     64      -2.8363      2.00000
     65      -2.5193      2.00000
     66      -2.2895      2.00000
     67      -2.2111      2.00000
     68      -1.7101      2.00000
     69      -1.0304     -0.00178
     70      -1.0246     -0.00136
     71      -0.5840     -0.00000
     72      -0.2305     -0.00000
     73      -0.0129     -0.00000
     74       0.3848     -0.00000
     75       0.8943     -0.00000
     76       0.9784     -0.00000
     77       1.4827      0.00000
     78       2.1851      0.00000
     79       2.2922      0.00000
     80       2.5309      0.00000
     81       3.0926      0.00000
     82       3.2393      0.00000
     83       3.6257      0.00000
     84       3.7595      0.00000
     85       4.2228      0.00000
     86       4.2864      0.00000
     87       4.4840      0.00000
     88       4.6921      0.00000
     89       5.3711      0.00000
     90       5.5785      0.00000
     91       5.7238      0.00000
     92       6.6020      0.00000
     93       6.9283      0.00000
     94       6.9825      0.00000
     95       7.3811      0.00000
     96       7.5054      0.00000

 k-point     3 :       0.2222    0.0000    0.0000
  band No.  band energies     occupation 
      1     -19.5323      2.00000
      2      -9.4635      2.00000
      3      -8.0896      2.00000
      4      -7.8034      2.00000
      5      -7.6289      2.00000
      6      -7.5273      2.00000
      7      -7.5091      2.00000
      8      -7.3955      2.00000
      9      -7.3427      2.00000
     10      -7.3012      2.00000
     11      -7.1229      2.00000
     12      -6.9733      2.00000
     13      -6.9469      2.00000
     14      -6.8728      2.00000
     15      -6.8532      2.00000
     16      -6.7680      2.00000
     17      -6.4572      2.00000
     18      -6.3923      2.00000
     19      -5.9401      2.00000
     20      -5.9382      2.00000
     21      -5.8664      2.00000
     22      -5.8061      2.00000
     23      -5.7335      2.00000
     24      -5.6634      2.00000
     25      -5.5658      2.00000
     26      -5.5350      2.00000
     27      -5.5240      2.00000
     28      -5.3962      2.00000
     29      -5.3756      2.00000
     30      -5.2650      2.00000
     31      -5.2047      2.00000
     32      -5.1563      2.00000
     33      -5.0330      2.00000
     34      -5.0227      2.00000
     35      -4.8851      2.00000
     36      -4.8464      2.00000
     37      -4.7222      2.00000
     38      -4.7073      2.00000
     39      -4.5601      2.00000
     40      -4.4048      2.00000
     41      -4.3898      2.00000
     42      -4.3022      2.00000
     43      -4.2452      2.00000
     44      -4.1642      2.00000
     45      -4.1285      2.00000
     46      -3.9874      2.00000
     47      -3.9873      2.00000
     48      -3.8303      2.00000
     49      -3.7848      2.00000
     50      -3.6779      2.00000
     51      -3.6623      2.00000
     52      -3.6142      2.00000
     53      -3.5879      2.00000
     54      -3.5041      2.00000
     55      -3.4877      2.00000
     56      -3.4337      2.00000
     57      -3.3858      2.00000
     58      -3.3674      2.00000
     59      -3.3151      2.00000
     60      -3.2355      2.00000
     61      -3.2171      2.00000
     62      -3.1302      2.00000
     63      -3.1030      2.00000
     64      -3.0807      2.00000
     65      -2.6940      2.00000
     66      -2.5100      2.00000
     67      -2.2244      2.00000
     68      -2.0257      2.00000
     69      -1.3483      1.85877
     70      -1.1387     -0.05754
     71      -0.9516     -0.00002
     72       0.0956     -0.00000
     73       0.1244     -0.00000
     74       0.4882     -0.00000
     75       1.0844     -0.00000
     76       1.7525      0.00000
     77       1.8832      0.00000
     78       2.4452      0.00000
     79       2.6817      0.00000
     80       3.1569      0.00000
     81       3.4516      0.00000
     82       3.7717      0.00000
     83       3.8221      0.00000
     84       4.4433      0.00000
     85       4.4905      0.00000
     86       4.5829      0.00000
     87       5.1159      0.00000
     88       5.3154      0.00000
     89       5.6859      0.00000
     90       5.7884      0.00000
     91       5.9891      0.00000
     92       6.5336      0.00000
     93       6.6262      0.00000
     94       6.9614      0.00000
     95       7.2554      0.00000
     96       7.5846      0.00000

 k-point     4 :       0.3333    0.0000    0.0000
  band No.  band energies     occupation 
      1     -19.5259      2.00000
      2      -9.0828      2.00000
      3      -8.0711      2.00000
      4      -7.6870      2.00000
      5      -7.4459      2.00000
      6      -7.3141      2.00000
      7      -7.2839      2.00000
      8      -7.1730      2.00000
      9      -7.0864      2.00000
     10      -7.0772      2.00000
     11      -6.9872      2.00000
     12      -6.8470      2.00000
     13      -6.8027      2.00000
     14      -6.6714      2.00000
     15      -6.6699      2.00000
     16      -6.5334      2.00000
     17      -6.3338      2.00000
     18      -6.2345      2.00000
     19      -6.0317      2.00000
     20      -6.0063      2.00000
     21      -5.9643      2.00000
     22      -5.8462      2.00000
     23      -5.7275      2.00000
     24      -5.7168      2.00000
     25      -5.6587      2.00000
     26      -5.5681      2.00000
     27      -5.5279      2.00000
     28      -5.4443      2.00000
     29      -5.3605      2.00000
     30      -5.2567      2.00000
     31      -5.2128      2.00000
     32      -5.1887      2.00000
     33      -5.1093      2.00000
     34      -5.0883      2.00000
     35      -5.0105      2.00000
     36      -4.9525      2.00000
     37      -4.9256      2.00000
     38      -4.7245      2.00000
     39      -4.6612      2.00000
     40      -4.5562      2.00000
     41      -4.5049      2.00000
     42      -4.4898      2.00000
     43      -4.4267      2.00000
     44      -4.4048      2.00000
     45      -4.3392      2.00000
     46      -4.3326      2.00000
     47      -4.2412      2.00000
     48      -4.1786      2.00000
     49      -4.0315      2.00000
     50      -3.9841      2.00000
     51      -3.9403      2.00000
     52      -3.8935      2.00000
     53      -3.8060      2.00000
     54      -3.8036      2.00000
     55      -3.7122      2.00000
     56      -3.5697      2.00000
     57      -3.5441      2.00000
     58      -3.4979      2.00000
     59      -3.4654      2.00000
     60      -3.4334      2.00000
     61      -3.3748      2.00000
     62      -3.3278      2.00000
     63      -3.2256      2.00000
     64      -3.0944      2.00000
     65      -2.9798      2.00000
     66      -2.6090      2.00000
     67      -2.2201      2.00000
     68      -1.8255      2.00000
     69      -1.4238      2.06517
     70      -1.1508     -0.06667
     71      -0.9909     -0.00024
     72      -0.1290     -0.00000
     73       0.2217     -0.00000
     74       0.6861     -0.00000
     75       1.1817     -0.00000
     76       2.3273      0.00000
     77       2.3560      0.00000
     78       2.8575      0.00000
     79       2.8742      0.00000
     80       3.7414      0.00000
     81       4.1025      0.00000
     82       4.2210      0.00000
     83       4.5138      0.00000
     84       4.8147      0.00000
     85       4.8795      0.00000
     86       5.2779      0.00000
     87       5.8122      0.00000
     88       5.8906      0.00000
     89       5.9438      0.00000
     90       6.0732      0.00000
     91       6.1273      0.00000
     92       6.1376      0.00000
     93       6.4868      0.00000
     94       6.6859      0.00000
     95       6.8493      0.00000
     96       7.2197      0.00000

 k-point     5 :       0.4444    0.0000    0.0000
  band No.  band energies     occupation 
      1     -19.5216      2.00000
      2      -8.6537      2.00000
      3      -8.2249      2.00000
      4      -7.7097      2.00000
      5      -7.2161      2.00000
      6      -7.0777      2.00000
      7      -7.0761      2.00000
      8      -7.0122      2.00000
      9      -6.9084      2.00000
     10      -6.8668      2.00000
     11      -6.8128      2.00000
     12      -6.7311      2.00000
     13      -6.6376      2.00000
     14      -6.4884      2.00000
     15      -6.4762      2.00000
     16      -6.3446      2.00000
     17      -6.3110      2.00000
     18      -6.1669      2.00000
     19      -6.1431      2.00000
     20      -6.0024      2.00000
     21      -5.9521      2.00000
     22      -5.8866      2.00000
     23      -5.8552      2.00000
     24      -5.8320      2.00000
     25      -5.7762      2.00000
     26      -5.6971      2.00000
     27      -5.5895      2.00000
     28      -5.5186      2.00000
     29      -5.4398      2.00000
     30      -5.3728      2.00000
     31      -5.2156      2.00000
     32      -5.1838      2.00000
     33      -5.1451      2.00000
     34      -5.0387      2.00000
     35      -5.0334      2.00000
     36      -4.9763      2.00000
     37      -4.9015      2.00000
     38      -4.9013      2.00000
     39      -4.8397      2.00000
     40      -4.7813      2.00000
     41      -4.7307      2.00000
     42      -4.7064      2.00000
     43      -4.6572      2.00000
     44      -4.4640      2.00000
     45      -4.4557      2.00000
     46      -4.4342      2.00000
     47      -4.4297      2.00000
     48      -4.2659      2.00000
     49      -4.2533      2.00000
     50      -4.2171      2.00000
     51      -4.1718      2.00000
     52      -4.1258      2.00000
     53      -3.9521      2.00000
     54      -3.8700      2.00000
     55      -3.8244      2.00000
     56      -3.8041      2.00000
     57      -3.6820      2.00000
     58      -3.6648      2.00000
     59      -3.4999      2.00000
     60      -3.3853      2.00000
     61      -3.3828      2.00000
     62      -3.3366      2.00000
     63      -3.2401      2.00000
     64      -3.1170      2.00000
     65      -3.0891      2.00000
     66      -2.6681      2.00000
     67      -2.2125      2.00000
     68      -1.7737      2.00000
     69      -1.3023      1.26932
     70      -1.1389     -0.05776
[...]
     91       6.2849      0.00000
     92       6.3701      0.00000
     93       6.7431      0.00000
     94       6.8540      0.00000
     95       6.9482      0.00000
     96       7.0290      0.00000

 k-point    11 :      -0.4444    0.2222    0.0000
  band No.  band energies     occupation 
      1     -19.5199      2.00000
      2      -8.4810      2.00000
      3      -8.0581      2.00000
      4      -7.6491      2.00000
      5      -7.2815      2.00000
      6      -7.0588      2.00000
      7      -6.9798      2.00000
      8      -6.8934      2.00000
      9      -6.8235      2.00000
     10      -6.7576      2.00000
     11      -6.6767      2.00000
     12      -6.6353      2.00000
     13      -6.5518      2.00000
     14      -6.4349      2.00000
     15      -6.4074      2.00000
     16      -6.3216      2.00000
     17      -6.2844      2.00000
     18      -6.2612      2.00000
     19      -6.1739      2.00000
     20      -6.0990      2.00000
     21      -6.0299      2.00000
     22      -5.9610      2.00000
     23      -5.8998      2.00000
     24      -5.7879      2.00000
     25      -5.7621      2.00000
     26      -5.7182      2.00000
     27      -5.6839      2.00000
     28      -5.6378      2.00000
     29      -5.5312      2.00000
     30      -5.4255      2.00000
     31      -5.4083      2.00000
     32      -5.3349      2.00000
     33      -5.3086      2.00000
     34      -5.2595      2.00000
     35      -5.1217      2.00000
     36      -5.0626      2.00000
     37      -4.9926      2.00000
     38      -4.9632      2.00000
     39      -4.8536      2.00000
     40      -4.8145      2.00000
     41      -4.7474      2.00000
     42      -4.6864      2.00000
     43      -4.6361      2.00000
     44      -4.4958      2.00000
     45      -4.4512      2.00000
     46      -4.3921      2.00000
     47      -4.3076      2.00000
     48      -4.2139      2.00000
     49      -4.1809      2.00000
     50      -4.1257      2.00000
     51      -4.1067      2.00000
     52      -3.9971      2.00000
     53      -3.8793      2.00000
     54      -3.8295      2.00000
     55      -3.7531      2.00000
     56      -3.6622      2.00000
     57      -3.6179      2.00000
     58      -3.5485      2.00000
     59      -3.5019      2.00000
     60      -3.4691      2.00000
     61      -3.3967      2.00000
     62      -3.3530      2.00000
     63      -3.3161      2.00000
     64      -3.2367      2.00000
     65      -3.0482      2.00000
     66      -2.9428      2.00000
     67      -2.6236      2.00000
     68      -2.5290      2.00000
     69      -1.7057      2.00000
     70      -1.2246      0.14664
     71      -0.6410     -0.00000
     72      -0.2363     -0.00000
     73       0.7000     -0.00000
     74       0.9428     -0.00000
     75       1.8897      0.00000
     76       2.2094      0.00000
     77       2.5737      0.00000
     78       3.0296      0.00000
     79       3.5627      0.00000
     80       3.9482      0.00000
     81       4.4763      0.00000
     82       4.6392      0.00000
     83       4.8607      0.00000
     84       5.2117      0.00000
     85       5.4925      0.00000
     86       5.5838      0.00000
     87       5.6834      0.00000
     88       5.7834      0.00000
     89       6.1246      0.00000
     90       6.2448      0.00000
     91       6.5186      0.00000
     92       6.6386      0.00000
     93       6.7571      0.00000
     94       6.8109      0.00000
     95       6.8582      0.00000
     96       6.9127      0.00000

 k-point    12 :      -0.3333    0.3333    0.0000
  band No.  band energies     occupation 
      1     -19.5188      2.00000
      2      -8.3168      2.00000
      3      -7.8976      2.00000
      4      -7.8174      2.00000
      5      -7.2947      2.00000
      6      -7.0186      2.00000
      7      -6.8222      2.00000
      8      -6.8009      2.00000
      9      -6.7884      2.00000
     10      -6.6321      2.00000
     11      -6.5647      2.00000
     12      -6.5492      2.00000
     13      -6.5183      2.00000
     14      -6.4503      2.00000
     15      -6.4495      2.00000
     16      -6.3274      2.00000
     17      -6.3226      2.00000
     18      -6.2253      2.00000
     19      -6.1015      2.00000
     20      -6.0831      2.00000
     21      -6.0671      2.00000
     22      -6.0484      2.00000
     23      -5.8754      2.00000
     24      -5.8731      2.00000
     25      -5.8368      2.00000
     26      -5.7752      2.00000
     27      -5.6863      2.00000
     28      -5.6269      2.00000
     29      -5.6165      2.00000
     30      -5.5388      2.00000
     31      -5.5286      2.00000
     32      -5.4363      2.00000
     33      -5.3830      2.00000
     34      -5.3239      2.00000
     35      -5.1066      2.00000
     36      -5.0478      2.00000
     37      -5.0114      2.00000
     38      -4.9749      2.00000
     39      -4.9546      2.00000
     40      -4.8792      2.00000
     41      -4.8205      2.00000
     42      -4.7347      2.00000
     43      -4.5693      2.00000
     44      -4.4808      2.00000
     45      -4.4382      2.00000
     46      -4.3844      2.00000
     47      -4.2947      2.00000
     48      -4.1897      2.00000
     49      -4.1656      2.00000
     50      -4.1005      2.00000
     51      -4.0679      2.00000
     52      -3.8500      2.00000
     53      -3.8432      2.00000
     54      -3.8409      2.00000
     55      -3.6496      2.00000
     56      -3.6362      2.00000
     57      -3.5727      2.00000
     58      -3.5099      2.00000
     59      -3.5022      2.00000
     60      -3.4711      2.00000
     61      -3.4697      2.00000
     62      -3.4227      2.00000
     63      -3.4168      2.00000
     64      -3.3952      2.00000
     65      -3.1430      2.00000
     66      -2.9849      2.00000
     67      -2.9115      2.00000
     68      -2.5929      2.00000
     69      -1.7584      2.00000
     70      -1.2698      0.72849
     71      -0.4348     -0.00000
     72      -0.3575     -0.00000
     73       0.4366     -0.00000
     74       1.6101      0.00000
     75       1.7581      0.00000
     76       2.3242      0.00000
     77       2.9153      0.00000
     78       2.9563      0.00000
     79       3.3601      0.00000
     80       4.2554      0.00000
     81       4.2723      0.00000
     82       4.3477      0.00000
     83       4.9877      0.00000
     84       5.1826      0.00000
     85       5.3977      0.00000
     86       6.0241      0.00000
     87       6.0329      0.00000
     88       6.0662      0.00000
     89       6.1404      0.00000
     90       6.1544      0.00000
     91       6.1587      0.00000
     92       6.2313      0.00000
     93       6.4211      0.00000
     94       6.7588      0.00000
     95       7.1961      0.00000
     96       7.2862      0.00000


--------------------------------------------------------------------------------------------------------


 soft charge-density along one line, spin component           1
         0         1         2         3         4         5         6         7         8         9
 total charge-density along one line
 
 pseudopotential strength for first ion, spin component:           1
 -8.236  -0.000   0.000  -0.004   0.000  -8.379  -0.000   0.000
 -0.000  -8.209   0.000   0.000  -0.004  -0.000  -8.352   0.000
  0.000   0.000  -8.208   0.000   0.000   0.000   0.000  -8.352
 -0.004   0.000   0.000  -8.209  -0.000  -0.004   0.000   0.000
  0.000  -0.004   0.000  -0.000  -8.236   0.000  -0.004   0.000
 -8.379  -0.000   0.000  -0.004   0.000  -8.506  -0.000   0.000
 -0.000  -8.352   0.000   0.000  -0.004  -0.000  -8.480   0.000
  0.000   0.000  -8.352   0.000   0.000   0.000   0.000  -8.479
 -0.004   0.000   0.000  -8.352  -0.000  -0.004   0.000   0.000
  0.000  -0.004   0.000  -0.000  -8.379   0.000  -0.004   0.000
  0.000   0.000  -0.011   0.000   0.000   0.000   0.000  -0.011
  0.000   0.000  -0.016   0.000   0.000   0.000   0.000  -0.016
 -0.000  -0.005   0.000  -0.000   0.000  -0.000  -0.005   0.000
 -0.000   0.000  -0.008   0.000  -0.000  -0.000   0.000  -0.007
  0.000  -0.000   0.000  -0.005  -0.000   0.000  -0.000   0.000
 -0.000  -0.006   0.000  -0.000   0.000  -0.000  -0.005   0.000
 -0.000   0.000  -0.008   0.000  -0.000  -0.000   0.000  -0.008
  0.000  -0.000   0.000  -0.006  -0.000   0.000  -0.000   0.000
 total augmentation occupancy for first ion, spin component:           1
  4.102  -0.000  -0.000   0.004  -0.000  -2.064   0.000   0.000  -0.066   0.000  -0.000   0.000   0.000   0.000  -0.030  -0.000
 -0.000   3.696   0.000   0.000   0.004   0.000  -1.504  -0.000  -0.000  -0.065   0.000   0.000  -0.136   0.000  -0.000   0.002
 -0.000   0.000   4.251  -0.000   0.000   0.000  -0.000  -2.088   0.000  -0.000   0.494  -0.045  -0.000  -0.260   0.000   0.000
  0.004   0.000  -0.000   3.696   0.000  -0.065  -0.000   0.000  -1.504  -0.000  -0.000  -0.000  -0.000   0.000  -0.136   0.000
  0.000   0.004   0.000   0.000   4.102   0.000  -0.066  -0.000  -0.000  -2.064   0.000  -0.000  -0.030  -0.000  -0.000   0.001
 -2.064   0.000   0.000  -0.065   0.000   1.943  -0.000  -0.000   0.111  -0.000   0.000  -0.000  -0.000  -0.000   0.030   0.000
  0.000  -1.504  -0.000  -0.000  -0.066  -0.000   1.270   0.000   0.000   0.111  -0.000   0.000   0.135   0.000   0.000  -0.005
  0.000  -0.000  -2.088   0.000  -0.000  -0.000   0.000   1.869  -0.000   0.000  -0.456   0.065   0.000   0.270  -0.000  -0.000
 -0.066  -0.000   0.000  -1.504  -0.000   0.111   0.000  -0.000   1.270   0.000  -0.000   0.000   0.000   0.000   0.135  -0.000
  0.000  -0.065  -0.000  -0.000  -2.064  -0.000   0.111   0.000   0.000   1.943  -0.000   0.000   0.030   0.000   0.000  -0.001
 -0.000   0.000   0.494   0.000   0.000   0.000   0.000  -0.456   0.000  -0.000   2.206  -0.489   0.000   0.143   0.000   0.000
  0.000   0.000  -0.045  -0.000  -0.000  -0.000   0.000   0.065   0.000   0.000  -0.489   0.152   0.000  -0.059   0.000   0.000
  0.000  -0.136  -0.000  -0.000  -0.030  -0.000   0.135   0.000   0.000   0.030   0.000  -0.000   0.149   0.000   0.000  -0.005
  0.000   0.000  -0.260   0.000  -0.000  -0.000   0.000   0.270   0.000   0.000   0.143  -0.059   0.000   0.094  -0.000   0.000
 -0.030  -0.000   0.000  -0.136  -0.000   0.030   0.000  -0.000   0.135   0.000   0.000   0.000   0.000   0.000   0.149  -0.000
 -0.000   0.002   0.000   0.000   0.001   0.000  -0.005  -0.000  -0.000  -0.001  -0.000   0.000  -0.005   0.000  -0.000   0.000
  0.000   0.000  -0.001  -0.000  -0.000   0.000   0.000  -0.007   0.000  -0.000  -0.009   0.003   0.000  -0.003   0.000   0.000
  0.001   0.000  -0.000   0.002   0.000  -0.001  -0.000   0.000  -0.005  -0.000   0.000  -0.000  -0.000  -0.000  -0.005   0.000


------------------------ aborting loop because EDIFF is reached ----------------------------------------


 


 total charge     
 
# of ion     s       p       d       tot
----------------------------------------
  1        0.531   0.247   8.766   9.544
  2        0.534   0.232   8.760   9.526
  3        0.553   0.232   8.769   9.554
  4        0.543   0.233   8.757   9.532
  5        0.522   0.288   8.790   9.600
  6        0.521   0.292   8.773   9.586
  7        0.510   0.304   8.764   9.577
  8        0.517   0.292   8.780   9.589
  9        0.561   0.313   8.729   9.604
 10        0.543   0.302   8.700   9.545
 11        0.567   0.318   8.747   9.632
 12        0.528   0.246   8.806   9.580
 13        1.614   3.271   0.000   4.886
------------------------------------------------
tot        8.043   6.571 105.140 119.754
 
    CHARGE:  cpu time    0.3680: real time    0.3681
    FORLOC:  cpu time    0.0067: real time    0.0067
    FORNL :  cpu time    2.9181: real time    2.9184
    STRESS:  cpu time    4.3521: real time    4.3524
    FORCOR:  cpu time    0.0328: real time    0.0328
    FORHAR:  cpu time    0.0109: real time    0.0109
    MIXING:  cpu time    0.0033: real time    0.0033
    OFIELD:  cpu time    0.0001: real time    0.0001

  FORCE on cell =-STRESS in cart. coord.  units (eV):
  Direction    XX          YY          ZZ          XY          YZ          ZX
  --------------------------------------------------------------------------------------
  Alpha Z   240.41330   240.41330   240.41330
  Ewald   56124.71482 56124.71481-63949.55410    -0.00001     0.00000     0.00000
  Hartree 58745.90534 58745.90534-57637.11171    -0.00000     0.00000    -0.00000
  E(xc)    -621.48571  -621.48569  -624.77969    -0.00002     0.00001     0.00001
  Local  ************************119189.07704     0.00145    -0.00009    -0.00014
  n-local   -21.89455   -58.27622   -30.00222   -19.13940    -0.10576    -0.41472
  augment   816.03041   816.03121   824.69845    -0.00069     0.00000     0.00001
  Kinetic  1952.29303  1964.96020  1986.61429     4.67696    -1.97153     1.80802
  Fock        0.00000     0.00000     0.00000     0.00000     0.00000     0.00000
  -------------------------------------------------------------------------------------
  Total      -6.11758    -6.11758    -0.64463    -0.00000     0.00000     0.00000
  in kB     -13.19736   -13.19736    -1.39065    -0.00000     0.00000     0.00000
  external pressure =       -9.26 kB  Pullay stress =        0.00 kB


 VOLUME and BASIS-vectors are now :
 -----------------------------------------------------------------------------
  energy-cutoff  :      400.00
  volume of cell :      742.68
      direct lattice vectors                 reciprocal lattice vectors
     5.880299990  0.000000000  0.000000000     0.170059351 -0.098183812  0.000000000
     2.940150000  5.092489180  0.000000000     0.000000000  0.196367624  0.000000000
     0.000000000  0.000000000 24.801244840     0.000000000  0.000000000  0.040320557

  length of vectors
     5.880299990  5.880299998 24.801244840     0.196367624  0.196367624  0.040320557


 FORCES acting on ions
    electron-ion (+dipol)            ewald-force                    non-local-force                 convergence-correction
 -----------------------------------------------------------------------------------------------
   0.141E-04 0.822E-05 0.215E+04   -.143E-05 -.897E-06 -.215E+04   -.173E-17 0.000E+00 -.707E+00   -.749E-08 -.433E-08 0.983E-03
   -.828E-05 0.231E+01 0.216E+04   0.197E-05 -.229E+01 -.216E+04   -.238E-10 -.242E-01 -.706E-01   0.739E-08 -.904E-04 0.716E-03
   0.200E+01 -.115E+01 0.216E+04   -.199E+01 0.115E+01 -.216E+04   -.210E-01 0.121E-01 -.706E-01   -.783E-04 0.452E-04 0.716E-03
   -.200E+01 -.115E+01 0.216E+04   0.199E+01 0.115E+01 -.216E+04   0.210E-01 0.121E-01 -.706E-01   0.783E-04 0.452E-04 0.716E-03
   -.351E+01 0.203E+01 0.151E+03   0.358E+01 -.207E+01 -.151E+03   -.670E-01 0.387E-01 -.174E-01   0.290E-03 -.167E-03 -.874E-02
   0.351E+01 0.203E+01 0.151E+03   -.358E+01 -.207E+01 -.151E+03   0.670E-01 0.387E-01 -.174E-01   -.290E-03 -.167E-03 -.874E-02
   0.150E-04 0.868E-05 0.116E+03   0.205E-04 0.118E-04 -.115E+03   0.000E+00 0.694E-17 -.112E+01   0.335E-07 0.193E-07 -.694E-02
   0.110E-05 -.405E+01 0.151E+03   -.169E-04 0.413E+01 -.151E+03   -.760E-10 -.774E-01 -.174E-01   -.296E-07 0.335E-03 -.874E-02
   0.381E+02 0.220E+02 -.194E+04   -.397E+02 -.229E+02 0.194E+04   0.167E+01 0.963E+00 -.215E+00   -.469E-02 -.271E-02 -.139E-01
   -.381E+02 0.220E+02 -.194E+04   0.397E+02 -.229E+02 0.194E+04   -.167E+01 0.963E+00 -.215E+00   0.469E-02 -.271E-02 -.139E-01
   0.124E-04 -.440E+02 -.194E+04   0.339E-06 0.459E+02 0.194E+04   -.189E-08 -.193E+01 -.215E+00   0.340E-07 0.542E-02 -.139E-01
   0.126E-05 0.649E-06 -.184E+04   -.192E-06 -.305E-07 0.183E+04   -.173E-17 0.000E+00 0.207E+01   -.102E-07 -.592E-08 -.134E-01
   0.439E-04 0.251E-04 -.152E+04   -.459E-05 -.218E-05 0.155E+04   0.165E-16 -.694E-17 -.255E+02   0.150E-07 0.870E-08 -.204E-02
 -----------------------------------------------------------------------------------------------
   0.778E-04 0.450E-04 0.263E+02   -.235E-13 0.107E-13 -.455E-12   0.265E-15 -.694E-17 -.262E+02   0.339E-07 0.196E-07 -.870E-01
 
 
 POSITION                                       TOTAL-FORCE (eV/Angst)
 -----------------------------------------------------------------------------------
      1.47008      0.84875     10.00764        -0.000000      0.000000     -0.024614
      4.41023      0.84549      9.96890        -0.000000     -0.012580     -0.003296
      2.93733      3.39662      9.96890        -0.010894      0.006290     -0.003296
      5.88312      3.39662      9.96890         0.010894      0.006290     -0.003296
      5.89543      1.68876     12.38398         0.001795     -0.001036     -0.012175
      2.92502      1.68876     12.38398        -0.001795     -0.001036     -0.012175
      7.35037      4.24374     12.46325        -0.000000      0.000000      0.034378
      4.41023      4.26121     12.38398         0.000000      0.002073     -0.012175
      8.72617      5.03806     14.88847        -0.004048     -0.002337      0.007349
      5.97458      5.03806     14.88847         0.004048     -0.002337      0.007349
      7.35037      2.65511     14.88847         0.000000      0.004674      0.007349
      4.41022      2.54624     14.62693        -0.000000      0.000000      0.014437
      1.47008      0.84875     15.98685        -0.000000      0.000000      0.000166
 -----------------------------------------------------------------------------------
    total drift:                                0.000078      0.000045     -0.002302


--------------------------------------------------------------------------------------------------------



  FREE ENERGIE OF THE ION-ELECTRON SYSTEM (eV)
  ---------------------------------------------------
  free  energy   TOTEN  =       -40.96015358 eV

  energy  without entropy=      -40.95540670  energy(sigma->0) =      -40.95857128
 


--------------------------------------------------------------------------------------------------------


    POTLOK:  cpu time    0.0364: real time    0.0364


--------------------------------------------------------------------------------------------------------


     LOOP+:  cpu time   94.6306: real time   94.8664
    4ORBIT:  cpu time    0.0000: real time    0.0000
 


 total charge     
 
# of ion     s       p       d       tot
----------------------------------------
  1        0.531   0.247   8.766   9.544
  2        0.534   0.232   8.760   9.526
  3        0.553   0.232   8.769   9.554
  4        0.543   0.233   8.757   9.532
  5        0.522   0.288   8.790   9.600
  6        0.521   0.292   8.773   9.586
  7        0.510   0.304   8.764   9.577
  8        0.517   0.292   8.780   9.589
  9        0.561   0.313   8.729   9.604
 10        0.543   0.302   8.700   9.545
 11        0.567   0.318   8.747   9.632
 12        0.528   0.246   8.806   9.580
 13        1.614   3.271   0.000   4.886
------------------------------------------------
tot        8.043   6.571 105.140 119.754
 

 total amount of memory used by VASP on root node    99643. kBytes
========================================================================

   base      :      30000. kBytes
   nonl-proj :      49771. kBytes
   fftplans  :       1950. kBytes
   grid      :       7104. kBytes
   one-center:        202. kBytes
   wavefun   :      10616. kBytes
 
  
  
 General timing and accounting informations for this job:
 ========================================================
  
                  Total CPU time used (sec):       97.263
                            User time (sec):       95.480
                          System time (sec):        1.783
                         Elapsed time (sec):       97.854
  
                   Maximum memory used (kb):      135836.
                   Average memory used (kb):           0.
  
                          Minor page faults:       177532
                          Major page faults:           11
                 Voluntary context switches:         1639
