PROCAR new format
# of k-points:   12         # of bands:  96         # of ions:  13

 k-point    1 :    0.00000000 0.00000000 0.00000000     weight = 0.01234568

band   1 # energy  -19.54013919 # occ.  2.00000000
 
ion      s      p      d    tot
  1  0.000  0.000  0.000  0.000
  2  0.000  0.000  0.000  0.000
  3  0.000  0.000  0.000  0.000
  4  0.000  0.000  0.000  0.000
  5  0.000  0.000  0.000  0.000
  6  0.000  0.000  0.000  0.000
  7  0.000  0.000  0.000  0.000
  8  0.000  0.000  0.000  0.000
  9  0.008  0.006  0.013  0.027
 10  0.008  0.006  0.013  0.027
 11  0.008  0.006  0.013  0.027
 12  0.000  0.000  0.000  0.000
 13  0.753  0.008  0.000  0.761
tot  0.778  0.026  0.038  0.842
 
band   2 # energy   -9.79857824 # occ.  2.00000000
 
ion      s      p      d    tot
  1  0.033  0.002  0.000  0.035
  2  0.028  0.002  0.000  0.030
  3  0.028  0.002  0.000  0.030
  4  0.028  0.002  0.000  0.030
  5  0.084  0.000  0.003  0.087
  6  0.084  0.000  0.003  0.087
  7  0.080  0.000  0.002  0.082
  8  0.084  0.000  0.003  0.087
  9  0.021  0.002  0.000  0.024
 10  0.021  0.002  0.000  0.024
 11  0.021  0.002  0.000  0.024
 12  0.035  0.003  0.000  0.037
 13  0.004  0.002  0.000  0.005
tot  0.550  0.019  0.012  0.581
 
band   3 # energy   -8.29487319 # occ.  2.00000000
 
ion      s      p      d    tot
  1  0.053  0.000  0.020  0.073
  2  0.049  0.000  0.018  0.068
  3  0.049  0.000  0.018  0.068
  4  0.049  0.000  0.018  0.068
  5  0.000  0.006  0.000  0.006
  6  0.000  0.006  0.000  0.006
  7  0.000  0.006  0.000  0.006
  8  0.000  0.006  0.000  0.006
  9  0.050  0.002  0.031  0.083
 10  0.050  0.002  0.031  0.083
 11  0.050  0.002  0.031  0.083
 12  0.050  0.000  0.018  0.068
 13  0.012  0.021  0.000  0.033
tot  0.414  0.049  0.187  0.651
 
band   4 # energy   -7.97595302 # occ.  2.00000000
 
ion      s      p      d    tot
  1  0.016  0.001  0.040  0.057
  2  0.024  0.000  0.025  0.049
  3  0.024  0.000  0.025  0.049
  4  0.024  0.000  0.025  0.049
  5  0.019  0.000  0.062  0.081
  6  0.019  0.000  0.062  0.081
  7  0.007  0.000  0.064  0.071
  8  0.019  0.000  0.062  0.081
  9  0.017  0.001  0.045  0.062
 10  0.017  0.001  0.045  0.062
 11  0.017  0.001  0.045  0.062
 12  0.001  0.002  0.030  0.033
 13  0.009  0.025  0.000  0.033
tot  0.212  0.029  0.529  0.770
 
band   5 # energy   -7.72379872 # occ.  2.00000000
 
ion      s      p      d    tot
  1  0.000  0.000  0.011  0.011
  2  0.001  0.000  0.007  0.008
  3  0.001  0.000  0.007  0.008
  4  0.004  0.000  0.001  0.005
  5  0.000  0.000  0.038  0.038
  6  0.000  0.000  0.010  0.011
  7  0.000  0.001  0.067  0.068
  8  0.000  0.000  0.038  0.038
  9  0.053  0.001  0.035  0.088
 10  0.013  0.000  0.151  0.164
 11  0.013  0.000  0.151  0.164
 12  0.000  0.000  0.084  0.084
 13  0.000  0.107  0.000  0.107
tot  0.085  0.111  0.601  0.796
 
band   6 # energy   -7.72375539 # occ.  2.00000000
 
ion      s      p      d    tot
  1  0.000  0.000  0.011  0.011
  2  0.003  0.000  0.003  0.006
  3  0.003  0.000  0.003  0.006
  4  0.000  0.000  0.009  0.009
  5  0.000  0.000  0.020  0.020
  6  0.000  0.000  0.047  0.047
  7  0.000  0.001  0.067  0.068
  8  0.000  0.000  0.020  0.020
  9  0.000  0.000  0.190  0.190
 10  0.039  0.001  0.073  0.114
 11  0.039  0.001  0.073  0.114
 12  0.000  0.000  0.084  0.084
 13  0.000  0.107  0.000  0.107
tot  0.085  0.111  0.601  0.796
 
band   7 # energy   -7.67599626 # occ.  2.00000000
 
ion      s      p      d    tot
  1  0.017  0.002  0.009  0.028
  2  0.000  0.001  0.016  0.016
  3  0.000  0.001  0.016  0.016
  4  0.000  0.001  0.016  0.016
  5  0.002  0.000  0.178  0.180
  6  0.002  0.000  0.178  0.180
  7  0.088  0.000  0.004  0.092
  8  0.002  0.000  0.178  0.180
  9  0.000  0.001  0.016  0.018
 10  0.000  0.001  0.016  0.018
 11  0.000  0.001  0.016  0.018
 12  0.020  0.002  0.015  0.037
 13  0.000  0.000  0.000  0.001
tot  0.134  0.011  0.655  0.800
 
band   8 # energy   -7.58296652 # occ.  2.00000000
 
ion      s      p      d    tot
  1  0.000  0.001  0.024  0.025
  2  0.001  0.001  0.017  0.019
  3  0.001  0.001  0.017  0.019
  4  0.005  0.001  0.010  0.016
  5  0.017  0.000  0.153  0.170
  6  0.069  0.000  0.019  0.088
  7  0.000  0.000  0.195  0.195
  8  0.017  0.000  0.152  0.169
  9  0.008  0.001  0.007  0.016
 10  0.002  0.001  0.018  0.021
 11  0.002  0.001  0.018  0.021
 12  0.000  0.002  0.030  0.032
 13  0.000  0.002  0.000  0.002
tot  0.123  0.011  0.658  0.792
 
band   9 # energy   -7.58296530 # occ.  2.00000000
 
ion      s      p      d    tot
  1  0.000  0.001  0.024  0.025
  2  0.004  0.001  0.012  0.017
  3  0.004  0.001  0.012  0.017
  4  0.000  0.001  0.019  0.020
  5  0.052  0.000  0.063  0.115
  6  0.000  0.000  0.197  0.197
  7  0.000  0.000  0.195  0.195
  8  0.051  0.000  0.064  0.115
  9  0.000  0.001  0.022  0.022
 10  0.006  0.001  0.010  0.017
 11  0.006  0.001  0.010  0.017
 12  0.000  0.002  0.030  0.032
 13  0.000  0.002  0.000  0.002
tot  0.123  0.011  0.658  0.792
 
band  10 # energy   -7.52816066 # occ.  2.00000000
 
ion      s      p      d    tot
  1  0.006  0.000  0.004  0.011
  2  0.000  0.000  0.017  0.018
  3  0.000  0.000  0.017  0.018
  4  0.000  0.000  0.017  0.018
  5  0.002  0.000  0.065  0.067
  6  0.002  0.000  0.065  0.067
  7  0.000  0.000  0.009  0.009
  8  0.002  0.000  0.065  0.067
  9  0.000  0.000  0.135  0.135
 10  0.000  0.000  0.135  0.135
 11  0.000  0.000  0.135  0.135
 12  0.056  0.000  0.029  0.085
 13  0.006  0.038  0.000  0.044
tot  0.075  0.040  0.692  0.808
 
band  11 # energy   -7.13158168 # occ.  2.00000000
 
ion      s      p      d    tot
  1  0.000  0.000  0.209  0.209
  2  0.010  0.000  0.150  0.160
  3  0.010  0.000  0.150  0.160
  4  0.040  0.000  0.036  0.077
  5  0.000  0.001  0.027  0.029
  6  0.001  0.001  0.030  0.032
  7  0.000  0.001  0.015  0.016
  8  0.000  0.001  0.027  0.029
  9  0.003  0.001  0.019  0.024
 10  0.001  0.000  0.023  0.024
 11  0.001  0.000  0.023  0.024
 12  0.000  0.000  0.002  0.002
 13  0.000  0.034  0.000  0.034
tot  0.067  0.040  0.713  0.820
 
band  12 # energy   -7.13156738 # occ.  2.00000000
 
ion      s      p      d    tot
  1  0.000  0.000  0.209  0.209
  2  0.030  0.000  0.074  0.105
  3  0.030  0.000  0.074  0.105
  4  0.000  0.000  0.188  0.188
  5  0.001  0.001  0.029  0.031
  6  0.000  0.001  0.027  0.027
  7  0.000  0.001  0.015  0.016
  8  0.001  0.001  0.029  0.031
  9  0.000  0.000  0.025  0.025
 10  0.002  0.001  0.021  0.024
 11  0.002  0.001  0.021  0.024
 12  0.000  0.000  0.002  0.002
 13  0.000  0.034  0.000  0.034
tot  0.067  0.040  0.713  0.820
 
band  13 # energy   -7.12743690 # occ.  2.00000000
 
ion      s      p      d    tot
  1  0.024  0.001  0.001  0.026
  2  0.003  0.001  0.074  0.078
  3  0.003  0.001  0.074  0.078
  4  0.003  0.001  0.074  0.078
  5  0.001  0.001  0.097  0.099
  6  0.001  0.001  0.097  0.099
  7  0.009  0.001  0.014  0.023
  8  0.001  0.001  0.097  0.099
  9  0.000  0.002  0.058  0.060
 10  0.000  0.002  0.058  0.060
 11  0.000  0.002  0.058  0.060
 12  0.002  0.001  0.031  0.035
 13  0.005  0.014  0.000  0.019
tot  0.051  0.028  0.734  0.813
 
band  14 # energy   -7.04919549 # occ.  2.00000000
 
ion      s      p      d    tot
  1  0.000  0.002  0.044  0.046
  2  0.001  0.001  0.030  0.032
  3  0.001  0.001  0.030  0.032
  4  0.002  0.001  0.020  0.023
  5  0.001  0.000  0.105  0.106
  6  0.003  0.000  0.099  0.102
  7  0.000  0.000  0.117  0.117
  8  0.001  0.000  0.105  0.106
  9  0.001  0.001  0.044  0.045
 10  0.000  0.001  0.072  0.072
 11  0.000  0.001  0.072  0.072
 12  0.000  0.002  0.088  0.090
 13  0.000  0.000  0.000  0.000
tot  0.010  0.010  0.825  0.845
 
band  15 # energy   -7.04919518 # occ.  2.00000000
 
ion      s      p      d    tot
  1  0.000  0.002  0.044  0.046
  2  0.002  0.001  0.023  0.026
  3  0.002  0.001  0.023  0.026
  4  0.000  0.001  0.034  0.035
  5  0.002  0.000  0.101  0.103
  6  0.000  0.000  0.108  0.108
  7  0.000  0.000  0.117  0.117
  8  0.002  0.000  0.101  0.103
  9  0.000  0.000  0.081  0.081
 10  0.001  0.001  0.053  0.055
 11  0.001  0.001  0.053  0.054
 12  0.000  0.002  0.088  0.090
 13  0.000  0.000  0.000  0.000
tot  0.010  0.010  0.825  0.845
 
band  16 # energy   -7.00911130 # occ.  2.00000000
 
ion      s      p      d    tot
  1  0.017  0.000  0.032  0.050
  2  0.003  0.001  0.151  0.155
  3  0.003  0.001  0.151  0.155
  4  0.003  0.001  0.151  0.155
  5  0.002  0.001  0.026  0.028
  6  0.002  0.001  0.026  0.028
  7  0.006  0.000  0.106  0.112
  8  0.002  0.001  0.026  0.028
  9  0.000  0.001  0.035  0.036
 10  0.000  0.001  0.035  0.036
 11  0.000  0.001  0.035  0.036
 12  0.008  0.000  0.001  0.010
 13  0.000  0.002  0.000  0.003
tot  0.045  0.011  0.776  0.831
 
band  17 # energy   -6.52130678 # occ.  2.00000000
 
ion      s      p      d    tot
  1  0.000  0.000  0.039  0.039
  2  0.000  0.000  0.035  0.035
  3  0.000  0.000  0.035  0.035
  4  0.001  0.000  0.019  0.020
  5  0.000  0.001  0.039  0.039
  6  0.000  0.003  0.004  0.007
  7  0.000  0.000  0.010  0.011
  8  0.000  0.001  0.039  0.039
  9  0.001  0.007  0.199  0.207
 10  0.000  0.003  0.071  0.074
 11  0.000  0.003  0.071  0.074
 12  0.000  0.000  0.147  0.147
 13  0.000  0.127  0.000  0.127
tot  0.003  0.145  0.708  0.857
 
band  18 # energy   -6.52125087 # occ.  2.00000000
 
ion      s      p      d    tot
  1  0.000  0.000  0.039  0.039
  2  0.001  0.000  0.024  0.025
  3  0.001  0.000  0.024  0.025
  4  0.000  0.000  0.040  0.040
  5  0.000  0.002  0.016  0.018
  6  0.000  0.000  0.050  0.050
  7  0.000  0.000  0.010  0.011
  8  0.000  0.002  0.016  0.018
  9  0.000  0.002  0.028  0.030
 10  0.001  0.006  0.156  0.163
 11  0.001  0.006  0.156  0.163
 12  0.000  0.000  0.147  0.147
 13  0.000  0.127  0.000  0.127
tot  0.003  0.145  0.708  0.857
 
band  19 # energy   -6.02633008 # occ.  2.00000000
 
ion      s      p      d    tot
  1  0.000  0.000  0.015  0.015
  2  0.000  0.000  0.050  0.051
  3  0.000  0.000  0.050  0.051
  4  0.000  0.000  0.050  0.051
  5  0.000  0.001  0.051  0.051
  6  0.000  0.001  0.051  0.051
  7  0.003  0.009  0.186  0.199
  8  0.000  0.001  0.051  0.051
  9  0.001  0.004  0.109  0.114
 10  0.001  0.004  0.109  0.114
 11  0.001  0.004  0.109  0.114
 12  0.000  0.000  0.003  0.004
 13  0.002  0.002  0.000  0.005
tot  0.009  0.027  0.836  0.872
 
band  20 # energy   -5.86360813 # occ.  2.00000000
 
ion      s      p      d    tot
  1  0.000  0.001  0.183  0.183
  2  0.000  0.000  0.141  0.141
  3  0.000  0.000  0.140  0.141
  4  0.000  0.000  0.025  0.025
  5  0.000  0.005  0.030  0.035
  6  0.001  0.007  0.033  0.041
  7  0.000  0.003  0.012  0.015
  8  0.000  0.005  0.030  0.035
  9  0.000  0.001  0.026  0.027
 10  0.000  0.000  0.061  0.061
 11  0.000  0.000  0.061  0.061
 12  0.000  0.001  0.078  0.079
 13  0.000  0.006  0.000  0.006
tot  0.002  0.030  0.819  0.851
 
band  21 # energy   -5.86360527 # occ.  2.00000000
 
ion      s      p      d    tot
  1  0.000  0.001  0.183  0.183
  2  0.000  0.000  0.063  0.064
  3  0.000  0.000  0.064  0.064
  4  0.000  0.000  0.179  0.179
  5  0.001  0.006  0.032  0.039
  6  0.000  0.004  0.029  0.033
  7  0.000  0.003  0.012  0.015
  8  0.001  0.006  0.032  0.039
  9  0.000  0.000  0.072  0.072
 10  0.000  0.001  0.038  0.039
 11  0.000  0.001  0.038  0.039
 12  0.000  0.001  0.078  0.079
 13  0.000  0.006  0.000  0.006
tot  0.002  0.030  0.819  0.851
 
band  22 # energy   -5.78735020 # occ.  2.00000000
 
ion      s      p      d    tot
  1  0.000  0.000  0.001  0.001
  2  0.000  0.000  0.147  0.148
  3  0.000  0.000  0.147  0.148
  4  0.000  0.000  0.147  0.148
  5  0.000  0.004  0.022  0.027
  6  0.000  0.004  0.022  0.027
  7  0.000  0.004  0.086  0.090
  8  0.000  0.004  0.022  0.027
  9  0.001  0.000  0.066  0.067
 10  0.001  0.000  0.066  0.067
 11  0.001  0.000  0.066  0.067
 12  0.001  0.000  0.004  0.005
 13  0.003  0.021  0.000  0.024
tot  0.009  0.039  0.797  0.845
 
band  23 # energy   -5.66869222 # occ.  2.00000000
 
ion      s      p      d    tot
  1  0.000  0.002  0.084  0.086
  2  0.000  0.000  0.037  0.038
  3  0.000  0.000  0.037  0.038
  4  0.000  0.000  0.037  0.038
  5  0.001  0.000  0.140  0.141
  6  0.001  0.000  0.140  0.141
  7  0.000  0.001  0.016  0.017
  8  0.001  0.000  0.140  0.141
  9  0.000  0.000  0.063  0.064
 10  0.000  0.000  0.063  0.064
 11  0.000  0.000  0.063  0.064
 12  0.000  0.003  0.062  0.065
 13  0.000  0.004  0.000  0.005
tot  0.005  0.012  0.884  0.902
 
band  24 # energy   -5.65471716 # occ.  2.00000000
 
ion      s      p      d    tot
  1  0.000  0.000  0.024  0.024
  2  0.000  0.000  0.019  0.020
  3  0.000  0.000  0.019  0.020
  4  0.000  0.001  0.029  0.030
  5  0.000  0.001  0.043  0.044
  6  0.001  0.001  0.131  0.134
  7  0.000  0.000  0.182  0.182
  8  0.000  0.001  0.043  0.044
  9  0.000  0.000  0.076  0.077
 10  0.000  0.000  0.053  0.053
 11  0.000  0.000  0.053  0.053
 12  0.000  0.001  0.211  0.213
 13  0.000  0.009  0.000  0.009
tot  0.002  0.016  0.886  0.903
 
band  25 # energy   -5.65471305 # occ.  2.00000000
 
ion      s      p      d    tot
  1  0.000  0.000  0.024  0.024
  2  0.000  0.000  0.026  0.026
  3  0.000  0.000  0.026  0.026
  4  0.000  0.000  0.016  0.016
  5  0.001  0.001  0.102  0.104
  6  0.000  0.001  0.014  0.015
  7  0.000  0.000  0.182  0.182
  8  0.001  0.001  0.102  0.104
  9  0.000  0.000  0.045  0.045
 10  0.000  0.000  0.069  0.069
 11  0.000  0.000  0.069  0.069
 12  0.000  0.001  0.211  0.213
 13  0.000  0.009  0.000  0.009
tot  0.002  0.016  0.886  0.903
 
band  26 # energy   -5.56477834 # occ.  2.00000000
 
ion      s      p      d    tot
  1  0.000  0.000  0.014  0.014
  2  0.000  0.000  0.010  0.010
  3  0.000  0.000  0.010  0.010
  4  0.000  0.000  0.008  0.008
  5  0.000  0.000  0.211  0.211
  6  0.000  0.001  0.180  0.181
  7  0.000  0.000  0.161  0.161
  8  0.000  0.000  0.211  0.211
  9  0.000  0.000  0.018  0.019
 10  0.000  0.000  0.042  0.043
 11  0.000  0.000  0.042  0.043
 12  0.000  0.000  0.002  0.002
 13  0.000  0.004  0.000  0.004
tot  0.001  0.006  0.910  0.917
 
band  27 # energy   -5.56477679 # occ.  2.00000000
 
ion      s      p      d    tot
  1  0.000  0.000  0.014  0.014
  2  0.000  0.000  0.009  0.009
  3  0.000  0.000  0.009  0.009
  4  0.000  0.000  0.011  0.011
  5  0.000  0.000  0.190  0.191
  6  0.000  0.000  0.221  0.221
  7  0.000  0.000  0.161  0.161
  8  0.000  0.000  0.191  0.191
  9  0.000  0.001  0.050  0.051
 10  0.000  0.000  0.026  0.027
 11  0.000  0.000  0.026  0.027
 12  0.000  0.000  0.002  0.002
 13  0.000  0.004  0.000  0.004
tot  0.001  0.006  0.910  0.917
 
band  28 # energy   -5.32392231 # occ.  2.00000000
 
ion      s      p      d    tot
  1  0.000  0.000  0.078  0.078
  2  0.000  0.000  0.050  0.050
  3  0.000  0.000  0.049  0.049
  4  0.000  0.000  0.064  0.064
  5  0.000  0.000  0.046  0.046
  6  0.000  0.000  0.194  0.195
  7  0.000  0.000  0.016  0.016
  8  0.000  0.000  0.053  0.053
  9  0.000  0.000  0.091  0.091
 10  0.000  0.000  0.082  0.082
 11  0.000  0.000  0.082  0.082
 12  0.000  0.000  0.111  0.111
 13  0.000  0.001  0.000  0.001
tot  0.001  0.002  0.916  0.920
 
band  29 # energy   -5.32392207 # occ.  2.00000000
 
ion      s      p      d    tot
  1  0.000  0.000  0.078  0.078
  2  0.000  0.000  0.059  0.059
  3  0.000  0.000  0.059  0.060
  4  0.000  0.000  0.044  0.045
  5  0.000  0.000  0.150  0.150
  6  0.000  0.000  0.001  0.001
  7  0.000  0.000  0.016  0.016
  8  0.000  0.000  0.143  0.143
  9  0.000  0.000  0.079  0.079
 10  0.000  0.000  0.088  0.089
 11  0.000  0.000  0.088  0.088
 12  0.000  0.000  0.111  0.111
 13  0.000  0.001  0.000  0.001
tot  0.001  0.002  0.916  0.920
 
band  30 # energy   -5.23563852 # occ.  2.00000000
 
ion      s      p      d    tot
  1  0.011  0.001  0.152  0.164
  2  0.006  0.001  0.091  0.098
  3  0.006  0.001  0.091  0.098
  4  0.006  0.001  0.091  0.098
  5  0.000  0.011  0.003  0.015
  6  0.000  0.011  0.003  0.015
  7  0.000  0.014  0.000  0.015
  8  0.000  0.011  0.003  0.015
  9  0.009  0.002  0.048  0.059
 10  0.009  0.002  0.048  0.059
 11  0.009  0.002  0.048  0.059
 12  0.010  0.001  0.094  0.106
 13  0.000  0.005  0.000  0.005
tot  0.069  0.063  0.672  0.804
 
band  31 # energy   -5.18604677 # occ.  2.00000000
 
ion      s      p      d    tot
  1  0.000  0.000  0.153  0.153
  2  0.000  0.000  0.181  0.181
  3  0.000  0.000  0.181  0.181
  4  0.000  0.000  0.184  0.184
  5  0.000  0.000  0.015  0.015
  6  0.000  0.000  0.030  0.031
  7  0.000  0.000  0.062  0.062
  8  0.000  0.000  0.014  0.014
  9  0.000  0.000  0.014  0.014
 10  0.000  0.000  0.029  0.029
 11  0.000  0.000  0.030  0.031
 12  0.000  0.000  0.030  0.030
 13  0.000  0.000  0.000  0.000
tot  0.000  0.002  0.924  0.926
 
band  32 # energy   -5.18604651 # occ.  2.00000000
 
ion      s      p      d    tot
  1  0.000  0.000  0.153  0.153
  2  0.000  0.000  0.183  0.183
  3  0.000  0.000  0.183  0.183
  4  0.000  0.000  0.180  0.180
  5  0.000  0.000  0.025  0.025
  6  0.000  0.000  0.009  0.010
  7  0.000  0.000  0.062  0.062
  8  0.000  0.000  0.026  0.026
  9  0.000  0.000  0.035  0.035
 10  0.000  0.000  0.020  0.020
 11  0.000  0.000  0.018  0.019
 12  0.000  0.000  0.030  0.030
 13  0.000  0.000  0.000  0.000
tot  0.000  0.002  0.924  0.926
 
band  33 # energy   -5.10013037 # occ.  2.00000000
 
ion      s      p      d    tot
  1  0.000  0.000  0.000  0.000
  2  0.000  0.000  0.066  0.067
  3  0.000  0.000  0.066  0.067
  4  0.000  0.000  0.066  0.067
  5  0.000  0.000  0.190  0.190
  6  0.000  0.000  0.190  0.190
  7  0.000  0.000  0.000  0.000
  8  0.000  0.000  0.190  0.190
  9  0.000  0.000  0.049  0.050
 10  0.000  0.000  0.049  0.050
 11  0.000  0.000  0.049  0.050
 12  0.000  0.000  0.000  0.000
 13  0.000  0.000  0.000  0.000
tot  0.000  0.002  0.918  0.920
 
band  34 # energy   -4.81404596 # occ.  2.00000000
 
ion      s      p      d    tot
  1  0.000  0.000  0.089  0.089
  2  0.001  0.000  0.019  0.020
  3  0.001  0.000  0.019  0.020
  4  0.002  0.000  0.073  0.076
  5  0.000  0.002  0.025  0.026
  6  0.000  0.002  0.047  0.049
  7  0.000  0.003  0.155  0.158
  8  0.000  0.002  0.025  0.026
  9  0.008  0.004  0.110  0.122
 10  0.002  0.002  0.092  0.096
 11  0.002  0.002  0.092  0.096
 12  0.000  0.000  0.071  0.072
 13  0.000  0.047  0.000  0.047
tot  0.016  0.065  0.817  0.899
 
band  35 # energy   -4.81402210 # occ.  2.00000000
 
ion      s      p      d    tot
  1  0.000  0.000  0.089  0.089
  2  0.002  0.000  0.055  0.057
  3  0.002  0.000  0.055  0.057
  4  0.000  0.000  0.001  0.002
  5  0.000  0.002  0.040  0.042
  6  0.000  0.002  0.017  0.019
  7  0.000  0.003  0.155  0.158
  8  0.000  0.002  0.040  0.042
  9  0.000  0.002  0.086  0.087
 10  0.006  0.004  0.104  0.114
 11  0.006  0.004  0.104  0.114
 12  0.000  0.000  0.071  0.072
 13  0.000  0.047  0.000  0.047
tot  0.016  0.065  0.817  0.899
 
band  36 # energy   -4.77823122 # occ.  2.00000000
 
ion      s      p      d    tot
  1  0.016  0.001  0.194  0.211
  2  0.003  0.000  0.056  0.060
  3  0.003  0.000  0.056  0.060
  4  0.003  0.000  0.056  0.060
  5  0.000  0.016  0.002  0.019
  6  0.000  0.016  0.002  0.019
  7  0.000  0.007  0.000  0.007
  8  0.000  0.016  0.002  0.019
  9  0.003  0.001  0.026  0.030
 10  0.003  0.001  0.026  0.030
 11  0.003  0.001  0.026  0.030
 12  0.019  0.001  0.280  0.299
 13  0.000  0.001  0.000  0.001
tot  0.054  0.062  0.728  0.844
 
band  37 # energy   -4.58185418 # occ.  2.00000000
 
ion      s      p      d    tot
  1  0.000  0.000  0.010  0.010
  2  0.003  0.000  0.056  0.060
  3  0.003  0.000  0.056  0.060
  4  0.013  0.001  0.215  0.229
  5  0.000  0.012  0.004  0.016
  6  0.000  0.004  0.005  0.010
  7  0.000  0.012  0.017  0.030
  8  0.000  0.012  0.004  0.016
  9  0.008  0.003  0.229  0.240
 10  0.002  0.001  0.081  0.085
 11  0.002  0.001  0.082  0.085
 12  0.000  0.000  0.016  0.016
 13  0.000  0.010  0.000  0.010
tot  0.033  0.056  0.776  0.865
 
band  38 # energy   -4.58184939 # occ.  2.00000000
 
ion      s      p      d    tot
  1  0.000  0.000  0.010  0.010
  2  0.010  0.001  0.162  0.173
  3  0.010  0.001  0.162  0.173
  4  0.000  0.000  0.003  0.003
  5  0.000  0.007  0.005  0.012
  6  0.000  0.014  0.003  0.018
  7  0.000  0.012  0.017  0.030
  8  0.000  0.007  0.005  0.012
  9  0.000  0.000  0.032  0.033
 10  0.006  0.002  0.180  0.188
 11  0.006  0.002  0.180  0.188
 12  0.000  0.000  0.016  0.016
 13  0.000  0.010  0.000  0.010
tot  0.033  0.056  0.776  0.865
 
band  39 # energy   -4.22438479 # occ.  2.00000000
 
ion      s      p      d    tot
  1  0.000  0.000  0.042  0.042
  2  0.000  0.000  0.044  0.044
  3  0.000  0.000  0.044  0.044
  4  0.000  0.000  0.040  0.040
  5  0.000  0.000  0.143  0.143
  6  0.000  0.000  0.117  0.117
  7  0.000  0.000  0.170  0.170
  8  0.000  0.000  0.143  0.143
  9  0.000  0.000  0.062  0.062
 10  0.000  0.000  0.057  0.057
 11  0.000  0.000  0.057  0.057
 12  0.000  0.000  0.036  0.036
 13  0.000  0.001  0.000  0.001
tot  0.000  0.001  0.954  0.956
 
band  40 # energy   -4.22438435 # occ.  2.00000000
 
ion      s      p      d    tot
  1  0.000  0.000  0.042  0.042
  2  0.000  0.000  0.041  0.041
  3  0.000  0.000  0.041  0.041
  4  0.000  0.000  0.045  0.045
  5  0.000  0.000  0.126  0.126
  6  0.000  0.000  0.152  0.152
  7  0.000  0.000  0.170  0.170
  8  0.000  0.000  0.126  0.126
  9  0.000  0.000  0.055  0.055
 10  0.000  0.000  0.060  0.061
 11  0.000  0.000  0.060  0.061
 12  0.000  0.000  0.036  0.036
 13  0.000  0.001  0.000  0.001
tot  0.000  0.001  0.954  0.956
 
band  41 # energy   -4.18562869 # occ.  2.00000000
 
ion      s      p      d    tot
  1  0.000  0.000  0.004  0.005
  2  0.001  0.003  0.049  0.053
  3  0.001  0.003  0.049  0.053
  4  0.001  0.003  0.049  0.053
  5  0.002  0.001  0.055  0.059
  6  0.002  0.001  0.055  0.059
  7  0.002  0.000  0.132  0.134
  8  0.002  0.001  0.055  0.059
  9  0.002  0.017  0.045  0.065
 10  0.002  0.017  0.045  0.065
 11  0.002  0.017  0.045  0.065
 12  0.001  0.001  0.007  0.009
 13  0.005  0.149  0.000  0.154
tot  0.024  0.214  0.592  0.830
 
band  42 # energy   -4.15303739 # occ.  2.00000000
 
ion      s      p      d    tot
  1  0.000  0.000  0.000  0.000
  2  0.000  0.000  0.121  0.121
  3  0.000  0.000  0.121  0.121
  4  0.000  0.000  0.121  0.121
  5  0.000  0.001  0.000  0.001
  6  0.000  0.001  0.000  0.001
  7  0.000  0.000  0.000  0.000
  8  0.000  0.001  0.000  0.001
  9  0.000  0.000  0.191  0.191
 10  0.000  0.000  0.191  0.191
 11  0.000  0.000  0.191  0.191
 12  0.000  0.000  0.000  0.000
 13  0.000  0.000  0.000  0.000
tot  0.000  0.003  0.936  0.939
 
band  43 # energy   -4.09040490 # occ.  2.00000000
 
ion      s      p      d    tot
  1  0.000  0.001  0.139  0.140
  2  0.000  0.000  0.102  0.103
  3  0.000  0.000  0.102  0.103
  4  0.000  0.000  0.090  0.090
  5  0.000  0.000  0.009  0.010
  6  0.000  0.001  0.028  0.029
  7  0.000  0.002  0.031  0.032
  8  0.000  0.000  0.009  0.010
  9  0.000  0.003  0.002  0.005
 10  0.000  0.004  0.049  0.053
 11  0.000  0.004  0.049  0.053
 12  0.000  0.003  0.282  0.285
 13  0.000  0.012  0.000  0.012
tot  0.002  0.030  0.893  0.925
 
band  44 # energy   -4.09039810 # occ.  2.00000000
 
ion      s      p      d    tot
  1  0.000  0.001  0.139  0.140
  2  0.000  0.000  0.094  0.094
  3  0.000  0.000  0.094  0.094
  4  0.000  0.000  0.106  0.107
  5  0.000  0.001  0.022  0.023
  6  0.000  0.000  0.003  0.003
  7  0.000  0.002  0.031  0.032
  8  0.000  0.001  0.022  0.023
  9  0.000  0.005  0.065  0.070
 10  0.000  0.003  0.017  0.021
 11  0.000  0.003  0.017  0.021
 12  0.000  0.003  0.282  0.285
 13  0.000  0.012  0.000  0.012
tot  0.002  0.030  0.893  0.925
 
band  45 # energy   -3.93137523 # occ.  2.00000000
 
ion      s      p      d    tot
  1  0.000  0.005  0.126  0.130
  2  0.000  0.004  0.019  0.022
  3  0.000  0.004  0.019  0.023
  4  0.000  0.000  0.060  0.060
  5  0.001  0.000  0.080  0.081
  6  0.004  0.000  0.175  0.179
  7  0.000  0.000  0.004  0.004
  8  0.001  0.000  0.080  0.081
  9  0.000  0.000  0.042  0.042
 10  0.000  0.002  0.142  0.144
 11  0.000  0.002  0.142  0.145
 12  0.000  0.003  0.000  0.003
 13  0.000  0.001  0.000  0.001
tot  0.006  0.022  0.889  0.917
 
band  46 # energy   -3.93137377 # occ.  2.00000000
 
ion      s      p      d    tot
  1  0.000  0.005  0.126  0.130
  2  0.000  0.002  0.046  0.048
  3  0.000  0.002  0.046  0.047
  4  0.000  0.005  0.005  0.010
  5  0.003  0.000  0.143  0.146
  6  0.000  0.000  0.049  0.049
  7  0.000  0.000  0.004  0.004
  8  0.003  0.000  0.144  0.147
  9  0.000  0.003  0.176  0.179
 10  0.000  0.001  0.075  0.076
 11  0.000  0.001  0.075  0.076
 12  0.000  0.003  0.000  0.003
 13  0.000  0.001  0.000  0.001
tot  0.006  0.022  0.889  0.917
 
band  47 # energy   -3.58933382 # occ.  2.00000000
 
ion      s      p      d    tot
  1  0.000  0.001  0.001  0.002
  2  0.000  0.001  0.153  0.154
  3  0.000  0.001  0.154  0.154
  4  0.000  0.000  0.331  0.331
  5  0.000  0.000  0.042  0.042
  6  0.000  0.000  0.054  0.054
  7  0.000  0.000  0.076  0.076
  8  0.000  0.000  0.042  0.042
  9  0.001  0.001  0.007  0.009
 10  0.000  0.000  0.005  0.006
 11  0.000  0.000  0.005  0.006
 12  0.000  0.001  0.063  0.064
 13  0.000  0.013  0.000  0.013
tot  0.001  0.019  0.931  0.951
 
band  48 # energy   -3.58932674 # occ.  2.00000000
 
ion      s      p      d    tot
  1  0.000  0.001  0.001  0.002
  2  0.000  0.000  0.272  0.272
  3  0.000  0.000  0.271  0.272
  4  0.000  0.001  0.094  0.095
  5  0.000  0.000  0.050  0.050
  6  0.000  0.000  0.038  0.038
  7  0.000  0.000  0.076  0.077
  8  0.000  0.000  0.050  0.050
  9  0.000  0.000  0.004  0.004
 10  0.000  0.001  0.007  0.008
 11  0.000  0.001  0.007  0.008
 12  0.000  0.001  0.063  0.064
 13  0.000  0.013  0.000  0.013
tot  0.001  0.019  0.931  0.951
 
band  49 # energy   -3.47239770 # occ.  2.00000000
 
ion      s      p      d    tot
  1  0.000  0.000  0.000  0.000
  2  0.000  0.000  0.117  0.117
  3  0.000  0.000  0.117  0.117
  4  0.000  0.000  0.117  0.117
  5  0.000  0.000  0.126  0.126
  6  0.000  0.000  0.126  0.126
  7  0.000  0.000  0.000  0.000
  8  0.000  0.000  0.126  0.126
  9  0.000  0.000  0.079  0.079
 10  0.000  0.000  0.079  0.079
 11  0.000  0.000  0.079  0.079
 12  0.000  0.000  0.000  0.000
 13  0.000  0.000  0.000  0.000
tot  0.000  0.001  0.966  0.967
 
band  50 # energy   -3.42631465 # occ.  2.00000000
 
ion      s      p      d    tot
  1  0.005  0.003  0.264  0.272
  2  0.000  0.000  0.033  0.033
  3  0.000  0.000  0.033  0.033
  4  0.000  0.000  0.033  0.033
  5  0.000  0.000  0.053  0.054
  6  0.000  0.000  0.053  0.054
  7  0.000  0.000  0.002  0.003
  8  0.000  0.000  0.053  0.054
  9  0.001  0.003  0.027  0.031
 10  0.001  0.003  0.027  0.031
 11  0.001  0.003  0.027  0.031
 12  0.001  0.007  0.250  0.259
 13  0.000  0.028  0.000  0.028
tot  0.011  0.047  0.857  0.914
 
band  51 # energy   -3.37886332 # occ.  2.00000000
 
ion      s      p      d    tot
  1  0.000  0.000  0.119  0.119
  2  0.000  0.000  0.079  0.080
  3  0.000  0.000  0.079  0.080
  4  0.002  0.001  0.092  0.094
  5  0.000  0.000  0.050  0.051
  6  0.000  0.000  0.185  0.186
  7  0.000  0.000  0.054  0.054
  8  0.000  0.000  0.048  0.049
  9  0.001  0.001  0.080  0.082
 10  0.000  0.000  0.042  0.042
 11  0.000  0.000  0.041  0.042
 12  0.000  0.001  0.078  0.078
 13  0.000  0.001  0.000  0.001
tot  0.005  0.005  0.947  0.956
 
band  52 # energy   -3.37886303 # occ.  2.00000000
 
ion      s      p      d    tot
  1  0.000  0.000  0.119  0.119
  2  0.001  0.001  0.087  0.089
  3  0.001  0.001  0.087  0.089
  4  0.000  0.000  0.075  0.075
  5  0.000  0.000  0.139  0.139
  6  0.000  0.000  0.004  0.004
  7  0.000  0.000  0.054  0.054
  8  0.000  0.000  0.141  0.141
  9  0.000  0.000  0.028  0.029
 10  0.001  0.001  0.067  0.068
 11  0.001  0.001  0.067  0.069
 12  0.000  0.001  0.078  0.078
 13  0.000  0.001  0.000  0.001
tot  0.005  0.005  0.947  0.956
 
band  53 # energy   -3.36167781 # occ.  2.00000000
 
ion      s      p      d    tot
  1  0.000  0.001  0.091  0.092
  2  0.002  0.001  0.096  0.098
  3  0.002  0.001  0.098  0.100
  4  0.000  0.000  0.036  0.036
  5  0.000  0.000  0.073  0.073
  6  0.000  0.000  0.066  0.067
  7  0.000  0.000  0.030  0.030
  8  0.000  0.000  0.073  0.073
  9  0.000  0.001  0.035  0.035
 10  0.001  0.001  0.137  0.139
 11  0.001  0.001  0.134  0.136
 12  0.000  0.002  0.072  0.073
 13  0.000  0.000  0.000  0.000
tot  0.006  0.007  0.939  0.952
 
band  54 # energy   -3.36167754 # occ.  2.00000000
 
ion      s      p      d    tot
  1  0.000  0.001  0.091  0.092
  2  0.001  0.000  0.057  0.058
  3  0.001  0.000  0.055  0.056
  4  0.002  0.001  0.117  0.120
  5  0.000  0.000  0.068  0.069
  6  0.000  0.000  0.075  0.075
  7  0.000  0.000  0.030  0.030
  8  0.000  0.000  0.069  0.069
  9  0.002  0.002  0.169  0.172
 10  0.000  0.001  0.067  0.068
 11  0.000  0.001  0.070  0.071
 12  0.000  0.002  0.072  0.073
 13  0.000  0.000  0.000  0.000
tot  0.006  0.007  0.939  0.952
 
band  55 # energy   -3.16299747 # occ.  2.00000000
 
ion      s      p      d    tot
  1  0.000  0.000  0.016  0.016
  2  0.000  0.000  0.014  0.015
  3  0.000  0.000  0.015  0.015
  4  0.000  0.000  0.001  0.001
  5  0.000  0.000  0.240  0.240
  6  0.000  0.000  0.045  0.045
  7  0.000  0.000  0.280  0.280
  8  0.000  0.000  0.239  0.239
  9  0.000  0.000  0.002  0.002
 10  0.000  0.000  0.038  0.038
 11  0.000  0.000  0.038  0.038
 12  0.000  0.000  0.048  0.048
 13  0.000  0.000  0.000  0.000
tot  0.000  0.001  0.978  0.979
 
band  56 # energy   -3.16299680 # occ.  2.00000000
 
ion      s      p      d    tot
  1  0.000  0.000  0.016  0.016
  2  0.000  0.000  0.006  0.006
  3  0.000  0.000  0.006  0.006
  4  0.000  0.000  0.019  0.019
  5  0.000  0.000  0.109  0.109
  6  0.000  0.000  0.305  0.305
  7  0.000  0.000  0.280  0.280
  8  0.000  0.000  0.110  0.110
  9  0.000  0.000  0.050  0.050
 10  0.000  0.000  0.014  0.014