<?xml version="1.0" encoding="ISO-8859-1"?>
<modeling>
 <generator>
  <i name="program" type="string">vasp </i>
  <i name="version" type="string">5.4.1  </i>
  <i name="subversion" type="string">05Feb16 (build Feb 08 2018 09:21:51) complex                          parallel </i>
  <i name="platform" type="string">LinuxIFC </i>
  <i name="date" type="string">2019 11 21 </i>
  <i name="time" type="string">23:49:39 </i>
 </generator>
 <incar>
  <i type="string" name="PREC">normal</i>
  <i name="ENCUT">    400.00000000</i>
  <i type="int" name="ISMEAR">     1</i>
  <i name="SIGMA">      0.10000000</i>
  <i type="logical" name="LWAVE"> F  </i>
  <i type="logical" name="LCHARG"> F  </i>
  <i type="logical" name="LORBIT"> F  </i>
  <v type="int" name="KPOINT_BSE">    -1     0     0     0</v>
 </incar>
 <kpoints>
  <generation param="Monkhorst-Pack">
   <v type="int" name="divisions">       9        9        1 </v>
   <v name="usershift">      0.00000000       0.00000000       0.00000000 </v>
   <v name="genvec1">      0.11111111       0.00000000       0.00000000 </v>
   <v name="genvec2">      0.00000000       0.11111111       0.00000000 </v>
   <v name="genvec3">      0.00000000       0.00000000       1.00000000 </v>
   <v name="shift">      0.00000000       0.00000000       0.00000000 </v>
  </generation>
  <varray name="kpointlist" >
   <v>       0.00000000       0.00000000       0.00000000 </v>
   <v>       0.11111111       0.00000000       0.00000000 </v>
   <v>       0.22222222       0.00000000       0.00000000 </v>
   <v>       0.33333333       0.00000000       0.00000000 </v>
   <v>       0.44444444       0.00000000       0.00000000 </v>
   <v>       0.22222222       0.11111111       0.00000000 </v>
   <v>       0.33333333       0.11111111       0.00000000 </v>
   <v>       0.44444444       0.11111111       0.00000000 </v>
   <v>      -0.44444444       0.11111111       0.00000000 </v>
   <v>       0.44444444       0.22222222       0.00000000 </v>
   <v>      -0.44444444       0.22222222       0.00000000 </v>
   <v>      -0.33333333       0.33333333       0.00000000 </v>
  </varray>
  <varray name="weights" >
   <v>       0.01234568 </v>
   <v>       0.07407407 </v>
   <v>       0.07407407 </v>
   <v>       0.07407407 </v>
   <v>       0.07407407 </v>
   <v>       0.07407407 </v>
   <v>       0.14814815 </v>
   <v>       0.14814815 </v>
   <v>       0.07407407 </v>
   <v>       0.07407407 </v>
   <v>       0.14814815 </v>
   <v>       0.02469136 </v>
  </varray>
 </kpoints>
 <parameters>
  <separator name="general" >
   <i type="string" name="SYSTEM">unknown system</i>
   <i type="logical" name="LCOMPAT"> F  </i>
  </separator>
  <separator name="electronic" >
   <i type="string" name="PREC">normal</i>
   <i name="ENMAX">    400.00000000</i>
   <i name="ENAUG">    605.39200000</i>
   <i name="EDIFF">      0.00010000</i>
   <i type="int" name="IALGO">    38</i>
   <i type="int" name="IWAVPR">    10</i>
   <i type="int" name="NBANDS">    96</i>
   <i name="NELECT">    138.00000000</i>
   <i type="int" name="TURBO">     0</i>
   <i type="int" name="IRESTART">     0</i>
   <i type="int" name="NREBOOT">     0</i>
   <i type="int" name="NMIN">     0</i>
   <i name="EREF">      0.00000000</i>
   <separator name="electronic smearing" >
    <i type="int" name="ISMEAR">     1</i>
    <i name="SIGMA">      0.10000000</i>
    <i name="KSPACING">      0.50000000</i>
    <i type="logical" name="KGAMMA"> T  </i>
   </separator>
   <separator name="electronic projectors" >
    <i type="logical" name="LREAL"> F  </i>
    <v name="ROPT">      0.00000000      0.00000000</v>
    <i type="int" name="LMAXPAW">  -100</i>
    <i type="int" name="LMAXMIX">     2</i>
    <i type="logical" name="NLSPLINE"> F  </i>
   </separator>
   <separator name="electronic startup" >
    <i type="int" name="ISTART">     0</i>
    <i type="int" name="ICHARG">     2</i>
    <i type="int" name="INIWAV">     1</i>
   </separator>
   <separator name="electronic spin" >
    <i type="int" name="ISPIN">     1</i>
    <i type="logical" name="LNONCOLLINEAR"> F  </i>
    <v name="MAGMOM">      1.00000000      1.00000000      1.00000000      1.00000000      1.00000000      1.00000000      1.00000000      1.00000000      1.00000000      1.00000000      1.00000000      1.00000000      1.00000000</v>
    <i name="NUPDOWN">     -1.00000000</i>
    <i type="logical" name="LSORBIT"> F  </i>
    <v name="SAXIS">      0.00000000      0.00000000      1.00000000</v>
    <i type="logical" name="LSPIRAL"> F  </i>
    <v name="QSPIRAL">      0.00000000      0.00000000      0.00000000</v>
    <i type="logical" name="LZEROZ"> F  </i>
   </separator>
   <separator name="electronic exchange-correlation" >
    <i type="logical" name="LASPH"> F  </i>
    <i type="logical" name="LMETAGGA"> F  </i>
   </separator>
   <separator name="electronic convergence" >
    <i type="int" name="NELM">    60</i>
    <i type="int" name="NELMDL">    -5</i>
    <i type="int" name="NELMIN">     2</i>
    <i name="ENINI">    400.00000000</i>
    <separator name="electronic convergence detail" >
     <i type="logical" name="LDIAG"> T  </i>
     <i type="logical" name="LSUBROT"> F  </i>
     <i name="WEIMIN">      0.00000000</i>
     <i name="EBREAK">      0.00000026</i>
     <i name="DEPER">      0.30000000</i>
     <i type="int" name="NRMM">     4</i>
     <i name="TIME">      0.40000000</i>
    </separator>
   </separator>
   <separator name="electronic mixer" >
    <i name="AMIX">      0.40000000</i>
    <i name="BMIX">      1.00000000</i>
    <i name="AMIN">      0.10000000</i>
    <i name="AMIX_MAG">      1.60000000</i>
    <i name="BMIX_MAG">      1.00000000</i>
    <separator name="electronic mixer details" >
     <i type="int" name="IMIX">     4</i>
     <i type="logical" name="MIXFIRST"> F  </i>
     <i type="int" name="MAXMIX">   -45</i>
     <i name="WC">    100.00000000</i>
     <i type="int" name="INIMIX">     1</i>
     <i type="int" name="MIXPRE">     1</i>
     <i type="int" name="MREMOVE">     5</i>
    </separator>
   </separator>
   <separator name="electronic dipolcorrection" >
    <i type="logical" name="LDIPOL"> F  </i>
    <i type="logical" name="LMONO"> F  </i>
    <i type="int" name="IDIPOL">     0</i>
    <i name="EPSILON">      1.00000000</i>
    <v name="DIPOL">   -100.00000000   -100.00000000   -100.00000000</v>
    <i name="EFIELD">      0.00000000</i>
   </separator>
  </separator>
  <separator name="grids" >
   <i type="int" name="NGX">    30</i>
   <i type="int" name="NGY">    30</i>
   <i type="int" name="NGZ">   126</i>
   <i type="int" name="NGXF">    60</i>
   <i type="int" name="NGYF">    60</i>
   <i type="int" name="NGZF">   252</i>
   <i type="logical" name="ADDGRID"> F  </i>
  </separator>
  <separator name="ionic" >
   <i type="int" name="NSW">     0</i>
   <i type="int" name="IBRION">    -1</i>
   <i type="int" name="ISIF">     2</i>
   <i name="PSTRESS">      0.00000000</i>
   <i name="EDIFFG">      0.00100000</i>
   <i type="int" name="NFREE">     0</i>
   <i name="POTIM">      0.50000000</i>
   <i name="SMASS">     -3.00000000</i>
   <i name="SCALEE">      1.00000000</i>
  </separator>
  <separator name="ionic md" >
   <i name="TEBEG">      0.00010000</i>
   <i name="TEEND">      0.00010000</i>
   <i type="int" name="NBLOCK">     1</i>
   <i type="int" name="KBLOCK">     1</i>
   <i type="int" name="NPACO">   256</i>
   <i name="APACO">     16.00000000</i>
  </separator>
  <separator name="symmetry" >
   <i type="int" name="ISYM">     2</i>
   <i name="SYMPREC">      0.00001000</i>
  </separator>
  <separator name="dos" >
   <i type="logical" name="LORBIT"> F  </i>
   <v name="RWIGS">     -1.00000000     -1.00000000</v>
   <i type="int" name="NEDOS">   301</i>
   <i name="EMIN">     10.00000000</i>
   <i name="EMAX">    -10.00000000</i>
   <i name="EFERMI">      0.00000000</i>
  </separator>
  <separator name="writing" >
   <i type="int" name="NWRITE">     2</i>
   <i type="logical" name="LWAVE"> F  </i>
   <i type="logical" name="LCHARG"> F  </i>
   <i type="logical" name="LPARD"> F  </i>
   <i type="logical" name="LVTOT"> F  </i>
   <i type="logical" name="LVHAR"> F  </i>
   <i type="logical" name="LELF"> F  </i>
   <i type="logical" name="LOPTICS"> F  </i>
   <v name="STM">      0.00000000      0.00000000      0.00000000      0.00000000      0.00000000      0.00000000      0.00000000</v>
  </separator>
  <separator name="performance" >
   <i type="int" name="NPAR">    24</i>
   <i type="int" name="NSIM">     4</i>
   <i type="int" name="NBLK">    -1</i>
   <i type="logical" name="LPLANE"> T  </i>
   <i type="logical" name="LSCALAPACK"> F  </i>
   <i type="logical" name="LSCAAWARE"> F  </i>
   <i type="logical" name="LSCALU"> F  </i>
   <i type="logical" name="LASYNC"> F  </i>
   <i type="logical" name="LORBITALREAL"> F  </i>
  </separator>
  <separator name="miscellaneous" >
   <i type="int" name="IDIOT">     3</i>
   <i type="logical" name="LMUSIC"> F  </i>
   <v name="POMASS">    196.96600000     16.00000000</v>
   <v name="DARWINR">      0.00000000      0.00000000</v>
   <v name="DARWINV">      1.00000000      1.00000000</v>
   <i type="logical" name="LCORR"> T  </i>
  </separator>
  <i type="logical" name="GGA_COMPAT"> T  </i>
  <i type="logical" name="LBERRY"> F  </i>
  <i type="int" name="ICORELEVEL">     0</i>
  <i type="logical" name="LDAU"> F  </i>
  <i type="int" name="I_CONSTRAINED_M">     0</i>
  <separator name="electronic exchange-correlation" >
   <i type="string" name="GGA">--</i>
   <i type="int" name="VOSKOWN">     0</i>
   <i type="logical" name="LHFCALC"> F  </i>
   <i type="string" name="PRECFOCK"></i>
   <i type="logical" name="LSYMGRAD"> F  </i>
   <i type="logical" name="LHFONE"> F  </i>
   <i type="logical" name="LRHFCALC"> F  </i>
   <i type="logical" name="LTHOMAS"> F  </i>
   <i type="logical" name="LMODELHF"> F  </i>
   <i name="ENCUT4O">     -1.00000000</i>
   <i type="int" name="EXXOEP">     0</i>
   <i type="int" name="FOURORBIT">     0</i>
   <i name="AEXX">      0.00000000</i>
   <i name="HFALPHA">      0.00000000</i>
   <i name="MCALPHA">      0.00000000</i>
   <i name="ALDAX">      1.00000000</i>
   <i name="AGGAX">      1.00000000</i>
   <i name="ALDAC">      1.00000000</i>
   <i name="AGGAC">      1.00000000</i>
   <i type="int" name="NKREDX">     1</i>
   <i type="int" name="NKREDY">     1</i>
   <i type="int" name="NKREDZ">     1</i>
   <i type="logical" name="SHIFTRED"> F  </i>
   <i type="logical" name="ODDONLY"> F  </i>
   <i type="logical" name="EVENONLY"> F  </i>
   <i type="int" name="LMAXFOCK">     0</i>
   <i type="int" name="NMAXFOCKAE">     0</i>
   <i type="logical" name="LFOCKAEDFT"> F  </i>
   <i name="HFSCREEN">      0.00000000</i>
   <i name="HFSCREENC">      0.00000000</i>
   <i type="int" name="NBANDSGWLOW">     0</i>
  </separator>
  <separator name="vdW DFT" >
   <i type="logical" name="LUSE_VDW"> F  </i>
   <i name="Zab_VDW">     -0.84910000</i>
   <i name="PARAM1">      0.12340000</i>
   <i name="PARAM2">      1.00000000</i>
   <i name="PARAM3">      0.00000000</i>
  </separator>
  <separator name="model GW" >
   <i type="int" name="MODEL_GW">     0</i>
   <i name="MODEL_EPS0">     34.27764490</i>
   <i name="MODEL_ALPHA">      1.00000000</i>
  </separator>
  <separator name="linear response parameters" >
   <i type="logical" name="LEPSILON"> F  </i>
   <i type="logical" name="LRPA"> F  </i>
   <i type="logical" name="LNABLA"> F  </i>
   <i type="logical" name="LVEL"> F  </i>
   <i type="int" name="KINTER">     0</i>
   <i name="CSHIFT">      0.10000000</i>
   <i name="OMEGAMAX">     -1.00000000</i>
   <i name="DEG_THRESHOLD">      0.00200000</i>
  </separator>
  <separator name="orbital magnetization" >
   <i type="logical" name="NUCIND"> F  </i>
   <v name="MAGPOS">      0.00000000      0.00000000      0.00000000</v>
   <i type="logical" name="LNICSALL"> T  </i>
   <i type="logical" name="ORBITALMAG"> F  </i>
   <i type="logical" name="LMAGBLOCH"> F  </i>
   <i type="logical" name="LCHIMAG"> F  </i>
   <i type="logical" name="LGAUGE"> T  </i>
   <i type="int" name="MAGATOM">     0</i>
   <v name="MAGDIPOL">      0.00000000      0.00000000      0.00000000</v>
   <v name="AVECCONST">      0.00000000      0.00000000      0.00000000</v>
  </separator>
  <separator name="response functions" >
   <i type="logical" name="LADDER"> F  </i>
   <i type="logical" name="LFXC"> F  </i>
   <i type="logical" name="LHARTREE"> T  </i>
   <i type="int" name="IBSE">     0</i>
   <v type="int" name="KPOINT">    -1     0     0     0</v>
   <i type="logical" name="LTCTE"> F  </i>
   <i type="logical" name="LTETE"> F  </i>
   <i type="logical" name="LTRIPLET"> F  </i>
   <i type="logical" name="LFXCEPS"> F  </i>
   <i type="logical" name="LFXHEG"> F  </i>
   <i type="int" name="NATURALO">     0</i>
   <i type="logical" name="L2ORDER"> F  </i>
   <i type="logical" name="LUSEW"> F  </i>
   <i name="ENCUTGW">     -2.00000000</i>
   <i name="ENCUTGWSOFT">     -2.00000000</i>
   <i name="ENCUTLF">     -1.00000000</i>
   <i type="int" name="LMAXMP2">    -1</i>
   <i name="SCISSOR">      0.00000000</i>
   <i type="int" name="NOMEGA">     0</i>
   <i type="int" name="NOMEGAR">     0</i>
   <i type="int" name="NBANDSGW">    -1</i>
   <i type="int" name="NBANDSO">    -1</i>
   <i type="int" name="NBANDSV">    -1</i>
   <i type="int" name="NELM">     1</i>
   <i type="int" name="NELMHF">     1</i>
   <i type="int" name="DIM">     3</i>
   <i type="int" name="ANTIRES">     0</i>
   <i name="OMEGAMAX">    -30.00000000</i>
   <i name="OMEGAMIN">    -30.00000000</i>
   <i name="OMEGATL">   -200.00000000</i>
   <i type="int" name="OMEGAGRID">     0</i>
   <i name="CSHIFT">     -0.10000000</i>
   <i type="logical" name="SELFENERGY"> F  </i>
   <i type="logical" name="LSPECTRAL"> F  </i>
   <i type="logical" name="LSPECTRALGW"> F  </i>
   <i type="logical" name="LSINGLES"> F  </i>
   <i type="logical" name="LFERMIGW"> F  </i>
   <i type="logical" name="ODDONLYGW"> F  </i>
   <i type="logical" name="EVENONLYGW"> F  </i>
   <i type="int" name="NKREDLFX">     1</i>
   <i type="int" name="NKREDLFY">     1</i>
   <i type="int" name="NKREDLFZ">     1</i>
   <i type="int" name="MAXMEM">  1800</i>
   <i type="int" name="TELESCOPE">     0</i>
   <i type="int" name="TAUPAR">     1</i>
   <i type="int" name="OMEGAPAR">    -1</i>
   <i name="LAMBDA">      1.00000000</i>
  </separator>
  <separator name="External order field" >
   <i name="OFIELD_KAPPA">      0.00000000</i>
   <v name="OFIELD_K">      0.00000000      0.00000000      0.00000000</v>
   <i name="OFIELD_Q6_NEAR">      0.00000000</i>
   <i name="OFIELD_Q6_FAR">      0.00000000</i>
   <i name="OFIELD_A">      0.00000000</i>
  </separator>
 </parameters>
 <atominfo>
  <atoms>      13 </atoms>
  <types>       2 </types>
  <array name="atoms" >
   <dimension dim="1">ion</dimension>
   <field type="string">element</field>
   <field type="int">atomtype</field>
   <set>
    <rc><c>Au</c><c>   1</c></rc>
    <rc><c>Au</c><c>   1</c></rc>
    <rc><c>Au</c><c>   1</c></rc>
    <rc><c>Au</c><c>   1</c></rc>
    <rc><c>Au</c><c>   1</c></rc>
    <rc><c>Au</c><c>   1</c></rc>
    <rc><c>Au</c><c>   1</c></rc>
    <rc><c>Au</c><c>   1</c></rc>
    <rc><c>Au</c><c>   1</c></rc>
    <rc><c>Au</c><c>   1</c></rc>
    <rc><c>Au</c><c>   1</c></rc>
    <rc><c>Au</c><c>   1</c></rc>
    <rc><c>O </c><c>   2</c></rc>
   </set>
  </array>
  <array name="atomtypes" >
   <dimension dim="1">type</dimension>
   <field type="int">atomspertype</field>
   <field type="string">element</field>
   <field>mass</field>
   <field>valence</field>
   <field type="string">pseudopotential</field>
   <set>
    <rc><c>  12</c><c>Au</c><c>    196.96600000</c><c>     11.00000000</c><c>  PAW_PBE Au 04Oct2007                  </c></rc>
    <rc><c>   1</c><c>O </c><c>     16.00000000</c><c>      6.00000000</c><c>  PAW_PBE O 08Apr2002                   </c></rc>
   </set>
  </array>
 </atominfo>
 <structure name="initialpos" >
  <crystal>
   <varray name="basis" >
    <v>       5.88029999       0.00000000       0.00000000 </v>
    <v>       2.94015000       5.09248918       0.00000000 </v>
    <v>       0.00000000       0.00000000      24.80124484 </v>
   </varray>
   <i name="volume">    742.68230623 </i>
   <varray name="rec_basis" >
    <v>       0.17005935      -0.09818381       0.00000000 </v>
    <v>       0.00000000       0.19636762       0.00000000 </v>
    <v>       0.00000000       0.00000000       0.04032056 </v>
   </varray>
  </crystal>
  <varray name="positions" >
   <v>       0.16666667       0.16666667       0.40351343 </v>
   <v>       0.66698622       0.16602757       0.40195179 </v>
   <v>       0.16602757       0.66698622       0.40195179 </v>
   <v>       0.66698622       0.66698622       0.40195179 </v>
   <v>       0.83676353       0.33161824       0.49932906 </v>
   <v>       0.33161824       0.33161824       0.49932906 </v>
   <v>       0.83333333       0.83333333       0.50252501 </v>
   <v>       0.33161824       0.83676353       0.49932906 </v>
   <v>       0.98931101       0.98931101       0.60031121 </v>
   <v>       0.52137798       0.98931101       0.60031121 </v>
   <v>       0.98931101       0.52137798       0.60031121 </v>
   <v>       0.50000000       0.50000000       0.58976581 </v>
   <v>       0.16666667       0.16666667       0.64459867 </v>
  </varray>
 </structure>
 <calculation>
  <scstep>
   <time name="dav">    4.20    4.21</time>
   <time name="total">    4.25    4.26</time>
   <energy>
    <i name="alphaZ">    240.41329892 </i>
    <i name="ewald">  48299.88778067 </i>
    <i name="hartreedc"> -60028.25454268 </i>
    <i name="XCdc">    210.04320895 </i>
    <i name="pawpsdc">  10835.71951712 </i>
    <i name="pawaedc"> -10560.46976544 </i>
    <i name="eentropy">      0.00430296 </i>
    <i name="bandstr">    271.03286717 </i>
    <i name="atom">  11545.22942124 </i>
    <i name="e_fr_energy">    813.60608892 </i>
    <i name="e_wo_entrp">    813.60178595 </i>
    <i name="e_0_energy">    813.60465459 </i>
   </energy>
  </scstep>
  <scstep>
   <time name="dav">    4.93    4.93</time>
   <time name="total">    4.93    4.93</time>
   <energy>
    <i name="e_fr_energy">     -4.06486278 </i>
    <i name="e_wo_entrp">     -4.06222922 </i>
    <i name="e_0_energy">     -4.06398492 </i>
   </energy>
  </scstep>
  <scstep>
   <time name="dav">    4.48    4.48</time>
   <time name="total">    4.48    4.48</time>
   <energy>
    <i name="e_fr_energy">    -45.62321612 </i>
    <i name="e_wo_entrp">    -45.61651649 </i>
    <i name="e_0_energy">    -45.62098291 </i>
   </energy>
  </scstep>
  <scstep>
   <time name="dav">    3.86    3.86</time>
   <time name="total">    3.86    3.86</time>
   <energy>
    <i name="e_fr_energy">    -46.24238786 </i>
    <i name="e_wo_entrp">    -46.23485881 </i>
    <i name="e_0_energy">    -46.23987818 </i>
   </energy>
  </scstep>
  <scstep>
   <time name="dav">    4.89    4.89</time>
   <time name="total">    5.04    5.08</time>
   <energy>
    <i name="e_fr_energy">    -46.25508585 </i>
    <i name="e_wo_entrp">    -46.24753350 </i>
    <i name="e_0_energy">    -46.25256840 </i>
   </energy>
  </scstep>
  <scstep>
   <time name="dav">    4.88    4.88</time>
   <time name="total">    5.08    5.09</time>
   <energy>
    <i name="e_fr_energy">    -42.75632191 </i>
    <i name="e_wo_entrp">    -42.75583104 </i>
    <i name="e_0_energy">    -42.75615829 </i>
   </energy>
  </scstep>
  <scstep>
   <time name="dav">    4.83    4.83</time>
   <time name="total">    5.03    5.03</time>
   <energy>
    <i name="e_fr_energy">    -42.99364230 </i>
    <i name="e_wo_entrp">    -42.98563080 </i>
    <i name="e_0_energy">    -42.99097180 </i>
   </energy>
  </scstep>
  <scstep>
   <time name="dav">    4.63    4.63</time>
   <time name="total">    4.83    4.85</time>
   <energy>
    <i name="e_fr_energy">    -41.33176614 </i>
    <i name="e_wo_entrp">    -41.32158475 </i>
    <i name="e_0_energy">    -41.32837234 </i>
   </energy>
  </scstep>
  <scstep>
   <time name="dav">    4.48    4.48</time>
   <time name="total">    4.68    4.70</time>
   <energy>
    <i name="e_fr_energy">    -41.00661407 </i>
    <i name="e_wo_entrp">    -41.00267539 </i>
    <i name="e_0_energy">    -41.00530118 </i>
   </energy>
  </scstep>
  <scstep>
   <time name="dav">    4.81    4.81</time>
   <time name="total">    5.00    5.01</time>
   <energy>
    <i name="e_fr_energy">    -40.96771518 </i>
    <i name="e_wo_entrp">    -40.96400250 </i>
    <i name="e_0_energy">    -40.96647762 </i>
   </energy>
  </scstep>
  <scstep>
   <time name="dav">    5.05    5.05</time>
   <time name="total">    5.24    5.25</time>
   <energy>
    <i name="e_fr_energy">    -40.95823423 </i>
    <i name="e_wo_entrp">    -40.95364260 </i>
    <i name="e_0_energy">    -40.95670368 </i>
   </energy>
  </scstep>
  <scstep>
   <time name="dav">    4.86    4.86</time>
   <time name="total">    5.06    5.08</time>
   <energy>
    <i name="e_fr_energy">    -40.95759142 </i>
    <i name="e_wo_entrp">    -40.95265898 </i>
    <i name="e_0_energy">    -40.95594727 </i>
   </energy>
  </scstep>
  <scstep>
   <time name="dav">    5.04    5.05</time>
   <time name="total">    5.24    5.25</time>
   <energy>
    <i name="e_fr_energy">    -40.95840621 </i>
    <i name="e_wo_entrp">    -40.95355339 </i>
    <i name="e_0_energy">    -40.95678861 </i>
   </energy>
  </scstep>
  <scstep>
   <time name="dav">    4.13    4.14</time>
   <time name="total">    4.33    4.34</time>
   <energy>
    <i name="e_fr_energy">    -40.95883616 </i>
    <i name="e_wo_entrp">    -40.95403270 </i>
    <i name="e_0_energy">    -40.95723501 </i>
   </energy>
  </scstep>
  <scstep>
   <time name="dav">    4.12    4.13</time>
   <time name="total">    4.32    4.34</time>
   <energy>
    <i name="e_fr_energy">    -40.95935786 </i>
    <i name="e_wo_entrp">    -40.95458732 </i>
    <i name="e_0_energy">    -40.95776768 </i>
   </energy>
  </scstep>
  <scstep>
   <time name="dav">    3.83    3.83</time>
   <time name="total">    4.02    4.03</time>
   <energy>
    <i name="e_fr_energy">    -40.95958575 </i>
    <i name="e_wo_entrp">    -40.95480568 </i>
    <i name="e_0_energy">    -40.95799239 </i>
   </energy>
  </scstep>
  <scstep>
   <time name="dav">    3.76    3.76</time>
   <time name="total">    3.97    4.00</time>
   <energy>
    <i name="e_fr_energy">    -40.95983185 </i>
    <i name="e_wo_entrp">    -40.95508149 </i>
    <i name="e_0_energy">    -40.95824840 </i>
   </energy>
  </scstep>
  <scstep>
   <time name="dav">    3.80    3.81</time>
   <time name="total">    3.99    4.01</time>
   <energy>
    <i name="e_fr_energy">    -40.96006812 </i>
    <i name="e_wo_entrp">    -40.95532554 </i>
    <i name="e_0_energy">    -40.95848726 </i>
   </energy>
  </scstep>
  <scstep>
   <time name="dav">    3.48    3.48</time>
   <time name="total">    3.51    3.52</time>
   <energy>
    <i name="alphaZ">    240.41329892 </i>
    <i name="ewald">  48299.88778067 </i>
    <i name="hartreedc"> -59855.05387658 </i>
    <i name="XCdc">    205.01849015 </i>
    <i name="pawpsdc">  12562.32501488 </i>
    <i name="pawaedc"> -12314.40144113 </i>
    <i name="eentropy">     -0.00474688 </i>
    <i name="bandstr">   -724.37409484 </i>
    <i name="atom">  11545.22942124 </i>
    <i name="e_fr_energy">    -40.96015358 </i>
    <i name="e_wo_entrp">    -40.95540670 </i>
    <i name="e_0_energy">    -40.95857128 </i>
   </energy>
  </scstep>
  <structure>
   <crystal>
    <varray name="basis" >
     <v>       5.88029999       0.00000000       0.00000000 </v>
     <v>       2.94015000       5.09248918       0.00000000 </v>
     <v>       0.00000000       0.00000000      24.80124484 </v>
    </varray>
    <i name="volume">    742.68230623 </i>
    <varray name="rec_basis" >
     <v>       0.17005935      -0.09818381       0.00000000 </v>
     <v>       0.00000000       0.19636762       0.00000000 </v>
     <v>       0.00000000       0.00000000       0.04032056 </v>
    </varray>
   </crystal>
   <varray name="positions" >
    <v>       0.16666667       0.16666667       0.40351343 </v>
    <v>       0.66698622       0.16602757       0.40195179 </v>
    <v>       0.16602757       0.66698622       0.40195179 </v>
    <v>       0.66698622       0.66698622       0.40195179 </v>
    <v>       0.83676353       0.33161824       0.49932906 </v>
    <v>       0.33161824       0.33161824       0.49932906 </v>
    <v>       0.83333333       0.83333333       0.50252501 </v>
    <v>       0.33161824       0.83676353       0.49932906 </v>
    <v>       0.98931101       0.98931101       0.60031121 </v>
    <v>       0.52137798       0.98931101       0.60031121 </v>
    <v>       0.98931101       0.52137798       0.60031121 </v>
    <v>       0.50000000       0.50000000       0.58976581 </v>
    <v>       0.16666667       0.16666667       0.64459867 </v>
   </varray>
  </structure>
  <varray name="forces" >
   <v>      -0.00000000       0.00000000      -0.02461444 </v>
   <v>      -0.00000000      -0.01257988      -0.00329589 </v>
   <v>      -0.01089449       0.00628994      -0.00329589 </v>
   <v>       0.01089449       0.00628994      -0.00329589 </v>
   <v>       0.00179525      -0.00103649      -0.01217530 </v>
   <v>      -0.00179525      -0.00103649      -0.01217530 </v>
   <v>      -0.00000000       0.00000000       0.03437757 </v>
   <v>       0.00000000       0.00207298      -0.01217530 </v>
   <v>      -0.00404791      -0.00233706       0.00734922 </v>
   <v>       0.00404791      -0.00233706       0.00734922 </v>
   <v>       0.00000000       0.00467413       0.00734922 </v>
   <v>      -0.00000000       0.00000000       0.01443721 </v>
   <v>      -0.00000000       0.00000000       0.00016558 </v>
  </varray>
  <varray name="stress" >
   <v>     -13.19736485      -0.00000001       0.00000000 </v>
   <v>      -0.00000001     -13.19736489       0.00000000 </v>
   <v>       0.00000000       0.00000000      -1.39064835 </v>
  </varray>
  <energy>
   <i name="e_fr_energy">    -40.96015358 </i>
   <i name="e_wo_entrp">    -40.95857128 </i>
   <i name="e_0_energy">     -0.00474688 </i>
  </energy>
  <time name="totalsc">   94.63   94.87</time>
  <eigenvalues>
   <array>
    <dimension dim="1">band</dimension>
    <dimension dim="2">kpoint</dimension>
    <dimension dim="3">spin</dimension>
    <field>eigene</field>
    <field>occ</field>
    <set>
     <set comment="spin 1">
      <set comment="kpoint 1">
       <r>  -19.5401    1.0000 </r>
       <r>   -9.7986    1.0000 </r>
       <r>   -8.2949    1.0000 </r>
       <r>   -7.9760    1.0000 </r>
       <r>   -7.7238    1.0000 </r>
       <r>   -7.7238    1.0000 </r>
       <r>   -7.6760    1.0000 </r>
       <r>   -7.5830    1.0000 </r>
       <r>   -7.5830    1.0000 </r>
       <r>   -7.5282    1.0000 </r>
       <r>   -7.1316    1.0000 </r>
       <r>   -7.1316    1.0000 </r>
       <r>   -7.1274    1.0000 </r>
       <r>   -7.0492    1.0000 </r>
       <r>   -7.0492    1.0000 </r>
       <r>   -7.0091    1.0000 </r>
       <r>   -6.5213    1.0000 </r>
       <r>   -6.5213    1.0000 </r>
       <r>   -6.0263    1.0000 </r>
       <r>   -5.8636    1.0000 </r>
       <r>   -5.8636    1.0000 </r>
       <r>   -5.7874    1.0000 </r>
       <r>   -5.6687    1.0000 </r>
       <r>   -5.6547    1.0000 </r>
       <r>   -5.6547    1.0000 </r>
       <r>   -5.5648    1.0000 </r>
       <r>   -5.5648    1.0000 </r>
       <r>   -5.3239    1.0000 </r>
       <r>   -5.3239    1.0000 </r>
       <r>   -5.2356    1.0000 </r>
       <r>   -5.1860    1.0000 </r>
       <r>   -5.1860    1.0000 </r>
       <r>   -5.1001    1.0000 </r>
       <r>   -4.8140    1.0000 </r>
       <r>   -4.8140    1.0000 </r>
       <r>   -4.7782    1.0000 </r>
       <r>   -4.5819    1.0000 </r>
       <r>   -4.5818    1.0000 </r>
       <r>   -4.2244    1.0000 </r>
       <r>   -4.2244    1.0000 </r>
       <r>   -4.1856    1.0000 </r>
       <r>   -4.1530    1.0000 </r>
       <r>   -4.0904    1.0000 </r>
       <r>   -4.0904    1.0000 </r>
       <r>   -3.9314    1.0000 </r>
       <r>   -3.9314    1.0000 </r>
       <r>   -3.5893    1.0000 </r>
       <r>   -3.5893    1.0000 </r>
       <r>   -3.4724    1.0000 </r>
       <r>   -3.4263    1.0000 </r>
       <r>   -3.3789    1.0000 </r>
       <r>   -3.3789    1.0000 </r>
       <r>   -3.3617    1.0000 </r>
       <r>   -3.3617    1.0000 </r>
       <r>   -3.1630    1.0000 </r>
       <r>   -3.1630    1.0000 </r>
       <r>   -3.1406    1.0000 </r>
       <r>   -3.0796    1.0000 </r>
       <r>   -3.0796    1.0000 </r>
       <r>   -3.0283    1.0000 </r>
       <r>   -2.9306    1.0000 </r>
       <r>   -2.8656    1.0000 </r>
       <r>   -2.8656    1.0000 </r>
       <r>   -2.8294    1.0000 </r>
       <r>   -2.5677    1.0000 </r>
       <r>   -2.1953    1.0000 </r>
       <r>   -2.1952    1.0000 </r>
       <r>   -0.8996   -0.0000 </r>
       <r>   -0.8996   -0.0000 </r>
       <r>   -0.7868   -0.0000 </r>
       <r>   -0.5626   -0.0000 </r>
       <r>   -0.0509   -0.0000 </r>
       <r>   -0.0509   -0.0000 </r>
       <r>    0.0512   -0.0000 </r>
       <r>    0.4416   -0.0000 </r>
       <r>    0.4416   -0.0000 </r>
       <r>    1.1499   -0.0000 </r>
       <r>    2.1642    0.0000 </r>
       <r>    2.1642    0.0000 </r>
       <r>    2.4190    0.0000 </r>
       <r>    3.0809    0.0000 </r>
       <r>    3.0809    0.0000 </r>
       <r>    3.4496    0.0000 </r>
       <r>    3.5692    0.0000 </r>
       <r>    4.0910    0.0000 </r>
       <r>    4.2189    0.0000 </r>
       <r>    4.4136    0.0000 </r>
       <r>    4.4136    0.0000 </r>
       <r>    4.7322    0.0000 </r>
       <r>    5.4876    0.0000 </r>
       <r>    5.5969    0.0000 </r>
       <r>    6.8166    0.0000 </r>
       <r>    7.1622    0.0000 </r>
       <r>    7.1622    0.0000 </r>
       <r>    7.3302    0.0000 </r>
       <r>    7.6035    0.0000 </r>
      </set>
      <set comment="kpoint 2">
       <r>  -19.5380    1.0000 </r>
       <r>   -9.7126    1.0000 </r>
       <r>   -8.2284    1.0000 </r>
       <r>   -7.9215    1.0000 </r>
       <r>   -7.7254    1.0000 </r>
       <r>   -7.6676    1.0000 </r>
       <r>   -7.6071    1.0000 </r>
       <r>   -7.5530    1.0000 </r>
       <r>   -7.5208    1.0000 </r>
       <r>   -7.4710    1.0000 </r>
       <r>   -7.1601    1.0000 </r>
       <r>   -7.0750    1.0000 </r>
       <r>   -7.0549    1.0000 </r>
       <r>   -7.0101    1.0000 </r>
       <r>   -7.0089    1.0000 </r>
       <r>   -6.9398    1.0000 </r>
       <r>   -6.5086    1.0000 </r>
       <r>   -6.4890    1.0000 </r>
       <r>   -5.9889    1.0000 </r>
       <r>   -5.8803    1.0000 </r>
       <r>   -5.8703    1.0000 </r>
       <r>   -5.7797    1.0000 </r>
       <r>   -5.6684    1.0000 </r>
       <r>   -5.6472    1.0000 </r>
       <r>   -5.6218    1.0000 </r>
       <r>   -5.5865    1.0000 </r>
       <r>   -5.5202    1.0000 </r>
       <r>   -5.4039    1.0000 </r>
       <r>   -5.3002    1.0000 </r>
       <r>   -5.2809    1.0000 </r>
       <r>   -5.1752    1.0000 </r>
       <r>   -5.1484    1.0000 </r>
       <r>   -5.1160    1.0000 </r>
       <r>   -4.8948    1.0000 </r>
       <r>   -4.8242    1.0000 </r>
       <r>   -4.7512    1.0000 </r>
       <r>   -4.6191    1.0000 </r>
       <r>   -4.6132    1.0000 </r>
       <r>   -4.3334    1.0000 </r>
       <r>   -4.2754    1.0000 </r>
       <r>   -4.2546    1.0000 </r>
       <r>   -4.1988    1.0000 </r>
       <r>   -4.1037    1.0000 </r>
       <r>   -4.1014    1.0000 </r>
       <r>   -3.9810    1.0000 </r>
       <r>   -3.9411    1.0000 </r>
       <r>   -3.7121    1.0000 </r>
       <r>   -3.6087    1.0000 </r>
       <r>   -3.5620    1.0000 </r>
       <r>   -3.5097    1.0000 </r>
       <r>   -3.4708    1.0000 </r>
       <r>   -3.4033    1.0000 </r>
       <r>   -3.3870    1.0000 </r>
       <r>   -3.3863    1.0000 </r>
       <r>   -3.3012    1.0000 </r>
       <r>   -3.2951    1.0000 </r>
       <r>   -3.2191    1.0000 </r>
       <r>   -3.2075    1.0000 </r>
       <r>   -3.1544    1.0000 </r>
       <r>   -3.0071    1.0000 </r>
       <r>   -3.0028    1.0000 </r>
       <r>   -2.9727    1.0000 </r>
       <r>   -2.9336    1.0000 </r>
       <r>   -2.8363    1.0000 </r>
       <r>   -2.5193    1.0000 </r>
       <r>   -2.2895    1.0000 </r>
       <r>   -2.2111    1.0000 </r>
       <r>   -1.7101    1.0000 </r>
       <r>   -1.0304   -0.0009 </r>
       <r>   -1.0246   -0.0007 </r>
       <r>   -0.5840   -0.0000 </r>
       <r>   -0.2305   -0.0000 </r>
       <r>   -0.0129   -0.0000 </r>
       <r>    0.3848   -0.0000 </r>
       <r>    0.8943   -0.0000 </r>
       <r>    0.9784   -0.0000 </r>
       <r>    1.4827    0.0000 </r>
       <r>    2.1851    0.0000 </r>
       <r>    2.2922    0.0000 </r>
       <r>    2.5309    0.0000 </r>
       <r>    3.0926    0.0000 </r>
       <r>    3.2393    0.0000 </r>
       <r>    3.6257    0.0000 </r>
       <r>    3.7595    0.0000 </r>
       <r>    4.2228    0.0000 </r>
       <r>    4.2864    0.0000 </r>
       <r>    4.4840    0.0000 </r>
       <r>    4.6921    0.0000 </r>
       <r>    5.3711    0.0000 </r>
       <r>    5.5785    0.0000 </r>
       <r>    5.7238    0.0000 </r>
       <r>    6.6020    0.0000 </r>
       <r>    6.9283    0.0000 </r>
       <r>    6.9825    0.0000 </r>
       <r>    7.3811    0.0000 </r>
       <r>    7.5054    0.0000 </r>
      </set>
      <set comment="kpoint 3">
       <r>  -19.5323    1.0000 </r>
       <r>   -9.4635    1.0000 </r>
       <r>   -8.0896    1.0000 </r>
       <r>   -7.8034    1.0000 </r>
       <r>   -7.6289    1.0000 </r>
       <r>   -7.5273    1.0000 </r>
       <r>   -7.5091    1.0000 </r>
       <r>   -7.3955    1.0000 </r>
       <r>   -7.3427    1.0000 </r>
       <r>   -7.3012    1.0000 </r>
       <r>   -7.1229    1.0000 </r>
       <r>   -6.9733    1.0000 </r>
       <r>   -6.9469    1.0000 </r>
       <r>   -6.8728    1.0000 </r>
       <r>   -6.8532    1.0000 </r>
       <r>   -6.7680    1.0000 </r>
       <r>   -6.4572    1.0000 </r>
       <r>   -6.3923    1.0000 </r>
       <r>   -5.9401    1.0000 </r>
       <r>   -5.9382    1.0000 </r>
       <r>   -5.8664    1.0000 </r>
       <r>   -5.8061    1.0000 </r>
       <r>   -5.7335    1.0000 </r>
       <r>   -5.6634    1.0000 </r>
       <r>   -5.5658    1.0000 </r>
       <r>   -5.5350    1.0000 </r>
       <r>   -5.5240    1.0000 </r>
       <r>   -5.3962    1.0000 </r>
       <r>   -5.3756    1.0000 </r>
       <r>   -5.2650    1.0000 </r>
       <r>   -5.2047    1.0000 </r>
       <r>   -5.1563    1.0000 </r>
       <r>   -5.0330    1.0000 </r>
       <r>   -5.0227    1.0000 </r>
       <r>   -4.8851    1.0000 </r>
       <r>   -4.8464    1.0000 </r>
       <r>   -4.7222    1.0000 </r>
       <r>   -4.7073    1.0000 </r>
       <r>   -4.5601    1.0000 </r>
       <r>   -4.4048    1.0000 </r>
       <r>   -4.3898    1.0000 </r>
       <r>   -4.3022    1.0000 </r>
       <r>   -4.2452    1.0000 </r>
       <r>   -4.1642    1.0000 </r>
       <r>   -4.1285    1.0000 </r>
       <r>   -3.9874    1.0000 </r>
       <r>   -3.9873    1.0000 </r>
       <r>   -3.8303    1.0000 </r>
       <r>   -3.7848    1.0000 </r>
       <r>   -3.6779    1.0000 </r>
       <r>   -3.6623    1.0000 </r>
       <r>   -3.6142    1.0000 </r>
       <r>   -3.5879    1.0000 </r>
       <r>   -3.5041    1.0000 </r>
       <r>   -3.4877    1.0000 </r>
       <r>   -3.4337    1.0000 </r>
       <r>   -3.3858    1.0000 </r>
       <r>   -3.3674    1.0000 </r>
       <r>   -3.3151    1.0000 </r>
       <r>   -3.2355    1.0000 </r>
       <r>   -3.2171    1.0000 </r>
       <r>   -3.1302    1.0000 </r>
       <r>   -3.1030    1.0000 </r>
       <r>   -3.0807    1.0000 </r>
       <r>   -2.6940    1.0000 </r>
       <r>   -2.5100    1.0000 </r>
       <r>   -2.2244    1.0000 </r>
       <r>   -2.0257    1.0000 </r>
       <r>   -1.3483    0.9294 </r>
       <r>   -1.1387   -0.0288 </r>
       <r>   -0.9516   -0.0000 </r>
       <r>    0.0956   -0.0000 </r>
       <r>    0.1244   -0.0000 </r>
       <r>    0.4882   -0.0000 </r>
       <r>    1.0844   -0.0000 </r>
       <r>    1.7525    0.0000 </r>
       <r>    1.8832    0.0000 </r>
       <r>    2.4452    0.0000 </r>
       <r>    2.6817    0.0000 </r>
       <r>    3.1569    0.0000 </r>
       <r>    3.4516    0.0000 </r>
       <r>    3.7717    0.0000 </r>
       <r>    3.8221    0.0000 </r>
       <r>    4.4433    0.0000 </r>
       <r>    4.4905    0.0000 </r>
       <r>    4.5829    0.0000 </r>
       <r>    5.1159    0.0000 </r>
       <r>    5.3154    0.0000 </r>
       <r>    5.6859    0.0000 </r>
       <r>    5.7884    0.0000 </r>
       <r>    5.9891    0.0000 </r>
       <r>    6.5336    0.0000 </r>
       <r>    6.6262    0.0000 </r>
       <r>    6.9614    0.0000 </r>
       <r>    7.2554    0.0000 </r>
       <r>    7.5846    0.0000 </r>
      </set>
      <set comment="kpoint 4">
       <r>  -19.5259    1.0000 </r>
       <r>   -9.0828    1.0000 </r>
       <r>   -8.0711    1.0000 </r>
       <r>   -7.6870    1.0000 </r>
       <r>   -7.4459    1.0000 </r>
       <r>   -7.3141    1.0000 </r>
       <r>   -7.2839    1.0000 </r>
       <r>   -7.1730    1.0000 </r>
       <r>   -7.0864    1.0000 </r>
       <r>   -7.0772    1.0000 </r>
       <r>   -6.9872    1.0000 </r>
       <r>   -6.8470    1.0000 </r>
       <r>   -6.8027    1.0000 </r>
       <r>   -6.6714    1.0000 </r>
       <r>   -6.6699    1.0000 </r>
       <r>   -6.5334    1.0000 </r>
       <r>   -6.3338    1.0000 </r>
       <r>   -6.2345    1.0000 </r>
       <r>   -6.0317    1.0000 </r>
       <r>   -6.0063    1.0000 </r>
       <r>   -5.9643    1.0000 </r>
       <r>   -5.8462    1.0000 </r>
       <r>   -5.7275    1.0000 </r>
       <r>   -5.7168    1.0000 </r>
       <r>   -5.6587    1.0000 </r>
       <r>   -5.5681    1.0000 </r>
       <r>   -5.5279    1.0000 </r>
       <r>   -5.4443    1.0000 </r>
       <r>   -5.3605    1.0000 </r>
       <r>   -5.2567    1.0000 </r>
       <r>   -5.2128    1.0000 </r>
       <r>   -5.1887    1.0000 </r>
       <r>   -5.1093    1.0000 </r>
       <r>   -5.0883    1.0000 </r>
       <r>   -5.0105    1.0000 </r>
       <r>   -4.9525    1.0000 </r>
       <r>   -4.9256    1.0000 </r>
       <r>   -4.7245    1.0000 </r>
       <r>   -4.6612    1.0000 </r>
       <r>   -4.5562    1.0000 </r>
       <r>   -4.5049    1.0000 </r>
       <r>   -4.4898    1.0000 </r>
       <r>   -4.4267    1.0000 </r>
       <r>   -4.4048    1.0000 </r>
       <r>   -4.3392    1.0000 </r>
       <r>   -4.3326    1.0000 </r>
       <r>   -4.2412    1.0000 </r>
       <r>   -4.1786    1.0000 </r>
       <r>   -4.0315    1.0000 </r>
       <r>   -3.9841    1.0000 </r>
       <r>   -3.9403    1.0000 </r>
       <r>   -3.8935    1.0000 </r>
       <r>   -3.8060    1.0000 </r>
       <r>   -3.8036    1.0000 </r>
       <r>   -3.7122    1.0000 </r>
       <r>   -3.5697    1.0000 </r>
       <r>   -3.5441    1.0000 </r>
       <r>   -3.4979    1.0000 </r>
       <r>   -3.4654    1.0000 </r>
       <r>   -3.4334    1.0000 </r>
       <r>   -3.3748    1.0000 </r>
       <r>   -3.3278    1.0000 </r>
       <r>   -3.2256    1.0000 </r>
       <r>   -3.0944    1.0000 </r>
       <r>   -2.9798    1.0000 </r>
       <r>   -2.6090    1.0000 </r>
       <r>   -2.2201    1.0000 </r>
       <r>   -1.8255    1.0000 </r>
       <r>   -1.4238    1.0326 </r>
       <r>   -1.1508   -0.0333 </r>
       <r>   -0.9909   -0.0001 </r>
       <r>   -0.1290   -0.0000 </r>
       <r>    0.2217   -0.0000 </r>
       <r>    0.6861   -0.0000 </r>
       <r>    1.1817   -0.0000 </r>
       <r>    2.3273    0.0000 </r>
       <r>    2.3560    0.0000 </r>
       <r>    2.8575    0.0000 </r>
       <r>    2.8742    0.0000 </r>
       <r>    3.7414    0.0000 </r>
       <r>    4.1025    0.0000 </r>
       <r>    4.2210    0.0000 </r>
       <r>    4.5138    0.0000 </r>
       <r>    4.8147    0.0000 </r>
       <r>    4.8795    0.0000 </r>
       <r>    5.2779    0.0000 </r>
       <r>    5.8122    0.0000 </r>
       <r>    5.8906    0.0000 </r>
       <r>    5.9438    0.0000 </r>
       <r>    6.0732    0.0000 </r>
       <r>    6.1273    0.0000 </r>
       <r>    6.1376    0.0000 </r>
       <r>    6.4868    0.0000 </r>
       <r>    6.6859    0.0000 </r>
       <r>    6.8493    0.0000 </r>
       <r>    7.2197    0.0000 </r>
      </set>
      <set comment="kpoint 5">
       <r>  -19.5216    1.0000 </r>
       <r>   -8.6537    1.0000 </r>
       <r>   -8.2249    1.0000 </r>
       <r>   -7.7097    1.0000 </r>
       <r>   -7.2161    1.0000 </r>
       <r>   -7.0777    1.0000 </r>
       <r>   -7.0761    1.0000 </r>
       <r>   -7.0122    1.0000 </r>
       <r>   -6.9084    1.0000 </r>
       <r>   -6.8668    1.0000 </r>
       <r>   -6.8128    1.0000 </r>
       <r>   -6.7311    1.0000 </r>
       <r>   -6.6376    1.0000 </r>
       <r>   -6.4884    1.0000 </r>
       <r>   -6.4762    1.0000 </r>
       <r>   -6.3446    1.0000 </r>
       <r>   -6.3110    1.0000 </r>
       <r>   -6.1669    1.0000 </r>
       <r>   -6.1431    1.0000 </r>
       <r>   -6.0024    1.0000 </r>
       <r>   -5.9521    1.0000 </r>
       <r>   -5.8866    1.0000 </r>
       <r>   -5.8552    1.0000 </r>
       <r>   -5.8320    1.0000 </r>
       <r>   -5.7762    1.0000 </r>
       <r>   -5.6971    1.0000 </r>
       <r>   -5.5895    1.0000 </r>
       <r>   -5.5186    1.0000 </r>
       <r>   -5.4398    1.0000 </r>
       <r>   -5.3728    1.0000 </r>
       <r>   -5.2156    1.0000 </r>
       <r>   -5.1838    1.0000 </r>
       <r>   -5.1451    1.0000 </r>
       <r>   -5.0387    1.0000 </r>
       <r>   -5.0334    1.0000 </r>
       <r>   -4.9763    1.0000 </r>
       <r>   -4.9015    1.0000 </r>
       <r>   -4.9013    1.0000 </r>
       <r>   -4.8397    1.0000 </r>
       <r>   -4.7813    1.0000 </r>
       <r>   -4.7307    1.0000 </r>
       <r>   -4.7064    1.0000 </r>
       <r>   -4.6572    1.0000 </r>
       <r>   -4.4640    1.0000 </r>
       <r>   -4.4557    1.0000 </r>
       <r>   -4.4342    1.0000 </r>
       <r>   -4.4297    1.0000 </r>
       <r>   -4.2659    1.0000 </r>
       <r>   -4.2533    1.0000 </r>
       <r>   -4.2171    1.0000 </r>
       <r>   -4.1718    1.0000 </r>
       <r>   -4.1258    1.0000 </r>
       <r>   -3.9521    1.0000 </r>
       <r>   -3.8700    1.0000 </r>
       <r>   -3.8244    1.0000 </r>
       <r>   -3.8041    1.0000 </r>
       <r>   -3.6820    1.0000 </r>
       <r>   -3.6648    1.0000 </r>
       <r>   -3.4999    1.0000 </r>
       <r>   -3.3853    1.0000 </r>
       <r>   -3.3828    1.0000 </r>
       <r>   -3.3366    1.0000 </r>
       <r>   -3.2401    1.0000 </r>
       <r>   -3.1170    1.0000 </r>
       <r>   -3.0891    1.0000 </r>
       <r>   -2.6681    1.0000 </r>
       <r>   -2.2125    1.0000 </r>
       <r>   -1.7737    1.0000 </r>
       <r>   -1.3023    0.6347 </r>
       <r>   -1.1389   -0.0289 </r>
       <r>   -0.8467   -0.0000 </r>
       <r>   -0.4837   -0.0000 </r>
       <r>    0.2643   -0.0000 </r>
       <r>    0.5833   -0.0000 </r>
       <r>    1.8402    0.0000 </r>
       <r>    2.2547    0.0000 </r>
       <r>    2.3774    0.0000 </r>
       <r>    2.9781    0.0000 </r>
       <r>    3.8349    0.0000 </r>
       <r>    3.8612    0.0000 </r>
       <r>    4.4913    0.0000 </r>
       <r>    4.7725    0.0000 </r>
       <r>    5.0039    0.0000 </r>
       <r>    5.1249    0.0000 </r>
       <r>    5.3074    0.0000 </r>
       <r>    5.3709    0.0000 </r>
       <r>    5.4960    0.0000 </r>
       <r>    5.7055    0.0000 </r>
       <r>    5.9087    0.0000 </r>
       <r>    6.0072    0.0000 </r>
       <r>    6.2058    0.0000 </r>
       <r>    6.4081    0.0000 </r>
       <r>    6.5869    0.0000 </r>
       <r>    6.7078    0.0000 </r>
       <r>    6.9889    0.0000 </r>
       <r>    7.2102    0.0000 </r>
      </set>
      <set comment="kpoint 6">
       <r>  -19.5339    1.0000 </r>
       <r>   -9.5449    1.0000 </r>
       <r>   -8.1220    1.0000 </r>
       <r>   -7.8335    1.0000 </r>
       <r>   -7.6564    1.0000 </r>
       <r>   -7.5773    1.0000 </r>
       <r>   -7.5227    1.0000 </r>
       <r>   -7.5088    1.0000 </r>
       <r>   -7.3666    1.0000 </r>
       <r>   -7.3593    1.0000 </r>
       <r>   -7.1333    1.0000 </r>
       <r>   -7.0314    1.0000 </r>
       <r>   -6.9502    1.0000 </r>
       <r>   -6.9248    1.0000 </r>
       <r>   -6.8961    1.0000 </r>
       <r>   -6.8303    1.0000 </r>
       <r>   -6.4783    1.0000 </r>
       <r>   -6.4238    1.0000 </r>
       <r>   -5.9410    1.0000 </r>
       <r>   -5.9202    1.0000 </r>
       <r>   -5.8681    1.0000 </r>
       <r>   -5.7843    1.0000 </r>
       <r>   -5.7192    1.0000 </r>
       <r>   -5.6662    1.0000 </r>
       <r>   -5.5870    1.0000 </r>
       <r>   -5.5358    1.0000 </r>
       <r>   -5.5057    1.0000 </r>
       <r>   -5.4279    1.0000 </r>
       <r>   -5.3503    1.0000 </r>
       <r>   -5.2613    1.0000 </r>
       <r>   -5.1982    1.0000 </r>
       <r>   -5.1609    1.0000 </r>
       <r>   -5.0661    1.0000 </r>
       <r>   -4.9814    1.0000 </r>
       <r>   -4.8710    1.0000 </r>
       <r>   -4.7970    1.0000 </r>
       <r>   -4.7130    1.0000 </r>
       <r>   -4.6214    1.0000 </r>
       <r>   -4.5405    1.0000 </r>
       <r>   -4.3534    1.0000 </r>
       <r>   -4.3333    1.0000 </r>
       <r>   -4.2805    1.0000 </r>
       <r>   -4.1893    1.0000 </r>
       <r>   -4.1456    1.0000 </r>
       <r>   -4.0624    1.0000 </r>
       <r>   -4.0063    1.0000 </r>
       <r>   -3.8830    1.0000 </r>
       <r>   -3.7499    1.0000 </r>
       <r>   -3.7309    1.0000 </r>
       <r>   -3.6116    1.0000 </r>
       <r>   -3.5780    1.0000 </r>
       <r>   -3.5551    1.0000 </r>
       <r>   -3.5016    1.0000 </r>
       <r>   -3.4589    1.0000 </r>
       <r>   -3.4417    1.0000 </r>
       <r>   -3.4190    1.0000 </r>
       <r>   -3.3647    1.0000 </r>
       <r>   -3.3330    1.0000 </r>
       <r>   -3.3044    1.0000 </r>
       <r>   -3.1753    1.0000 </r>
       <r>   -3.1290    1.0000 </r>
       <r>   -3.1069    1.0000 </r>
       <r>   -3.0932    1.0000 </r>
       <r>   -2.7764    1.0000 </r>
       <r>   -2.6334    1.0000 </r>
       <r>   -2.3988    1.0000 </r>
       <r>   -2.1430    1.0000 </r>
       <r>   -2.0307    1.0000 </r>
       <r>   -1.8802    1.0000 </r>
       <r>   -0.9997   -0.0002 </r>
       <r>   -0.4817   -0.0000 </r>
       <r>   -0.0875   -0.0000 </r>
       <r>    0.1463   -0.0000 </r>
       <r>    0.4553   -0.0000 </r>
       <r>    0.9965   -0.0000 </r>
       <r>    1.3414   -0.0000 </r>
       <r>    2.0659    0.0000 </r>
       <r>    2.4091    0.0000 </r>
       <r>    2.4876    0.0000 </r>
       <r>    2.7038    0.0000 </r>
       <r>    3.5574    0.0000 </r>
       <r>    3.7455    0.0000 </r>
       <r>    3.8076    0.0000 </r>
       <r>    4.1974    0.0000 </r>
       <r>    4.3448    0.0000 </r>
       <r>    4.4193    0.0000 </r>
       <r>    4.6693    0.0000 </r>
       <r>    5.3222    0.0000 </r>
       <r>    5.6238    0.0000 </r>
       <r>    5.7357    0.0000 </r>
       <r>    5.8718    0.0000 </r>
       <r>    6.6126    0.0000 </r>
       <r>    6.8262    0.0000 </r>
       <r>    6.9986    0.0000 </r>
       <r>    7.2561    0.0000 </r>
       <r>    7.3457    0.0000 </r>
      </set>
      <set comment="kpoint 7">
       <r>  -19.5280    1.0000 </r>
       <r>   -9.2276    1.0000 </r>
       <r>   -8.0390    1.0000 </r>
       <r>   -7.6786    1.0000 </r>
       <r>   -7.5047    1.0000 </r>
       <r>   -7.4295    1.0000 </r>
       <r>   -7.3891    1.0000 </r>
       <r>   -7.3249    1.0000 </r>
       <r>   -7.1585    1.0000 </r>
       <r>   -7.1101    1.0000 </r>
       <r>   -7.0442    1.0000 </r>
       <r>   -6.9210    1.0000 </r>
       <r>   -6.8181    1.0000 </r>
       <r>   -6.7629    1.0000 </r>
       <r>   -6.7090    1.0000 </r>
       <r>   -6.6311    1.0000 </r>
       <r>   -6.4084    1.0000 </r>
       <r>   -6.2854    1.0000 </r>
       <r>   -6.0212    1.0000 </r>
       <r>   -5.9487    1.0000 </r>
       <r>   -5.9100    1.0000 </r>
       <r>   -5.8377    1.0000 </r>
       <r>   -5.7303    1.0000 </r>
       <r>   -5.6952    1.0000 </r>
       <r>   -5.6410    1.0000 </r>
       <r>   -5.5588    1.0000 </r>
       <r>   -5.4683    1.0000 </r>
       <r>   -5.4238    1.0000 </r>
       <r>   -5.3527    1.0000 </r>
       <r>   -5.2551    1.0000 </r>
       <r>   -5.2407    1.0000 </r>
       <r>   -5.1800    1.0000 </r>
       <r>   -5.1386    1.0000 </r>
       <r>   -5.0386    1.0000 </r>
       <r>   -4.9845    1.0000 </r>
       <r>   -4.9264    1.0000 </r>
       <r>   -4.8383    1.0000 </r>
       <r>   -4.7433    1.0000 </r>
       <r>   -4.6079    1.0000 </r>
       <r>   -4.5172    1.0000 </r>
       <r>   -4.4637    1.0000 </r>
       <r>   -4.3959    1.0000 </r>
       <r>   -4.3651    1.0000 </r>
       <r>   -4.2883    1.0000 </r>
       <r>   -4.2458    1.0000 </r>
       <r>   -4.2120    1.0000 </r>
       <r>   -4.1440    1.0000 </r>
       <r>   -4.0531    1.0000 </r>
       <r>   -3.9985    1.0000 </r>
       <r>   -3.8838    1.0000 </r>
       <r>   -3.8748    1.0000 </r>
       <r>   -3.8125    1.0000 </r>
       <r>   -3.7644    1.0000 </r>
       <r>   -3.7257    1.0000 </r>
       <r>   -3.5612    1.0000 </r>
       <r>   -3.5032    1.0000 </r>
       <r>   -3.4606    1.0000 </r>
       <r>   -3.4358    1.0000 </r>
       <r>   -3.3973    1.0000 </r>
       <r>   -3.3618    1.0000 </r>
       <r>   -3.2772    1.0000 </r>
       <r>   -3.2374    1.0000 </r>
       <r>   -3.1556    1.0000 </r>
       <r>   -3.0804    1.0000 </r>
       <r>   -2.7814    1.0000 </r>
       <r>   -2.5661    1.0000 </r>
       <r>   -2.4271    1.0000 </r>
       <r>   -2.0395    1.0000 </r>
       <r>   -1.7442    1.0000 </r>
       <r>   -1.2983    0.6023 </r>
       <r>   -0.5839   -0.0000 </r>
       <r>   -0.0821   -0.0000 </r>
       <r>    0.5152   -0.0000 </r>
       <r>    0.7672   -0.0000 </r>
       <r>    1.1673   -0.0000 </r>
       <r>    1.4972    0.0000 </r>
       <r>    1.9202    0.0000 </r>
       <r>    2.9195    0.0000 </r>
       <r>    3.3207    0.0000 </r>
       <r>    3.5167    0.0000 </r>
       <r>    3.9474    0.0000 </r>
       <r>    4.0609    0.0000 </r>
       <r>    4.5863    0.0000 </r>
       <r>    4.6702    0.0000 </r>
       <r>    4.6958    0.0000 </r>
       <r>    4.7474    0.0000 </r>
       <r>    5.1174    0.0000 </r>
       <r>    5.6710    0.0000 </r>
       <r>    5.9276    0.0000 </r>
       <r>    5.9661    0.0000 </r>
       <r>    6.1703    0.0000 </r>
       <r>    6.4617    0.0000 </r>
       <r>    6.6841    0.0000 </r>
       <r>    6.8593    0.0000 </r>
       <r>    7.1699    0.0000 </r>
       <r>    7.2726    0.0000 </r>
      </set>
      <set comment="kpoint 8">
       <r>  -19.5227    1.0000 </r>
       <r>   -8.8117    1.0000 </r>
       <r>   -8.0927    1.0000 </r>
       <r>   -7.6489    1.0000 </r>
       <r>   -7.2883    1.0000 </r>
       <r>   -7.2163    1.0000 </r>
       <r>   -7.1293    1.0000 </r>
       <r>   -7.0797    1.0000 </r>
       <r>   -6.9778    1.0000 </r>
       <r>   -6.8988    1.0000 </r>
       <r>   -6.8270    1.0000 </r>
       <r>   -6.7698    1.0000 </r>
       <r>   -6.6742    1.0000 </r>
       <r>   -6.5738    1.0000 </r>
       <r>   -6.5341    1.0000 </r>
       <r>   -6.4104    1.0000 </r>
       <r>   -6.2871    1.0000 </r>
       <r>   -6.2026    1.0000 </r>
       <r>   -6.1249    1.0000 </r>
       <r>   -6.0023    1.0000 </r>
       <r>   -5.9571    1.0000 </r>
       <r>   -5.8854    1.0000 </r>
       <r>   -5.8272    1.0000 </r>
       <r>   -5.7900    1.0000 </r>
       <r>   -5.6987    1.0000 </r>
       <r>   -5.6545    1.0000 </r>
       <r>   -5.6000    1.0000 </r>
       <r>   -5.4887    1.0000 </r>
       <r>   -5.4598    1.0000 </r>
       <r>   -5.3316    1.0000 </r>
       <r>   -5.2841    1.0000 </r>
       <r>   -5.2309    1.0000 </r>
       <r>   -5.1603    1.0000 </r>
       <r>   -5.1252    1.0000 </r>
       <r>   -5.0336    1.0000 </r>
       <r>   -4.9761    1.0000 </r>
       <r>   -4.8779    1.0000 </r>
       <r>   -4.8199    1.0000 </r>
       <r>   -4.7536    1.0000 </r>
       <r>   -4.6987    1.0000 </r>
       <r>   -4.6652    1.0000 </r>
       <r>   -4.6169    1.0000 </r>
       <r>   -4.5561    1.0000 </r>
       <r>   -4.5123    1.0000 </r>
       <r>   -4.4228    1.0000 </r>
       <r>   -4.3945    1.0000 </r>
       <r>   -4.3718    1.0000 </r>
       <r>   -4.2256    1.0000 </r>
       <r>   -4.1979    1.0000 </r>
       <r>   -4.1416    1.0000 </r>
       <r>   -4.0805    1.0000 </r>
       <r>   -4.0518    1.0000 </r>
       <r>   -3.8929    1.0000 </r>
       <r>   -3.8437    1.0000 </r>
       <r>   -3.7267    1.0000 </r>
       <r>   -3.6372    1.0000 </r>
       <r>   -3.5695    1.0000 </r>
       <r>   -3.5504    1.0000 </r>
       <r>   -3.4972    1.0000 </r>
       <r>   -3.4263    1.0000 </r>
       <r>   -3.3679    1.0000 </r>
       <r>   -3.3340    1.0000 </r>
       <r>   -3.2668    1.0000 </r>
       <r>   -3.1584    1.0000 </r>
       <r>   -3.0249    1.0000 </r>
       <r>   -2.6560    1.0000 </r>
       <r>   -2.4138    1.0000 </r>
       <r>   -2.0122    1.0000 </r>
       <r>   -1.6616    1.0000 </r>
       <r>   -1.1915   -0.0187 </r>
       <r>   -0.5961   -0.0000 </r>
       <r>   -0.2453   -0.0000 </r>
       <r>    0.1281   -0.0000 </r>
       <r>    1.3128   -0.0000 </r>
       <r>    1.4014   -0.0000 </r>
       <r>    1.7661    0.0000 </r>
       <r>    2.3750    0.0000 </r>
       <r>    3.1658    0.0000 </r>
       <r>    3.5793    0.0000 </r>
       <r>    3.9441    0.0000 </r>
       <r>    4.2830    0.0000 </r>
       <r>    4.4248    0.0000 </r>
       <r>    5.0020    0.0000 </r>
       <r>    5.0855    0.0000 </r>
       <r>    5.1250    0.0000 </r>
       <r>    5.2926    0.0000 </r>
       <r>    5.4118    0.0000 </r>
       <r>    6.0212    0.0000 </r>
       <r>    6.1380    0.0000 </r>
       <r>    6.2747    0.0000 </r>
       <r>    6.3524    0.0000 </r>
       <r>    6.4149    0.0000 </r>
       <r>    6.4682    0.0000 </r>
       <r>    6.5685    0.0000 </r>
       <r>    6.7750    0.0000 </r>
       <r>    7.2606    0.0000 </r>
      </set>
      <set comment="kpoint 9">
       <r>  -19.5205    1.0000 </r>
       <r>   -8.4867    1.0000 </r>
       <r>   -8.2523    1.0000 </r>
       <r>   -7.6931    1.0000 </r>
       <r>   -7.1612    1.0000 </r>
       <r>   -7.0951    1.0000 </r>
       <r>   -6.9816    1.0000 </r>
       <r>   -6.9548    1.0000 </r>
       <r>   -6.8616    1.0000 </r>
       <r>   -6.8013    1.0000 </r>
       <r>   -6.7396    1.0000 </r>
       <r>   -6.7180    1.0000 </r>
       <r>   -6.5331    1.0000 </r>
       <r>   -6.4451    1.0000 </r>
       <r>   -6.3978    1.0000 </r>
       <r>   -6.3499    1.0000 </r>
       <r>   -6.2847    1.0000 </r>
       <r>   -6.2350    1.0000 </r>
       <r>   -6.1837    1.0000 </r>
       <r>   -6.0029    1.0000 </r>
       <r>   -5.9905    1.0000 </r>
       <r>   -5.9738    1.0000 </r>
       <r>   -5.8834    1.0000 </r>
       <r>   -5.8038    1.0000 </r>
       <r>   -5.7667    1.0000 </r>
       <r>   -5.7087    1.0000 </r>
       <r>   -5.6518    1.0000 </r>
       <r>   -5.5653    1.0000 </r>
       <r>   -5.4384    1.0000 </r>
       <r>   -5.4250    1.0000 </r>
       <r>   -5.2993    1.0000 </r>
       <r>   -5.2457    1.0000 </r>
       <r>   -5.1702    1.0000 </r>
       <r>   -5.1462    1.0000 </r>
       <r>   -5.1231    1.0000 </r>
       <r>   -5.0237    1.0000 </r>
       <r>   -4.9820    1.0000 </r>
       <r>   -4.9032    1.0000 </r>
       <r>   -4.8708    1.0000 </r>
       <r>   -4.8524    1.0000 </r>
       <r>   -4.7769    1.0000 </r>
       <r>   -4.6664    1.0000 </r>
       <r>   -4.6118    1.0000 </r>
       <r>   -4.5691    1.0000 </r>
       <r>   -4.4550    1.0000 </r>
       <r>   -4.3891    1.0000 </r>
       <r>   -4.3638    1.0000 </r>
       <r>   -4.2894    1.0000 </r>
       <r>   -4.2463    1.0000 </r>
       <r>   -4.2298    1.0000 </r>
       <r>   -4.1223    1.0000 </r>
       <r>   -4.0333    1.0000 </r>
       <r>   -3.9995    1.0000 </r>
       <r>   -3.8497    1.0000 </r>
       <r>   -3.8296    1.0000 </r>
       <r>   -3.7679    1.0000 </r>
       <r>   -3.7085    1.0000 </r>
       <r>   -3.6602    1.0000 </r>
       <r>   -3.5555    1.0000 </r>
       <r>   -3.4362    1.0000 </r>
       <r>   -3.3633    1.0000 </r>
       <r>   -3.3045    1.0000 </r>
       <r>   -3.2524    1.0000 </r>
       <r>   -3.1544    1.0000 </r>
       <r>   -3.1297    1.0000 </r>
       <r>   -2.6880    1.0000 </r>
       <r>   -2.4061    1.0000 </r>
       <r>   -2.0021    1.0000 </r>
       <r>   -1.6551    1.0000 </r>
       <r>   -1.0332   -0.0010 </r>
       <r>   -0.6022   -0.0000 </r>
       <r>   -0.3691   -0.0000 </r>
       <r>    0.0080   -0.0000 </r>
       <r>    1.3365   -0.0000 </r>
       <r>    1.4086   -0.0000 </r>
       <r>    2.3758    0.0000 </r>
       <r>    2.5812    0.0000 </r>
       <r>    2.8792    0.0000 </r>
       <r>    3.7760    0.0000 </r>
       <r>    3.9130    0.0000 </r>
       <r>    4.6560    0.0000 </r>
       <r>    4.8115    0.0000 </r>
       <r>    4.9607    0.0000 </r>
       <r>    5.1300    0.0000 </r>
       <r>    5.5019    0.0000 </r>
       <r>    5.6086    0.0000 </r>
       <r>    5.6659    0.0000 </r>
       <r>    5.7071    0.0000 </r>
       <r>    5.7645    0.0000 </r>
       <r>    5.8053    0.0000 </r>
       <r>    6.1157    0.0000 </r>
       <r>    6.7086    0.0000 </r>
       <r>    6.8663    0.0000 </r>
       <r>    6.8856    0.0000 </r>
       <r>    6.9124    0.0000 </r>
       <r>    7.0075    0.0000 </r>
      </set>
      <set comment="kpoint 10">
       <r>  -19.5231    1.0000 </r>
       <r>   -8.8684    1.0000 </r>
       <r>   -8.0184    1.0000 </r>
       <r>   -7.5481    1.0000 </r>
       <r>   -7.4115    1.0000 </r>
       <r>   -7.2376    1.0000 </r>
       <r>   -7.2043    1.0000 </r>
       <r>   -7.1338    1.0000 </r>
       <r>   -6.9474    1.0000 </r>
       <r>   -6.9302    1.0000 </r>
       <r>   -6.8267    1.0000 </r>
       <r>   -6.7966    1.0000 </r>
       <r>   -6.6578    1.0000 </r>
       <r>   -6.6111    1.0000 </r>
       <r>   -6.5234    1.0000 </r>
       <r>   -6.4499    1.0000 </r>
       <r>   -6.3445    1.0000 </r>
       <r>   -6.2239    1.0000 </r>
       <r>   -6.1125    1.0000 </r>
       <r>   -5.9883    1.0000 </r>
       <r>   -5.9783    1.0000 </r>
       <r>   -5.8643    1.0000 </r>
       <r>   -5.8147    1.0000 </r>
       <r>   -5.7680    1.0000 </r>
       <r>   -5.6858    1.0000 </r>
       <r>   -5.6700    1.0000 </r>
       <r>   -5.5540    1.0000 </r>
       <r>   -5.4980    1.0000 </r>
       <r>   -5.4488    1.0000 </r>
       <r>   -5.3512    1.0000 </r>
       <r>   -5.3205    1.0000 </r>
       <r>   -5.2771    1.0000 </r>
       <r>   -5.1879    1.0000 </r>
       <r>   -5.1149    1.0000 </r>
       <r>   -5.0431    1.0000 </r>
       <r>   -4.9862    1.0000 </r>
       <r>   -4.8989    1.0000 </r>
       <r>   -4.7795    1.0000 </r>
       <r>   -4.7257    1.0000 </r>
       <r>   -4.6855    1.0000 </r>
       <r>   -4.6125    1.0000 </r>
       <r>   -4.5748    1.0000 </r>
       <r>   -4.5177    1.0000 </r>
       <r>   -4.4872    1.0000 </r>
       <r>   -4.4141    1.0000 </r>
       <r>   -4.3864    1.0000 </r>
       <r>   -4.3205    1.0000 </r>
       <r>   -4.2298    1.0000 </r>
       <r>   -4.1828    1.0000 </r>
       <r>   -4.0981    1.0000 </r>
       <r>   -4.0367    1.0000 </r>
       <r>   -3.9509    1.0000 </r>
       <r>   -3.9327    1.0000 </r>
       <r>   -3.8422    1.0000 </r>
       <r>   -3.6163    1.0000 </r>
       <r>   -3.5693    1.0000 </r>
       <r>   -3.5360    1.0000 </r>
       <r>   -3.4752    1.0000 </r>
       <r>   -3.4255    1.0000 </r>
       <r>   -3.3522    1.0000 </r>
       <r>   -3.3309    1.0000 </r>
       <r>   -3.3147    1.0000 </r>
       <r>   -3.2601    1.0000 </r>
       <r>   -3.0717    1.0000 </r>
       <r>   -2.9919    1.0000 </r>
       <r>   -2.7101    1.0000 </r>
       <r>   -2.6102    1.0000 </r>
       <r>   -2.4493    1.0000 </r>
       <r>   -1.6633    1.0000 </r>
       <r>   -1.2736    0.3953 </r>
       <r>   -0.8295   -0.0000 </r>
       <r>    0.1356   -0.0000 </r>
       <r>    0.8018   -0.0000 </r>
       <r>    1.0633   -0.0000 </r>
       <r>    1.1552   -0.0000 </r>
       <r>    1.5252    0.0000 </r>
       <r>    2.5943    0.0000 </r>
       <r>    2.7163    0.0000 </r>
       <r>    3.8249    0.0000 </r>
       <r>    4.0839    0.0000 </r>
       <r>    4.2568    0.0000 </r>
       <r>    4.4160    0.0000 </r>
       <r>    4.7063    0.0000 </r>
       <r>    5.0129    0.0000 </r>
       <r>    5.1126    0.0000 </r>
       <r>    5.2768    0.0000 </r>
       <r>    5.4542    0.0000 </r>
       <r>    5.9840    0.0000 </r>
       <r>    6.0517    0.0000 </r>
       <r>    6.1934    0.0000 </r>
       <r>    6.2849    0.0000 </r>
       <r>    6.3701    0.0000 </r>
       <r>    6.7431    0.0000 </r>
       <r>    6.8540    0.0000 </r>
       <r>    6.9482    0.0000 </r>
       <r>    7.0290    0.0000 </r>
      </set>
      <set comment="kpoint 11">
       <r>  -19.5199    1.0000 </r>
       <r>   -8.4810    1.0000 </r>
       <r>   -8.0581    1.0000 </r>
       <r>   -7.6491    1.0000 </r>
       <r>   -7.2815    1.0000 </r>
       <r>   -7.0588    1.0000 </r>
       <r>   -6.9798    1.0000 </r>
       <r>   -6.8934    1.0000 </r>
       <r>   -6.8235    1.0000 </r>
       <r>   -6.7576    1.0000 </r>
       <r>   -6.6767    1.0000 </r>
       <r>   -6.6353    1.0000 </r>
       <r>   -6.5518    1.0000 </r>
       <r>   -6.4349    1.0000 </r>
       <r>   -6.4074    1.0000 </r>
       <r>   -6.3216    1.0000 </r>
       <r>   -6.2844    1.0000 </r>
       <r>   -6.2612    1.0000 </r>
       <r>   -6.1739    1.0000 </r>
       <r>   -6.0990    1.0000 </r>
       <r>   -6.0299    1.0000 </r>
       <r>   -5.9610    1.0000 </r>
       <r>   -5.8998    1.0000 </r>
       <r>   -5.7879    1.0000 </r>
       <r>   -5.7621    1.0000 </r>
       <r>   -5.7182    1.0000 </r>
       <r>   -5.6839    1.0000 </r>
       <r>   -5.6378    1.0000 </r>
       <r>   -5.5312    1.0000 </r>
       <r>   -5.4255    1.0000 </r>
       <r>   -5.4083    1.0000 </r>
       <r>   -5.3349    1.0000 </r>
       <r>   -5.3086    1.0000 </r>
       <r>   -5.2595    1.0000 </r>
       <r>   -5.1217    1.0000 </r>
       <r>   -5.0626    1.0000 </r>
       <r>   -4.9926    1.0000 </r>
       <r>   -4.9632    1.0000 </r>
       <r>   -4.8536    1.0000 </r>
       <r>   -4.8145    1.0000 </r>
       <r>   -4.7474    1.0000 </r>
       <r>   -4.6864    1.0000 </r>
       <r>   -4.6361    1.0000 </r>
       <r>   -4.4958    1.0000 </r>
       <r>   -4.4512    1.0000 </r>
       <r>   -4.3921    1.0000 </r>
       <r>   -4.3076    1.0000 </r>
       <r>   -4.2139    1.0000 </r>
       <r>   -4.1809    1.0000 </r>
       <r>   -4.1257    1.0000 </r>
       <r>   -4.1067    1.0000 </r>
       <r>   -3.9971    1.0000 </r>
       <r>   -3.8793    1.0000 </r>
       <r>   -3.8295    1.0000 </r>
       <r>   -3.7531    1.0000 </r>
       <r>   -3.6622    1.0000 </r>
       <r>   -3.6179    1.0000 </r>
       <r>   -3.5485    1.0000 </r>
       <r>   -3.5019    1.0000 </r>
       <r>   -3.4691    1.0000 </r>
       <r>   -3.3967    1.0000 </r>
       <r>   -3.3530    1.0000 </r>
       <r>   -3.3161    1.0000 </r>
       <r>   -3.2367    1.0000 </r>
       <r>   -3.0482    1.0000 </r>
       <r>   -2.9428    1.0000 </r>
       <r>   -2.6236    1.0000 </r>
       <r>   -2.5290    1.0000 </r>
       <r>   -1.7057    1.0000 </r>
       <r>   -1.2246    0.0733 </r>
       <r>   -0.6410   -0.0000 </r>
       <r>   -0.2363   -0.0000 </r>
       <r>    0.7000   -0.0000 </r>
       <r>    0.9428   -0.0000 </r>
       <r>    1.8897    0.0000 </r>
       <r>    2.2094    0.0000 </r>
       <r>    2.5737    0.0000 </r>
       <r>    3.0296    0.0000 </r>
       <r>    3.5627    0.0000 </r>
       <r>    3.9482    0.0000 </r>
       <r>    4.4763    0.0000 </r>
       <r>    4.6392    0.0000 </r>
       <r>    4.8607    0.0000 </r>
       <r>    5.2117    0.0000 </r>
       <r>    5.4925    0.0000 </r>
       <r>    5.5838    0.0000 </r>
       <r>    5.6834    0.0000 </r>
       <r>    5.7834    0.0000 </r>
       <r>    6.1246    0.0000 </r>
       <r>    6.2448    0.0000 </r>
       <r>    6.5186    0.0000 </r>
       <r>    6.6386    0.0000 </r>
       <r>    6.7571    0.0000 </r>
       <r>    6.8109    0.0000 </r>
       <r>    6.8582    0.0000 </r>
       <r>    6.9127    0.0000 </r>
      </set>
      <set comment="kpoint 12">
       <r>  -19.5188    1.0000 </r>
       <r>   -8.3168    1.0000 </r>
       <r>   -7.8976    1.0000 </r>
       <r>   -7.8174    1.0000 </r>
       <r>   -7.2947    1.0000 </r>
       <r>   -7.0186    1.0000 </r>
       <r>   -6.8222    1.0000 </r>
       <r>   -6.8009    1.0000 </r>
       <r>   -6.7884    1.0000 </r>
       <r>   -6.6321    1.0000 </r>
       <r>   -6.5647    1.0000 </r>
       <r>   -6.5492    1.0000 </r>
       <r>   -6.5183    1.0000 </r>
       <r>   -6.4503    1.0000 </r>
       <r>   -6.4495    1.0000 </r>
       <r>   -6.3274    1.0000 </r>
       <r>   -6.3226    1.0000 </r>
       <r>   -6.2253    1.0000 </r>
       <r>   -6.1015    1.0000 </r>
       <r>   -6.0831    1.0000 </r>
       <r>   -6.0671    1.0000 </r>
       <r>   -6.0484    1.0000 </r>
       <r>   -5.8754    1.0000 </r>
       <r>   -5.8731    1.0000 </r>
       <r>   -5.8368    1.0000 </r>
       <r>   -5.7752    1.0000 </r>
       <r>   -5.6863    1.0000 </r>
       <r>   -5.6269    1.0000 </r>
       <r>   -5.6165    1.0000 </r>
       <r>   -5.5388    1.0000 </r>
       <r>   -5.5286    1.0000 </r>
       <r>   -5.4363    1.0000 </r>
       <r>   -5.3830    1.0000 </r>
       <r>   -5.3239    1.0000 </r>
       <r>   -5.1066    1.0000 </r>
       <r>   -5.0478    1.0000 </r>
       <r>   -5.0114    1.0000 </r>
       <r>   -4.9749    1.0000 </r>
       <r>   -4.9546    1.0000 </r>
       <r>   -4.8792    1.0000 </r>
       <r>   -4.8205    1.0000 </r>
       <r>   -4.7347    1.0000 </r>
       <r>   -4.5693    1.0000 </r>
       <r>   -4.4808    1.0000 </r>
       <r>   -4.4382    1.0000 </r>
       <r>   -4.3844    1.0000 </r>
       <r>   -4.2947    1.0000 </r>
       <r>   -4.1897    1.0000 </r>
       <r>   -4.1656    1.0000 </r>
       <r>   -4.1005    1.0000 </r>
       <r>   -4.0679    1.0000 </r>
       <r>   -3.8500    1.0000 </r>
       <r>   -3.8432    1.0000 </r>
       <r>   -3.8409    1.0000 </r>
       <r>   -3.6496    1.0000 </r>
       <r>   -3.6362    1.0000 </r>
       <r>   -3.5727    1.0000 </r>
       <r>   -3.5099    1.0000 </r>
       <r>   -3.5022    1.0000 </r>
       <r>   -3.4711    1.0000 </r>
       <r>   -3.4697    1.0000 </r>
       <r>   -3.4227    1.0000 </r>
       <r>   -3.4168    1.0000 </r>
       <r>   -3.3952    1.0000 </r>
       <r>   -3.1430    1.0000 </r>
       <r>   -2.9849    1.0000 </r>
       <r>   -2.9115    1.0000 </r>
       <r>   -2.5929    1.0000 </r>
       <r>   -1.7584    1.0000 </r>
       <r>   -1.2698    0.3642 </r>
       <r>   -0.4348   -0.0000 </r>
       <r>   -0.3575   -0.0000 </r>
       <r>    0.4366   -0.0000 </r>
       <r>    1.6101    0.0000 </r>
       <r>    1.7581    0.0000 </r>
       <r>    2.3242    0.0000 </r>
       <r>    2.9153    0.0000 </r>
       <r>    2.9563    0.0000 </r>
       <r>    3.3601    0.0000 </r>
       <r>    4.2554    0.0000 </r>
       <r>    4.2723    0.0000 </r>
       <r>    4.3477    0.0000 </r>
       <r>    4.9877    0.0000 </r>
       <r>    5.1826    0.0000 </r>
       <r>    5.3977    0.0000 </r>
       <r>    6.0241    0.0000 </r>
       <r>    6.0329    0.0000 </r>
       <r>    6.0662    0.0000 </r>
       <r>    6.1404    0.0000 </r>
       <r>    6.1544    0.0000 </r>
       <r>    6.1587    0.0000 </r>
       <r>    6.2313    0.0000 </r>
       <r>    6.4211    0.0000 </r>
       <r>    6.7588    0.0000 </r>
       <r>    7.1961    0.0000 </r>
       <r>    7.2862    0.0000 </r>
      </set>
     </set>
    </set>
   </array>
  </eigenvalues>
  <separator name="orbital magnetization" >
   <v name="MAGDIPOLOUT">      0.00000000      0.00000000      0.00000000</v>
  </separator>
  <dos>
   <i name="efermi">     -1.28612713 </i>
   <total>
    <array>
     <dimension dim="1">gridpoints</dimension>
     <dimension dim="2">spin</dimension>
     <field>energy</field>
     <field>total</field>
     <field>integrated</field>
     <set>
      <set comment="spin 1">
       <r>   -20.8973     0.0000     0.0000 </r>
       <r>   -20.7978     0.0000     0.0000 </r>
       <r>   -20.6983     0.0000     0.0000 </r>
       <r>   -20.5987     0.0000     0.0000 </r>
       <r>   -20.4992     0.0000     0.0000 </r>
       <r>   -20.3997    -0.0000    -0.0000 </r>
       <r>   -20.3002    -0.0000    -0.0000 </r>
       <r>   -20.2006    -0.0000    -0.0000 </r>
       <r>   -20.1011    -0.0000    -0.0000 </r>
       <r>   -20.0016    -0.0000    -0.0000 </r>
       <r>   -19.9021    -0.0000    -0.0000 </r>
       <r>   -19.8025    -0.0068    -0.0007 </r>
       <r>   -19.7030    -0.3077    -0.0313 </r>
       <r>   -19.6035     0.6753     0.0359 </r>
       <r>   -19.5039    13.2990     1.3595 </r>
       <r>   -19.4044     7.1373     2.0699 </r>
       <r>   -19.3049    -0.6234     2.0078 </r>
       <r>   -19.2054    -0.0779     2.0001 </r>
       <r>   -19.1058    -0.0006     2.0000 </r>
       <r>   -19.0063    -0.0000     2.0000 </r>
       <r>   -18.9068    -0.0000     2.0000 </r>
       <r>   -18.8073     0.0000     2.0000 </r>
       <r>   -18.7077     0.0000     2.0000 </r>
       <r>   -18.6082     0.0000     2.0000 </r>
       <r>   -18.5087     0.0000     2.0000 </r>
       <r>   -18.4092     0.0000     2.0000 </r>
       <r>   -18.3096     0.0000     2.0000 </r>
       <r>   -18.2101     0.0000     2.0000 </r>
       <r>   -18.1106     0.0000     2.0000 </r>
       <r>   -18.0110     0.0000     2.0000 </r>
       <r>   -17.9115     0.0000     2.0000 </r>
       <r>   -17.8120     0.0000     2.0000 </r>
       <r>   -17.7125     0.0000     2.0000 </r>
       <r>   -17.6129     0.0000     2.0000 </r>
       <r>   -17.5134     0.0000     2.0000 </r>
       <r>   -17.4139     0.0000     2.0000 </r>
       <r>   -17.3144     0.0000     2.0000 </r>
       <r>   -17.2148     0.0000     2.0000 </r>
       <r>   -17.1153     0.0000     2.0000 </r>
       <r>   -17.0158     0.0000     2.0000 </r>
       <r>   -16.9163     0.0000     2.0000 </r>
       <r>   -16.8167     0.0000     2.0000 </r>
       <r>   -16.7172     0.0000     2.0000 </r>
       <r>   -16.6177     0.0000     2.0000 </r>
       <r>   -16.5181     0.0000     2.0000 </r>
       <r>   -16.4186     0.0000     2.0000 </r>
       <r>   -16.3191     0.0000     2.0000 </r>
       <r>   -16.2196     0.0000     2.0000 </r>
       <r>   -16.1200     0.0000     2.0000 </r>
       <r>   -16.0205     0.0000     2.0000 </r>
       <r>   -15.9210     0.0000     2.0000 </r>
       <r>   -15.8215     0.0000     2.0000 </r>
       <r>   -15.7219     0.0000     2.0000 </r>
       <r>   -15.6224     0.0000     2.0000 </r>
       <r>   -15.5229     0.0000     2.0000 </r>
       <r>   -15.4234     0.0000     2.0000 </r>
       <r>   -15.3238     0.0000     2.0000 </r>
       <r>   -15.2243     0.0000     2.0000 </r>
       <r>   -15.1248     0.0000     2.0000 </r>
       <r>   -15.0252     0.0000     2.0000 </r>
       <r>   -14.9257     0.0000     2.0000 </r>
       <r>   -14.8262     0.0000     2.0000 </r>
       <r>   -14.7267     0.0000     2.0000 </r>
       <r>   -14.6271     0.0000     2.0000 </r>
       <r>   -14.5276     0.0000     2.0000 </r>
       <r>   -14.4281     0.0000     2.0000 </r>
       <r>   -14.3286     0.0000     2.0000 </r>
       <r>   -14.2290     0.0000     2.0000 </r>
       <r>   -14.1295     0.0000     2.0000 </r>
       <r>   -14.0300     0.0000     2.0000 </r>
       <r>   -13.9305     0.0000     2.0000 </r>
       <r>   -13.8309     0.0000     2.0000 </r>
       <r>   -13.7314     0.0000     2.0000 </r>
       <r>   -13.6319     0.0000     2.0000 </r>
       <r>   -13.5323     0.0000     2.0000 </r>
       <r>   -13.4328     0.0000     2.0000 </r>
       <r>   -13.3333     0.0000     2.0000 </r>
       <r>   -13.2338     0.0000     2.0000 </r>
       <r>   -13.1342     0.0000     2.0000 </r>
       <r>   -13.0347     0.0000     2.0000 </r>
       <r>   -12.9352     0.0000     2.0000 </r>
       <r>   -12.8357     0.0000     2.0000 </r>
       <r>   -12.7361     0.0000     2.0000 </r>
       <r>   -12.6366     0.0000     2.0000 </r>
       <r>   -12.5371     0.0000     2.0000 </r>
       <r>   -12.4376     0.0000     2.0000 </r>
       <r>   -12.3380     0.0000     2.0000 </r>
       <r>   -12.2385     0.0000     2.0000 </r>
       <r>   -12.1390     0.0000     2.0000 </r>
       <r>   -12.0394     0.0000     2.0000 </r>
       <r>   -11.9399     0.0000     2.0000 </r>
       <r>   -11.8404     0.0000     2.0000 </r>
       <r>   -11.7409     0.0000     2.0000 </r>
       <r>   -11.6413     0.0000     2.0000 </r>
       <r>   -11.5418     0.0000     2.0000 </r>
       <r>   -11.4423     0.0000     2.0000 </r>
       <r>   -11.3428     0.0000     2.0000 </r>
       <r>   -11.2432     0.0000     2.0000 </r>
       <r>   -11.1437     0.0000     2.0000 </r>
       <r>   -11.0442     0.0000     2.0000 </r>
       <r>   -10.9447     0.0000     2.0000 </r>
       <r>   -10.8451     0.0000     2.0000 </r>
       <r>   -10.7456     0.0000     2.0000 </r>
       <r>   -10.6461    -0.0000     2.0000 </r>
       <r>   -10.5466    -0.0000     2.0000 </r>
       <r>   -10.4470    -0.0000     2.0000 </r>
       <r>   -10.3475    -0.0000     2.0000 </r>
       <r>   -10.2480    -0.0000     2.0000 </r>
       <r>   -10.1484    -0.0000     2.0000 </r>
       <r>   -10.0489    -0.0003     2.0000 </r>
       <r>    -9.9494    -0.0095     1.9990 </r>
       <r>    -9.8499    -0.0085     1.9982 </r>
       <r>    -9.7503     0.5264     2.0506 </r>
       <r>    -9.6508     1.0661     2.1567 </r>
       <r>    -9.5513     0.8489     2.2411 </r>
       <r>    -9.4518     1.7087     2.4112 </r>
       <r>    -9.3522     0.5404     2.4650 </r>
       <r>    -9.2527     0.9005     2.5546 </r>
       <r>    -9.1532     2.0996     2.7636 </r>
       <r>    -9.0537     1.1400     2.8770 </r>
       <r>    -8.9541     0.3235     2.9092 </r>
       <r>    -8.8546     1.4639     3.0549 </r>
       <r>    -8.7551     2.7704     3.3307 </r>
       <r>    -8.6555     0.9995     3.4301 </r>
       <r>    -8.5560     0.9327     3.5230 </r>
       <r>    -8.4565     2.9954     3.8211 </r>
       <r>    -8.3570     1.4169     3.9621 </r>
       <r>    -8.2574     1.7840     4.1397 </r>
       <r>    -8.1579     3.5467     4.4927 </r>
       <r>    -8.0584     8.2571     5.3145 </r>
       <r>    -7.9589     6.9395     6.0051 </r>
       <r>    -7.8593     2.0027     6.2044 </r>
       <r>    -7.7598     3.2416     6.5271 </r>
       <r>    -7.6603    11.5055     7.6722 </r>
       <r>    -7.5608    13.9490     9.0605 </r>
       <r>    -7.4612    12.8036    10.3348 </r>
       <r>    -7.3617    12.4820    11.5771 </r>
       <r>    -7.2622    14.3749    13.0077 </r>
       <r>    -7.1626    14.8608    14.4868 </r>
       <r>    -7.0631    24.2182    16.8971 </r>
       <r>    -6.9636    25.9390    19.4788 </r>
       <r>    -6.8641    26.5154    22.1178 </r>
       <r>    -6.7645    27.0806    24.8130 </r>
       <r>    -6.6650    21.0676    26.9098 </r>
       <r>    -6.5655    17.1281    28.6145 </r>
       <r>    -6.4660    19.0314    30.5086 </r>
       <r>    -6.3664    21.1414    32.6127 </r>
       <r>    -6.2669    20.0669    34.6099 </r>
       <r>    -6.1674    16.1792    36.2202 </r>
       <r>    -6.0679    12.4284    37.4572 </r>
       <r>    -5.9683    24.2433    39.8700 </r>
       <r>    -5.8688    32.6406    43.1186 </r>
       <r>    -5.7693    31.1416    46.2180 </r>
       <r>    -5.6697    34.7490    49.6765 </r>
       <r>    -5.5702    31.3328    52.7949 </r>
       <r>    -5.4707    27.5714    55.5390 </r>
       <r>    -5.3712    27.7202    58.2979 </r>
       <r>    -5.2716    29.0789    61.1920 </r>
       <r>    -5.1721    32.9707    64.4735 </r>
       <r>    -5.0726    30.8536    67.5443 </r>
       <r>    -4.9731    29.3083    70.4612 </r>
       <r>    -4.8735    27.6028    73.2084 </r>
       <r>    -4.7740    27.5225    75.9477 </r>
       <r>    -4.6745    28.7186    78.8059 </r>
       <r>    -4.5750    26.0315    81.3967 </r>
       <r>    -4.4754    25.4487    83.9296 </r>
       <r>    -4.3759    33.4468    87.2584 </r>
       <r>    -4.2764    30.9749    90.3412 </r>
       <r>    -4.1768    35.3681    93.8613 </r>
       <r>    -4.0773    32.0746    97.0536 </r>
       <r>    -3.9778    24.2650    99.4686 </r>
       <r>    -3.8783    23.6716   101.8246 </r>
       <r>    -3.7787    28.8140   104.6923 </r>
       <r>    -3.6792    23.5950   107.0406 </r>
       <r>    -3.5797    26.9962   109.7275 </r>
       <r>    -3.4802    38.6299   113.5722 </r>
       <r>    -3.3806    44.5685   118.0079 </r>
       <r>    -3.2811    39.5793   121.9471 </r>
       <r>    -3.1816    25.1771   124.4529 </r>
       <r>    -3.0821    22.8482   126.7269 </r>
       <r>    -2.9825    17.5502   128.4736 </r>
       <r>    -2.8830     8.0046   129.2703 </r>
       <r>    -2.7835     3.8590   129.6544 </r>
       <r>    -2.6839     7.2057   130.3715 </r>
       <r>    -2.5844    11.9366   131.5596 </r>
       <r>    -2.4849     9.4039   132.4955 </r>
       <r>    -2.3854     8.2640   133.3180 </r>
       <r>    -2.2858     3.7372   133.6899 </r>
       <r>    -2.1863     4.9588   134.1835 </r>
       <r>    -2.0868     3.9580   134.5774 </r>
       <r>    -1.9873     7.2049   135.2945 </r>
       <r>    -1.8877     3.2207   135.6150 </r>
       <r>    -1.7882     2.8796   135.9016 </r>
       <r>    -1.6887     8.4924   136.7468 </r>
       <r>    -1.5892     6.1546   137.3594 </r>
       <r>    -1.4896     0.0945   137.3688 </r>
       <r>    -1.3901     1.0878   137.4770 </r>
       <r>    -1.2906     4.9288   137.9676 </r>
       <r>    -1.1910     7.7564   138.7396 </r>
       <r>    -1.0915     5.8451   139.3213 </r>
       <r>    -0.9920     5.5787   139.8765 </r>
       <r>    -0.8925     4.1767   140.2922 </r>
       <r>    -0.7929     2.3343   140.5245 </r>
       <r>    -0.6934     0.8726   140.6114 </r>
       <r>    -0.5939     6.5565   141.2639 </r>
       <r>    -0.4944     6.8229   141.9430 </r>
       <r>    -0.3948     2.4287   142.1847 </r>
       <r>    -0.2953     2.2637   142.4100 </r>
       <r>    -0.1958     5.4320   142.9507 </r>
       <r>    -0.0963     4.4896   143.3975 </r>
       <r>     0.0033     4.7421   143.8695 </r>
       <r>     0.1028     4.6323   144.3305 </r>
       <r>     0.2023     6.4432   144.9718 </r>
       <r>     0.3019     2.3702   145.2077 </r>
       <r>     0.4014     1.5297   145.3599 </r>
       <r>     0.5009     4.4585   145.8036 </r>
       <r>     0.6004     3.6551   146.1674 </r>
       <r>     0.7000     3.1445   146.4804 </r>
       <r>     0.7995     4.8191   146.9600 </r>
       <r>     0.8990     2.9133   147.2500 </r>
       <r>     0.9985     4.5625   147.7041 </r>
       <r>     1.0981     4.0099   148.1031 </r>
       <r>     1.1976     4.9456   148.5954 </r>
       <r>     1.2971     3.3754   148.9313 </r>
[...]
        <r>  0.0000  0.0068  0.1386 </r>
        <r>  0.0173  0.0029  0.0575 </r>
        <r>  0.0173  0.0029  0.0575 </r>
        <r>  0.0173  0.0029  0.0575 </r>
        <r>  0.0004  0.0020  0.0768 </r>
        <r>  0.0004  0.0020  0.0768 </r>
        <r>  0.0000  0.0000  0.0077 </r>
        <r>  0.0004  0.0020  0.0768 </r>
        <r>  0.0058  0.0021  0.0263 </r>
        <r>  0.0058  0.0021  0.0263 </r>
        <r>  0.0058  0.0021  0.0263 </r>
        <r>  0.0119  0.0037  0.1152 </r>
        <r>  0.0000  0.0139  0.0000 </r>
       </set>
       <set comment="band 66">
        <r>  0.0000  0.0051  0.0120 </r>
        <r>  0.0189  0.0036  0.0362 </r>
        <r>  0.0189  0.0036  0.0362 </r>
        <r>  0.0189  0.0036  0.0362 </r>
        <r>  0.0000  0.0008  0.0649 </r>
        <r>  0.0000  0.0008  0.0649 </r>
        <r>  0.0001  0.0048  0.0000 </r>
        <r>  0.0000  0.0008  0.0649 </r>
        <r>  0.0206  0.0036  0.0839 </r>
        <r>  0.0206  0.0036  0.0839 </r>
        <r>  0.0206  0.0036  0.0839 </r>
        <r>  0.0000  0.0036  0.1323 </r>
        <r>  0.0000  0.0003  0.0000 </r>
       </set>
       <set comment="band 67">
        <r>  0.0422  0.0010  0.0208 </r>
        <r>  0.0047  0.0049  0.0489 </r>
        <r>  0.0047  0.0049  0.0489 </r>
        <r>  0.0047  0.0049  0.0489 </r>
        <r>  0.0001  0.0021  0.0311 </r>
        <r>  0.0001  0.0021  0.0311 </r>
        <r>  0.0000  0.0000  0.1402 </r>
        <r>  0.0001  0.0021  0.0311 </r>
        <r>  0.0157  0.0017  0.0720 </r>
        <r>  0.0157  0.0017  0.0720 </r>
        <r>  0.0157  0.0017  0.0720 </r>
        <r>  0.0000  0.0054  0.0300 </r>
        <r>  0.0052  0.0732  0.0000 </r>
       </set>
       <set comment="band 68">
        <r>  0.0000  0.0022  0.0416 </r>
        <r>  0.0132  0.0021  0.0152 </r>
        <r>  0.0132  0.0021  0.0152 </r>
        <r>  0.0132  0.0021  0.0152 </r>
        <r>  0.0000  0.0006  0.0457 </r>
        <r>  0.0000  0.0006  0.0457 </r>
        <r>  0.0193  0.0095  0.0109 </r>
        <r>  0.0000  0.0006  0.0457 </r>
        <r>  0.0007  0.0101  0.0950 </r>
        <r>  0.0007  0.0101  0.0950 </r>
        <r>  0.0007  0.0101  0.0950 </r>
        <r>  0.0000  0.0000  0.0629 </r>
        <r>  0.0000  0.1696  0.0000 </r>
       </set>
       <set comment="band 69">
        <r>  0.0000  0.0039  0.0069 </r>
        <r>  0.0168  0.0039  0.0185 </r>
        <r>  0.0168  0.0039  0.0185 </r>
        <r>  0.0168  0.0039  0.0185 </r>
        <r>  0.0108  0.0031  0.0215 </r>
        <r>  0.0108  0.0031  0.0215 </r>
        <r>  0.0000  0.0036  0.0124 </r>
        <r>  0.0108  0.0031  0.0215 </r>
        <r>  0.0083  0.0050  0.1187 </r>
        <r>  0.0083  0.0050  0.1187 </r>
        <r>  0.0083  0.0050  0.1187 </r>
        <r>  0.0268  0.0021  0.0120 </r>
        <r>  0.0000  0.1481  0.0000 </r>
       </set>
       <set comment="band 70">
        <r>  0.0452  0.0108  0.0217 </r>
        <r>  0.0056  0.0042  0.0208 </r>
        <r>  0.0056  0.0042  0.0208 </r>
        <r>  0.0056  0.0042  0.0208 </r>
        <r>  0.0273  0.0040  0.0202 </r>
        <r>  0.0273  0.0040  0.0202 </r>
        <r>  0.0000  0.0062  0.0098 </r>
        <r>  0.0273  0.0040  0.0202 </r>
        <r>  0.0007  0.0034  0.0902 </r>
        <r>  0.0007  0.0034  0.0902 </r>
        <r>  0.0007  0.0034  0.0902 </r>
        <r>  0.0000  0.0008  0.0261 </r>
        <r>  0.0015  0.1573  0.0000 </r>
       </set>
       <set comment="band 71">
        <r>  0.0000  0.0010  0.0278 </r>
        <r>  0.0148  0.0073  0.0154 </r>
        <r>  0.0148  0.0073  0.0154 </r>
        <r>  0.0148  0.0073  0.0154 </r>
        <r>  0.0324  0.0030  0.0213 </r>
        <r>  0.0324  0.0030  0.0213 </r>
        <r>  0.0000  0.0063  0.0073 </r>
        <r>  0.0324  0.0030  0.0213 </r>
        <r>  0.0001  0.0077  0.0391 </r>
        <r>  0.0001  0.0077  0.0391 </r>
        <r>  0.0001  0.0077  0.0391 </r>
        <r>  0.1267  0.0257  0.0102 </r>
        <r>  0.0000  0.0697  0.0000 </r>
       </set>
       <set comment="band 72">
        <r>  0.0000  0.0021  0.0290 </r>
        <r>  0.0195  0.0113  0.0232 </r>
        <r>  0.0195  0.0113  0.0232 </r>
        <r>  0.0195  0.0113  0.0232 </r>
        <r>  0.0179  0.0071  0.0075 </r>
        <r>  0.0179  0.0071  0.0075 </r>
        <r>  0.0553  0.0077  0.0707 </r>
        <r>  0.0179  0.0071  0.0075 </r>
        <r>  0.0200  0.0140  0.0322 </r>
        <r>  0.0200  0.0140  0.0322 </r>
        <r>  0.0200  0.0140  0.0322 </r>
        <r>  0.0000  0.0005  0.0290 </r>
        <r>  0.0000  0.0778  0.0000 </r>
       </set>
       <set comment="band 73">
        <r>  0.0063  0.0223  0.0078 </r>
        <r>  0.0066  0.0019  0.0141 </r>
        <r>  0.0066  0.0019  0.0141 </r>
        <r>  0.0066  0.0019  0.0141 </r>
        <r>  0.0160  0.0078  0.0147 </r>
        <r>  0.0160  0.0078  0.0147 </r>
        <r>  0.0000  0.0001  0.0139 </r>
        <r>  0.0160  0.0078  0.0147 </r>
        <r>  0.0469  0.0045  0.0504 </r>
        <r>  0.0469  0.0045  0.0504 </r>
        <r>  0.0469  0.0045  0.0504 </r>
        <r>  0.0000  0.0229  0.0036 </r>
        <r>  0.0246  0.1050  0.0000 </r>
       </set>
       <set comment="band 74">
        <r>  0.0000  0.0109  0.0155 </r>
        <r>  0.0001  0.0101  0.0227 </r>
        <r>  0.0001  0.0101  0.0227 </r>
        <r>  0.0001  0.0101  0.0227 </r>
        <r>  0.1106  0.0001  0.0124 </r>
        <r>  0.1106  0.0001  0.0124 </r>
        <r>  0.1357  0.0039  0.0059 </r>
        <r>  0.1106  0.0001  0.0124 </r>
        <r>  0.0000  0.0036  0.0165 </r>
        <r>  0.0000  0.0036  0.0165 </r>
        <r>  0.0000  0.0036  0.0165 </r>
        <r>  0.0000  0.0124  0.0205 </r>
        <r>  0.0000  0.0105  0.0000 </r>
       </set>
       <set comment="band 75">
        <r>  0.1318  0.0004  0.0109 </r>
        <r>  0.1172  0.0010  0.0137 </r>
        <r>  0.1172  0.0010  0.0137 </r>
        <r>  0.1172  0.0010  0.0137 </r>
        <r>  0.0003  0.0146  0.0222 </r>
        <r>  0.0003  0.0146  0.0222 </r>
        <r>  0.0000  0.0141  0.0251 </r>
        <r>  0.0003  0.0146  0.0222 </r>
        <r>  0.0013  0.0013  0.0035 </r>
        <r>  0.0013  0.0013  0.0035 </r>
        <r>  0.0013  0.0013  0.0035 </r>
        <r>  0.0000  0.0006  0.0058 </r>
        <r>  0.0013  0.0033  0.0000 </r>
       </set>
       <set comment="band 76">
        <r>  0.0000  0.0067  0.0070 </r>
        <r>  0.0001  0.0087  0.0103 </r>
        <r>  0.0001  0.0087  0.0103 </r>
        <r>  0.0001  0.0087  0.0103 </r>
        <r>  0.0002  0.0293  0.0260 </r>
        <r>  0.0002  0.0293  0.0260 </r>
        <r>  0.0000  0.0291  0.0423 </r>
        <r>  0.0002  0.0293  0.0260 </r>
        <r>  0.0703  0.0100  0.0154 </r>
        <r>  0.0703  0.0100  0.0154 </r>
        <r>  0.0703  0.0100  0.0154 </r>
        <r>  0.0449  0.0003  0.0119 </r>
        <r>  0.0000  0.0507  0.0000 </r>
       </set>
       <set comment="band 77">
        <r>  0.0000  0.0037  0.0190 </r>
        <r>  0.0000  0.0267  0.0109 </r>
        <r>  0.0000  0.0267  0.0109 </r>
        <r>  0.0000  0.0267  0.0109 </r>
        <r>  0.0018  0.0150  0.0161 </r>
        <r>  0.0018  0.0150  0.0161 </r>
        <r>  0.0042  0.0307  0.0006 </r>
        <r>  0.0018  0.0150  0.0161 </r>
        <r>  0.0004  0.0362  0.0195 </r>
        <r>  0.0004  0.0361  0.0195 </r>
        <r>  0.0004  0.0361  0.0195 </r>
        <r>  0.0000  0.0042  0.0124 </r>
        <r>  0.0000  0.0178  0.0000 </r>
       </set>
       <set comment="band 78">
        <r>  0.0000  0.0040  0.0274 </r>
        <r>  0.0000  0.0326  0.0089 </r>
        <r>  0.0000  0.0326  0.0089 </r>
        <r>  0.0000  0.0326  0.0089 </r>
        <r>  0.0002  0.0309  0.0144 </r>
        <r>  0.0002  0.0309  0.0144 </r>
        <r>  0.0000  0.0035  0.0164 </r>
        <r>  0.0002  0.0309  0.0144 </r>
        <r>  0.0010  0.0028  0.0128 </r>
        <r>  0.0010  0.0028  0.0128 </r>
        <r>  0.0010  0.0028  0.0128 </r>
        <r>  0.0002  0.0735  0.0000 </r>
        <r>  0.0000  0.0105  0.0000 </r>
       </set>
       <set comment="band 79">
        <r>  0.0093  0.0535  0.0015 </r>
        <r>  0.0023  0.0116  0.0129 </r>
        <r>  0.0023  0.0116  0.0129 </r>
        <r>  0.0023  0.0116  0.0129 </r>
        <r>  0.0025  0.0272  0.0140 </r>
        <r>  0.0025  0.0272  0.0140 </r>
        <r>  0.0000  0.0000  0.0094 </r>
        <r>  0.0025  0.0272  0.0140 </r>
        <r>  0.0089  0.0241  0.0094 </r>
        <r>  0.0089  0.0241  0.0094 </r>
        <r>  0.0089  0.0241  0.0094 </r>
        <r>  0.0000  0.0022  0.0302 </r>
        <r>  0.0069  0.0011  0.0000 </r>
       </set>
       <set comment="band 80">
        <r>  0.0000  0.0364  0.0271 </r>
        <r>  0.0009  0.0437  0.0259 </r>
        <r>  0.0009  0.0437  0.0259 </r>
        <r>  0.0009  0.0437  0.0259 </r>
        <r>  0.0008  0.0182  0.0011 </r>
        <r>  0.0008  0.0182  0.0011 </r>
        <r>  0.0167  0.0385  0.0022 </r>
        <r>  0.0008  0.0182  0.0011 </r>
        <r>  0.0001  0.0147  0.0286 </r>
        <r>  0.0001  0.0147  0.0286 </r>
        <r>  0.0001  0.0147  0.0286 </r>
        <r>  0.0000  0.0468  0.0145 </r>
        <r>  0.0000  0.0315  0.0000 </r>
       </set>
       <set comment="band 81">
        <r>  0.0141  0.0324  0.0006 </r>
        <r>  0.0280  0.0079  0.0005 </r>
        <r>  0.0280  0.0079  0.0005 </r>
        <r>  0.0280  0.0079  0.0005 </r>
        <r>  0.0016  0.0371  0.0258 </r>
        <r>  0.0016  0.0371  0.0258 </r>
        <r>  0.0000  0.0410  0.0217 </r>
        <r>  0.0016  0.0371  0.0258 </r>
        <r>  0.0063  0.0200  0.0092 </r>
        <r>  0.0063  0.0200  0.0092 </r>
        <r>  0.0063  0.0200  0.0092 </r>
        <r>  0.0000  0.0209  0.0306 </r>
        <r>  0.0092  0.0051  0.0000 </r>
       </set>
       <set comment="band 82">
        <r>  0.0000  0.0452  0.0286 </r>
        <r>  0.0003  0.0472  0.0283 </r>
        <r>  0.0003  0.0472  0.0283 </r>
        <r>  0.0003  0.0472  0.0283 </r>
        <r>  0.0010  0.0098  0.0172 </r>
        <r>  0.0010  0.0098  0.0172 </r>
        <r>  0.0000  0.0065  0.0136 </r>
        <r>  0.0010  0.0098  0.0172 </r>
        <r>  0.0541  0.0004  0.0044 </r>
        <r>  0.0541  0.0004  0.0044 </r>
        <r>  0.0541  0.0004  0.0044 </r>
        <r>  0.0224  0.0013  0.0015 </r>
        <r>  0.0000  0.0383  0.0000 </r>
       </set>
       <set comment="band 83">
        <r>  0.0000  0.0071  0.0010 </r>
        <r>  0.0097  0.0077  0.0070 </r>
        <r>  0.0097  0.0077  0.0070 </r>
        <r>  0.0097  0.0077  0.0070 </r>
        <r>  0.0092  0.0007  0.0023 </r>
        <r>  0.0093  0.0007  0.0023 </r>
        <r>  0.0265  0.0035  0.0076 </r>
        <r>  0.0092  0.0007  0.0023 </r>
        <r>  0.0084  0.0118  0.0054 </r>
        <r>  0.0083  0.0118  0.0054 </r>
        <r>  0.0083  0.0118  0.0054 </r>
        <r>  0.0000  0.0001  0.0025 </r>
        <r>  0.0000  0.0036  0.0000 </r>
       </set>
       <set comment="band 84">
        <r>  0.0000  0.0023  0.0012 </r>
        <r>  0.0095  0.0047  0.0057 </r>
        <r>  0.0095  0.0047  0.0057 </r>
        <r>  0.0095  0.0047  0.0057 </r>
        <r>  0.0139  0.0010  0.0045 </r>
        <r>  0.0139  0.0010  0.0045 </r>
        <r>  0.0000  0.0007  0.0007 </r>
        <r>  0.0139  0.0010  0.0045 </r>
        <r>  0.0002  0.0020  0.0032 </r>
        <r>  0.0002  0.0020  0.0032 </r>
        <r>  0.0002  0.0020  0.0032 </r>
        <r>  0.0269  0.0157  0.0068 </r>
        <r>  0.0000  0.0056  0.0000 </r>
       </set>
       <set comment="band 85">
        <r>  0.0260  0.0000  0.0090 </r>
        <r>  0.0012  0.0019  0.0016 </r>
        <r>  0.0012  0.0019  0.0016 </r>
        <r>  0.0012  0.0019  0.0016 </r>
        <r>  0.0099  0.0047  0.0035 </r>
        <r>  0.0099  0.0047  0.0035 </r>
        <r>  0.0000  0.0017  0.0032 </r>
        <r>  0.0099  0.0047  0.0035 </r>
        <r>  0.0009  0.0167  0.0025 </r>
        <r>  0.0009  0.0167  0.0025 </r>
        <r>  0.0009  0.0167  0.0025 </r>
        <r>  0.0000  0.0001  0.0043 </r>
        <r>  0.0024  0.0144  0.0000 </r>
       </set>
       <set comment="band 86">
        <r>  0.0000  0.0002  0.0009 </r>
        <r>  0.0000  0.0063  0.0010 </r>
        <r>  0.0000  0.0063  0.0010 </r>
        <r>  0.0000  0.0065  0.0010 </r>
        <r>  0.0020  0.0039  0.0008 </r>
        <r>  0.0020  0.0039  0.0008 </r>
        <r>  0.0000  0.0004  0.0013 </r>
        <r>  0.0020  0.0039  0.0008 </r>
        <r>  0.0014  0.0001  0.0008 </r>
        <r>  0.0015  0.0001  0.0008 </r>
        <r>  0.0015  0.0001  0.0008 </r>
        <r>  0.0070  0.0004  0.0025 </r>
        <r>  0.0000  0.0001  0.0000 </r>
       </set>
       <set comment="band 87">
        <r>  0.0000  0.0000  0.0011 </r>
        <r>  0.0001  0.0056  0.0005 </r>
        <r>  0.0001  0.0056  0.0005 </r>
        <r>  0.0001  0.0054  0.0005 </r>
        <r>  0.0006  0.0005  0.0007 </r>
        <r>  0.0007  0.0006  0.0007 </r>
        <r>  0.0067  0.0039  0.0011 </r>
        <r>  0.0006  0.0005  0.0007 </r>
        <r>  0.0029  0.0002  0.0014 </r>
        <r>  0.0028  0.0002  0.0014 </r>
        <r>  0.0028  0.0002  0.0014 </r>
        <r>  0.0000  0.0003  0.0005 </r>
        <r>  0.0000  0.0000  0.0000 </r>
       </set>
       <set comment="band 88">
        <r>  0.0063  0.0008  0.0015 </r>
        <r>  0.0000  0.0045  0.0002 </r>
        <r>  0.0000  0.0045  0.0002 </r>
        <r>  0.0000  0.0045  0.0002 </r>
        <r>  0.0024  0.0035  0.0034 </r>
        <r>  0.0024  0.0035  0.0034 </r>
        <r>  0.0000  0.0049  0.0020 </r>
        <r>  0.0024  0.0035  0.0034 </r>
        <r>  0.0004  0.0111  0.0029 </r>
        <r>  0.0004  0.0110  0.0029 </r>
        <r>  0.0004  0.0110  0.0029 </r>
        <r>  0.0000  0.0061  0.0060 </r>
        <r>  0.0002  0.0009  0.0000 </r>
       </set>
       <set comment="band 89">
        <r>  0.0000  0.0035  0.0047 </r>
        <r>  0.0022  0.0051  0.0030 </r>
        <r>  0.0022  0.0051  0.0030 </r>
        <r>  0.0019  0.0048  0.0029 </r>
        <r>  0.0005  0.0079  0.0034 </r>
        <r>  0.0006  0.0084  0.0034 </r>
        <r>  0.0000  0.0042  0.0017 </r>
        <r>  0.0005  0.0079  0.0034 </r>
        <r>  0.0014  0.0006  0.0009 </r>
        <r>  0.0016  0.0008  0.0009 </r>
        <r>  0.0016  0.0008  0.0009 </r>
        <r>  0.0016  0.0207  0.0003 </r>
        <r>  0.0000  0.0026  0.0000 </r>
       </set>
       <set comment="band 90">
        <r>  0.0000  0.0026  0.0013 </r>
        <r>  0.0014  0.0027  0.0018 </r>
        <r>  0.0014  0.0027  0.0018 </r>
        <r>  0.0020  0.0032  0.0022 </r>
        <r>  0.0012  0.0011  0.0010 </r>
        <r>  0.0018  0.0005  0.0009 </r>
        <r>  0.0011  0.0122  0.0001 </r>
        <r>  0.0012  0.0011  0.0010 </r>
        <r>  0.0024  0.0044  0.0027 </r>
        <r>  0.0013  0.0047  0.0024 </r>
        <r>  0.0013  0.0047  0.0024 </r>
        <r>  0.0000  0.0004  0.0007 </r>
        <r>  0.0000  0.0002  0.0000 </r>
       </set>
       <set comment="band 91">
        <r>  0.0000  0.0219  0.0000 </r>
        <r>  0.0006  0.0003  0.0008 </r>
        <r>  0.0006  0.0003  0.0008 </r>
        <r>  0.0002  0.0001  0.0005 </r>
        <r>  0.0027  0.0041  0.0034 </r>
        <r>  0.0021  0.0042  0.0035 </r>
        <r>  0.0000  0.0026  0.0010 </r>
        <r>  0.0027  0.0041  0.0034 </r>
        <r>  0.0019  0.0068  0.0028 </r>
        <r>  0.0028  0.0063  0.0031 </r>
        <r>  0.0028  0.0063  0.0031 </r>
        <r>  0.0000  0.0039  0.0049 </r>
        <r>  0.0019  0.0099  0.0000 </r>
       </set>
       <set comment="band 92">
        <r>  0.0000  0.0236  0.0140 </r>
        <r>  0.0003  0.0265  0.0159 </r>
        <r>  0.0003  0.0265  0.0159 </r>
        <r>  0.0003  0.0265  0.0159 </r>
        <r>  0.0000  0.0330  0.0161 </r>
        <r>  0.0000  0.0330  0.0161 </r>
        <r>  0.0000  0.0330  0.0155 </r>
        <r>  0.0000  0.0330  0.0161 </r>
        <r>  0.0201  0.0158  0.0024 </r>
        <r>  0.0201  0.0158  0.0024 </r>
        <r>  0.0201  0.0158  0.0024 </r>
        <r>  0.0054  0.0112  0.0001 </r>
        <r>  0.0000  0.0254  0.0000 </r>
       </set>
       <set comment="band 93">
        <r>  0.0002  0.0005  0.0000 </r>
        <r>  0.0008  0.0208  0.0007 </r>
        <r>  0.0008  0.0208  0.0007 </r>
        <r>  0.0008  0.0209  0.0007 </r>
        <r>  0.0015  0.0113  0.0110 </r>
        <r>  0.0015  0.0113  0.0110 </r>
        <r>  0.0000  0.0142  0.0095 </r>
        <r>  0.0015  0.0113  0.0110 </r>
        <r>  0.0077  0.0372  0.0070 </r>
        <r>  0.0077  0.0372  0.0070 </r>
        <r>  0.0077  0.0372  0.0070 </r>
        <r>  0.0000  0.0365  0.0274 </r>
        <r>  0.0073  0.0061  0.0000 </r>
       </set>
       <set comment="band 94">
        <r>  0.0000  0.0202  0.0110 </r>
        <r>  0.0003  0.0263  0.0166 </r>
        <r>  0.0003  0.0263  0.0166 </r>
        <r>  0.0003  0.0263  0.0166 </r>
        <r>  0.0330  0.0006  0.0025 </r>
        <r>  0.0330  0.0006  0.0025 </r>
        <r>  0.0078  0.0037  0.0000 </r>
        <r>  0.0330  0.0006  0.0025 </r>
        <r>  0.0002  0.0276  0.0186 </r>
        <r>  0.0002  0.0276  0.0186 </r>
        <r>  0.0002  0.0276  0.0186 </r>
        <r>  0.0000  0.0581  0.0163 </r>
        <r>  0.0000  0.0180  0.0000 </r>
       </set>
       <set comment="band 95">
        <r>  0.0000  0.0011  0.0090 </r>
        <r>  0.0016  0.0122  0.0007 </r>
        <r>  0.0016  0.0122  0.0007 </r>
        <r>  0.0016  0.0120  0.0007 </r>
        <r>  0.0001  0.0041  0.0014 </r>
        <r>  0.0001  0.0041  0.0014 </r>
        <r>  0.0476  0.0005  0.0010 </r>
        <r>  0.0001  0.0041  0.0014 </r>
        <r>  0.0050  0.0143  0.0013 </r>
        <r>  0.0049  0.0142  0.0013 </r>
        <r>  0.0049  0.0142  0.0013 </r>
        <r>  0.0000  0.0074  0.0099 </r>
        <r>  0.0000  0.0022  0.0000 </r>
       </set>
       <set comment="band 96">
        <r>  0.0000  0.0020  0.0004 </r>
        <r>  0.0083  0.0014  0.0025 </r>
        <r>  0.0083  0.0014  0.0025 </r>
        <r>  0.0082  0.0015  0.0025 </r>
        <r>  0.0077  0.0060  0.0015 </r>
        <r>  0.0076  0.0060  0.0015 </r>
        <r>  0.0000  0.0034  0.0004 </r>
        <r>  0.0077  0.0060  0.0015 </r>
        <r>  0.0003  0.0035  0.0014 </r>
        <r>  0.0003  0.0034  0.0014 </r>
        <r>  0.0003  0.0034  0.0014 </r>
        <r>  0.0006  0.0244  0.0001 </r>
        <r>  0.0000  0.0011  0.0000 </r>
       </set>
      </set>
     </set>
    </set>
   </array>
  </projected>
 </calculation>
 <structure name="finalpos" >
  <crystal>
   <varray name="basis" >
    <v>       5.88029999       0.00000000       0.00000000 </v>
    <v>       2.94015000       5.09248918       0.00000000 </v>
    <v>       0.00000000       0.00000000      24.80124484 </v>
   </varray>
   <i name="volume">    742.68230623 </i>
   <varray name="rec_basis" >
    <v>       0.17005935      -0.09818381       0.00000000 </v>
    <v>       0.00000000       0.19636762       0.00000000 </v>
    <v>       0.00000000       0.00000000       0.04032056 </v>
   </varray>
  </crystal>
  <varray name="positions" >
   <v>       0.16666667       0.16666667       0.40351343 </v>
   <v>       0.66698622       0.16602757       0.40195179 </v>
   <v>       0.16602757       0.66698622       0.40195179 </v>
   <v>       0.66698622       0.66698622       0.40195179 </v>
   <v>       0.83676353       0.33161824       0.49932906 </v>
   <v>       0.33161824       0.33161824       0.49932906 </v>
   <v>       0.83333333       0.83333333       0.50252501 </v>
   <v>       0.33161824       0.83676353       0.49932906 </v>
   <v>       0.98931101       0.98931101       0.60031121 </v>
   <v>       0.52137798       0.98931101       0.60031121 </v>
   <v>       0.98931101       0.52137798       0.60031121 </v>
   <v>       0.50000000       0.50000000       0.58976581 </v>
   <v>       0.16666667       0.16666667       0.64459867 </v>
  </varray>
 </structure>
</modeling>
