unknown system                          
           1
     5.880300    0.000000    0.000000
     2.940150    5.092489    0.000000
     0.000000    0.000000   24.801245
   Au   O 
  12   1
Direct configuration=     1
   0.16666667  0.16666667  0.40351343
   0.66698622  0.16602757  0.40195179
   0.16602757  0.66698622  0.40195179
   0.66698622  0.66698622  0.40195179
   0.83676353  0.33161824  0.49932906
   0.33161824  0.33161824  0.49932906
   0.83333333  0.83333333  0.50252501
   0.33161824  0.83676353  0.49932906
   0.98931101  0.98931101  0.60031121
   0.52137798  0.98931101  0.60031121
   0.98931101  0.52137798  0.60031121
   0.50000000  0.50000000  0.58976581
   0.16666667  0.16666667  0.64459867
