  12  12   1   0
  0.6189019E+02  0.5880300E-09  0.5880300E-09  0.2480125E-08  0.5000000E-15
  1.000000000000000E-004
  CAR 
 unknown system                          
      9.75447872    -10.74928389  301     -1.20739125      1.00000000
    -10.749  0.0000E+00  0.0000E+00
    -10.681  0.0000E+00  0.0000E+00
    -10.613 -0.3770E-32 -0.2577E-33
    -10.544 -0.2902E-27 -0.1983E-28
    -10.476 -0.8710E-23 -0.5953E-24
    -10.408 -0.1018E-18 -0.6958E-20
    -10.339 -0.4424E-15 -0.3024E-16
    -10.271 -0.7847E-12 -0.5366E-13
    -10.203 -0.5270E-09 -0.3607E-10
    -10.134 -0.1350E-06 -0.9262E-08
    -10.066 -0.1300E-04 -0.8979E-06
     -9.997 -0.4599E-03 -0.3233E-04
     -9.929 -0.5724E-02 -0.4235E-03
     -9.861 -0.2205E-01 -0.1931E-02
     -9.792  0.1621E-01 -0.8230E-03
     -9.724  0.3881E+00  0.2570E-01
     -9.656  0.1093E+01  0.1004E+00
     -9.587  0.9034E+00  0.1621E+00
     -9.519  0.5896E+00  0.2024E+00
     -9.451  0.1403E+01  0.2983E+00
     -9.382  0.1678E+01  0.4130E+00
     -9.314  0.7705E+00  0.4657E+00
     -9.246 -0.1394E-01  0.4647E+00
     -9.177  0.9640E+00  0.5306E+00
     -9.109  0.2284E+01  0.6867E+00
     -9.041  0.1439E+01  0.7851E+00
     -8.972  0.1038E+01  0.8560E+00
     -8.904  0.7549E+00  0.9076E+00
     -8.836  0.1491E-01  0.9086E+00
     -8.767  0.6339E+00  0.9520E+00
     -8.699  0.2504E+01  0.1123E+01
     -8.631  0.2725E+01  0.1309E+01
     -8.562  0.8811E+00  0.1370E+01
     -8.494  0.6576E+00  0.1415E+01
     -8.426  0.1007E+01  0.1483E+01
     -8.357  0.2157E+00  0.1498E+01
     -8.289  0.7038E+00  0.1546E+01
     -8.220  0.2901E+01  0.1744E+01
     -8.152  0.4089E+01  0.2024E+01
     -8.084  0.2969E+01  0.2227E+01
     -8.015  0.1453E+01  0.2326E+01
     -7.947  0.1804E+01  0.2449E+01
     -7.879  0.1835E+01  0.2575E+01
     -7.810  0.2838E+01  0.2769E+01
     -7.742  0.6566E+01  0.3218E+01
     -7.674  0.6510E+01  0.3662E+01
     -7.605  0.4912E+01  0.3998E+01
     -7.537  0.8403E+01  0.4572E+01
     -7.469  0.1171E+02  0.5373E+01
     -7.400  0.8128E+01  0.5928E+01
     -7.332  0.7311E+01  0.6428E+01
     -7.264  0.1409E+02  0.7391E+01
     -7.195  0.1415E+02  0.8358E+01
     -7.127  0.1047E+02  0.9074E+01
     -7.059  0.1372E+02  0.1001E+02
     -6.990  0.2130E+02  0.1147E+02
     -6.922  0.2517E+02  0.1319E+02
     -6.854  0.2456E+02  0.1487E+02
     -6.785  0.2907E+02  0.1685E+02
     -6.717  0.3643E+02  0.1934E+02
     -6.649  0.2955E+02  0.2136E+02
     -6.580  0.1758E+02  0.2256E+02
     -6.512  0.1564E+02  0.2363E+02
     -6.443  0.1678E+02  0.2478E+02
     -6.375  0.1214E+02  0.2561E+02
     -6.307  0.8787E+01  0.2621E+02
     -6.238  0.1184E+02  0.2702E+02
     -6.170  0.1455E+02  0.2801E+02
     -6.102  0.1702E+02  0.2918E+02
     -6.033  0.1725E+02  0.3036E+02
     -5.965  0.1186E+02  0.3117E+02
     -5.897  0.1107E+02  0.3192E+02
     -5.828  0.2637E+02  0.3373E+02
     -5.760  0.3913E+02  0.3640E+02
     -5.692  0.3220E+02  0.3860E+02
     -5.623  0.2244E+02  0.4013E+02
     -5.555  0.2611E+02  0.4192E+02
     -5.487  0.3783E+02  0.4450E+02
     -5.418  0.3791E+02  0.4709E+02
     -5.350  0.2495E+02  0.4880E+02
     -5.282  0.2267E+02  0.5035E+02
     -5.213  0.3175E+02  0.5252E+02
     -5.145  0.3621E+02  0.5499E+02
     -5.077  0.3773E+02  0.5757E+02
     -5.008  0.4009E+02  0.6031E+02
     -4.940  0.3814E+02  0.6292E+02
     -4.872  0.3550E+02  0.6535E+02
     -4.803  0.2869E+02  0.6731E+02
     -4.735  0.2489E+02  0.6901E+02
     -4.667  0.2868E+02  0.7097E+02
     -4.598  0.2935E+02  0.7297E+02
     -4.530  0.2614E+02  0.7476E+02
     -4.461  0.1816E+02  0.7600E+02
     -4.393  0.1274E+02  0.7687E+02
     -4.325  0.1960E+02  0.7821E+02
     -4.256  0.3591E+02  0.8067E+02
     -4.188  0.4377E+02  0.8366E+02
     -4.120  0.4263E+02  0.8657E+02
     -4.051  0.4540E+02  0.8967E+02
     -3.983  0.3814E+02  0.9228E+02
     -3.915  0.2578E+02  0.9404E+02
     -3.846  0.2264E+02  0.9559E+02
     -3.778  0.2234E+02  0.9712E+02
     -3.710  0.2404E+02  0.9876E+02
     -3.641  0.2895E+02  0.1007E+03
     -3.573  0.2518E+02  0.1025E+03
     -3.505  0.2305E+02  0.1040E+03
     -3.436  0.3131E+02  0.1062E+03
     -3.368  0.3482E+02  0.1086E+03
     -3.300  0.3491E+02  0.1109E+03
     -3.231  0.4829E+02  0.1142E+03
     -3.163  0.6001E+02  0.1183E+03
     -3.095  0.3761E+02  0.1209E+03
     -3.026  0.1994E+02  0.1223E+03
     -2.958  0.2174E+02  0.1238E+03
     -2.890  0.1902E+02  0.1251E+03
     -2.821  0.1584E+02  0.1261E+03
     -2.753  0.1190E+02  0.1270E+03
     -2.684  0.5237E+01  0.1273E+03
     -2.616  0.7844E+00  0.1274E+03
     -2.548  0.6824E+00  0.1274E+03
     -2.479  0.8376E+00  0.1275E+03
     -2.411  0.1387E-01  0.1275E+03
     -2.343  0.3204E-01  0.1275E+03
     -2.274  0.2043E+01  0.1276E+03
     -2.206  0.6730E+01  0.1281E+03
     -2.138  0.9623E+01  0.1287E+03
     -2.069  0.8415E+01  0.1293E+03
     -2.001  0.6228E+01  0.1297E+03
     -1.933  0.4147E+01  0.1300E+03
     -1.864  0.2304E+01  0.1302E+03
     -1.796  0.2138E+01  0.1303E+03
     -1.728  0.1591E+01  0.1304E+03
     -1.659  0.2730E+00  0.1304E+03
     -1.591  0.1431E+01  0.1305E+03
     -1.523  0.3105E+01  0.1308E+03
     -1.454  0.1833E+01  0.1309E+03
     -1.386  0.4718E+00  0.1309E+03
     -1.318  0.1394E+01  0.1310E+03
     -1.249  0.6578E+01  0.1315E+03
     -1.181  0.1358E+02  0.1324E+03
     -1.113  0.1194E+02  0.1332E+03
     -1.044  0.5433E+01  0.1336E+03
     -0.976  0.2748E+01  0.1338E+03
     -0.907  0.2207E+01  0.1339E+03
     -0.839  0.2544E+01  0.1341E+03
     -0.771  0.1776E+01  0.1342E+03
     -0.702  0.1882E+01  0.1343E+03
     -0.634  0.3364E+01  0.1346E+03
     -0.566  0.2927E+01  0.1348E+03
     -0.497  0.2985E+01  0.1350E+03
     -0.429  0.2040E+01  0.1351E+03
     -0.361  0.2971E+00  0.1351E+03
     -0.292  0.4164E+00  0.1352E+03
     -0.224  0.2817E+01  0.1354E+03
     -0.156  0.9051E+01  0.1360E+03
     -0.087  0.1486E+02  0.1370E+03
     -0.019  0.1145E+02  0.1378E+03
      0.049  0.5121E+01  0.1381E+03
      0.118  0.2439E+01  0.1383E+03
      0.186  0.2693E+01  0.1385E+03
      0.254  0.2332E+01  0.1386E+03
      0.323  0.1022E+01  0.1387E+03
      0.391  0.9668E+00  0.1388E+03
      0.459  0.1018E+01  0.1388E+03
      0.528  0.1572E+01  0.1389E+03
      0.596  0.2766E+01  0.1391E+03
      0.664  0.1613E+01  0.1392E+03
      0.733  0.1307E+01  0.1393E+03
      0.801  0.6580E+01  0.1398E+03
      0.870  0.9347E+01  0.1404E+03
      0.938  0.6747E+01  0.1409E+03
      1.006  0.6052E+01  0.1413E+03
      1.075  0.8447E+01  0.1419E+03
      1.143  0.6138E+01  0.1423E+03
      1.211  0.1641E+01  0.1424E+03
      1.280  0.1661E+01  0.1425E+03
      1.348  0.3958E+01  0.1428E+03
      1.416  0.3818E+01  0.1431E+03
      1.485  0.1311E+01  0.1431E+03
      1.553  0.8586E-01  0.1431E+03
      1.621  0.1371E+01  0.1432E+03
      1.690  0.2746E+01  0.1434E+03
      1.758  0.4262E+01  0.1437E+03
      1.826  0.6802E+01  0.1442E+03
      1.895  0.5150E+01  0.1445E+03
      1.963  0.1229E+01  0.1446E+03
      2.031  0.2676E+00  0.1446E+03
      2.100  0.2780E+01  0.1448E+03
      2.168  0.6269E+01  0.1453E+03
      2.236  0.9588E+01  0.1459E+03
      2.305  0.8720E+01  0.1465E+03
      2.373  0.4849E+01  0.1468E+03
      2.441  0.2688E+01  0.1470E+03
      2.510  0.1012E+01  0.1471E+03
      2.578  0.2993E+01  0.1473E+03
      2.647  0.6126E+01  0.1477E+03
      2.715  0.5142E+01  0.1481E+03
      2.783  0.2998E+01  0.1483E+03
      2.852  0.3440E+01  0.1485E+03
      2.920  0.5296E+01  0.1489E+03
      2.988  0.5252E+01  0.1492E+03
      3.057  0.4126E+01  0.1495E+03
      3.125  0.7119E+01  0.1500E+03
      3.193  0.7233E+01  0.1505E+03
      3.262  0.4002E+01  0.1508E+03
      3.330  0.2351E+01  0.1509E+03
      3.398  0.1424E+01  0.1510E+03
      3.467  0.3654E+01  0.1513E+03
      3.535  0.4642E+01  0.1516E+03
      3.603  0.3098E+01  0.1518E+03
      3.672  0.3280E+01  0.1520E+03
      3.740  0.7343E+01  0.1525E+03
      3.808  0.1307E+02  0.1534E+03
      3.877  0.1205E+02  0.1542E+03
      3.945  0.6154E+01  0.1547E+03
      4.013  0.3852E+01  0.1549E+03
      4.082  0.4012E+01  0.1552E+03
      4.150  0.8030E+01  0.1557E+03
      4.218  0.1130E+02  0.1565E+03
      4.287  0.8565E+01  0.1571E+03
      4.355  0.6722E+01  0.1576E+03
      4.424  0.5747E+01  0.1580E+03
      4.492  0.8530E+01  0.1585E+03
      4.560  0.1163E+02  0.1593E+03
      4.629  0.1075E+02  0.1601E+03
      4.697  0.8694E+01  0.1607E+03
      4.765  0.5251E+01  0.1610E+03
      4.834  0.6025E+01  0.1614E+03
      4.902  0.8918E+01  0.1620E+03
      4.970  0.8461E+01  0.1626E+03
      5.039  0.8003E+01  0.1632E+03
      5.107  0.7570E+01  0.1637E+03
      5.175  0.6539E+01  0.1641E+03
      5.244  0.6663E+01  0.1646E+03
      5.312  0.7130E+01  0.1651E+03
      5.380  0.8221E+01  0.1656E+03
      5.449  0.1101E+02  0.1664E+03
      5.517  0.1648E+02  0.1675E+03
      5.585  0.1544E+02  0.1686E+03
      5.654  0.6363E+01  0.1690E+03
      5.722  0.2022E+01  0.1691E+03
      5.790  0.4998E+01  0.1695E+03
      5.859  0.7957E+01  0.1700E+03
      5.927  0.1013E+02  0.1707E+03
      5.995  0.1498E+02  0.1717E+03
      6.064  0.1594E+02  0.1728E+03
      6.132  0.1206E+02  0.1737E+03
      6.200  0.1141E+02  0.1744E+03
      6.269  0.9402E+01  0.1751E+03
      6.337  0.2981E+01  0.1753E+03
      6.406  0.2365E+01  0.1755E+03
      6.474  0.8706E+01  0.1760E+03
      6.542  0.1360E+02  0.1770E+03
      6.611  0.1720E+02  0.1782E+03
      6.679  0.1857E+02  0.1794E+03
      6.747  0.1243E+02  0.1803E+03
      6.816  0.8215E+01  0.1808E+03
      6.884  0.8377E+01  0.1814E+03
      6.952  0.5812E+01  0.1818E+03
      7.021  0.3548E+01  0.1820E+03
      7.089  0.9013E+01  0.1827E+03
      7.157  0.1490E+02  0.1837E+03
      7.226  0.1469E+02  0.1847E+03
      7.294  0.1051E+02  0.1854E+03
      7.362  0.1150E+02  0.1862E+03
      7.431  0.1537E+02  0.1872E+03
      7.499  0.1353E+02  0.1882E+03
      7.567  0.1328E+02  0.1891E+03
      7.636  0.1142E+02  0.1898E+03
      7.704  0.1072E+02  0.1906E+03
      7.772  0.1010E+02  0.1913E+03
      7.841  0.4062E+01  0.1915E+03
      7.909  0.1418E+00  0.1916E+03
      7.977  0.9110E+00  0.1916E+03
      8.046  0.1841E+01  0.1917E+03
      8.114  0.1121E+01  0.1918E+03
      8.183  0.1246E+00  0.1918E+03
      8.251 -0.1123E+00  0.1918E+03
      8.319  0.6314E-02  0.1918E+03
      8.388  0.7051E+00  0.1919E+03
      8.456  0.1154E+01  0.1920E+03
      8.524  0.4101E+00  0.1920E+03
      8.593 -0.5167E-01  0.1920E+03
      8.661 -0.2516E-01  0.1920E+03
      8.729  0.1100E+00  0.1920E+03
      8.798  0.1936E+00  0.1920E+03
      8.866  0.7336E-01  0.1920E+03
      8.934 -0.6801E-02  0.1920E+03
      9.003 -0.4781E-02  0.1920E+03
      9.071 -0.4403E-03  0.1920E+03
      9.139 -0.1285E-04  0.1920E+03
      9.208 -0.1346E-06  0.1920E+03
      9.276 -0.5266E-09  0.1920E+03
      9.344 -0.7845E-12  0.1920E+03
      9.413 -0.4813E-15  0.1920E+03
      9.481  0.0000E+00  0.1920E+03
      9.549  0.0000E+00  0.1920E+03
      9.618  0.0000E+00  0.1920E+03
      9.686  0.0000E+00  0.1920E+03
      9.754  0.0000E+00  0.1920E+03
      9.75447872    -10.74928389  301     -1.20739125      1.00000000
    -10.749  0.0000E+00  0.0000E+00  0.0000E+00
    -10.681  0.0000E+00  0.0000E+00  0.0000E+00
    -10.613 -0.1041E-33 -0.7075E-35 -0.2464E-36
    -10.544 -0.8015E-29 -0.5446E-30 -0.1896E-31
    -10.476 -0.2406E-24 -0.1634E-25 -0.5692E-27
    -10.408 -0.2812E-20 -0.1910E-21 -0.6653E-23
    -10.339 -0.1222E-16 -0.8301E-18 -0.2891E-19
    -10.271 -0.2167E-13 -0.1473E-14 -0.5130E-16
    -10.203 -0.1456E-10 -0.9891E-12 -0.3448E-13
    -10.134 -0.3728E-08 -0.2534E-09 -0.8859E-11
    -10.066 -0.3591E-06 -0.2443E-07 -0.8626E-09
     -9.997 -0.1270E-04 -0.8666E-06 -0.3176E-07
     -9.929 -0.1579E-03 -0.1091E-04 -0.4560E-06
     -9.861 -0.6059E-03 -0.4415E-04 -0.2768E-05
     -9.792  0.4596E-03  0.2004E-04 -0.3934E-05
     -9.724  0.1068E-01  0.7623E-03  0.4149E-04
     -9.656  0.2999E-01  0.2216E-02  0.1486E-03
     -9.587  0.2479E-01  0.1837E-02  0.1228E-03
     -9.519  0.1597E-01  0.1363E-02  0.1859E-03
     -9.451  0.3776E-01  0.3447E-02  0.5943E-03
     -9.382  0.4500E-01  0.4222E-02  0.8073E-03
     -9.314  0.2065E-01  0.1954E-02  0.3763E-03
     -9.246 -0.3386E-03 -0.5701E-04 -0.3481E-04
     -9.177  0.2502E-01  0.2967E-02  0.1091E-02
     -9.109  0.5938E-01  0.6965E-02  0.2506E-02
     -9.041  0.3723E-01  0.4463E-02  0.1742E-02
     -8.972  0.2634E-01  0.3458E-02  0.1756E-02
     -8.904  0.1916E-01  0.2508E-02  0.1262E-02
     -8.836  0.4743E-03  0.1188E-04 -0.8066E-04
     -8.767  0.1552E-01  0.2412E-02  0.1667E-02
     -8.699  0.6093E-01  0.9530E-02  0.7058E-02
     -8.631  0.6598E-01  0.1041E-01  0.8024E-02
     -8.562  0.2117E-01  0.3393E-02  0.2793E-02
     -8.494  0.1480E-01  0.2679E-02  0.3265E-02
     -8.426  0.2283E-01  0.4057E-02  0.4709E-02
     -8.357  0.4682E-02  0.8671E-03  0.6503E-03
     -8.289  0.1494E-01  0.3287E-02  0.3698E-02
     -8.220  0.6641E-01  0.1254E-01  0.1925E-01
     -8.152  0.1087E+00  0.1539E-01  0.3644E-01
     -8.084  0.1007E+00  0.8420E-02  0.3620E-01
     -8.015  0.5060E-01  0.3673E-02  0.2093E-01
     -7.947  0.6274E-01  0.5104E-02  0.2602E-01
     -7.879  0.9311E-01  0.3164E-02  0.3218E-01
     -7.810  0.9939E-01  0.7608E-02  0.5007E-01
     -7.742  0.1221E+00  0.2412E-01  0.1062E+00
     -7.674  0.1210E+00  0.2367E-01  0.1076E+00
     -7.605  0.1419E+00  0.1284E-01  0.9512E-01
     -7.537  0.1559E+00  0.1530E-01  0.1680E+00
     -7.469  0.1316E+00  0.2167E-01  0.2197E+00
     -7.400  0.8276E-01  0.1886E-01  0.1465E+00
     -7.332  0.7475E-01  0.2051E-01  0.1583E+00
     -7.264  0.1929E+00  0.3284E-01  0.3622E+00
     -7.195  0.2537E+00  0.2844E-01  0.4447E+00
     -7.127  0.1755E+00  0.1813E-01  0.4028E+00
     -7.059  0.1472E+00  0.2552E-01  0.5001E+00
     -6.990  0.2309E+00  0.4419E-01  0.7231E+00
     -6.922  0.2832E+00  0.5677E-01  0.8943E+00
     -6.854  0.2225E+00  0.5488E-01  0.9352E+00
     -6.785  0.2155E+00  0.6365E-01  0.1119E+01
     -6.717  0.2624E+00  0.7844E-01  0.1421E+01
     -6.649  0.1821E+00  0.5745E-01  0.1270E+01
     -6.580  0.7208E-01  0.2964E-01  0.8728E+00
     -6.512  0.4887E-01  0.2489E-01  0.9408E+00
     -6.443  0.4196E-01  0.2432E-01  0.9598E+00
     -6.375  0.2824E-01  0.1486E-01  0.6293E+00
     -6.307  0.2623E-01  0.8718E-02  0.5368E+00
     -6.238  0.3565E-01  0.1646E-01  0.7576E+00
     -6.170  0.3644E-01  0.2319E-01  0.8941E+00
     -6.102  0.3430E-01  0.2601E-01  0.1047E+01
     -6.033  0.2539E-01  0.2702E-01  0.9989E+00
     -5.965  0.7231E-02  0.1755E-01  0.5496E+00
     -5.897  0.1534E-01  0.1249E-01  0.5076E+00
     -5.828  0.5819E-01  0.3070E-01  0.1576E+01
     -5.760  0.6544E-01  0.4410E-01  0.2642E+01
     -5.692  0.2765E-01  0.3495E-01  0.2298E+01
     -5.623  0.2082E-01  0.2593E-01  0.1543E+01
     -5.555  0.3300E-01  0.2764E-01  0.1699E+01
     -5.487  0.3859E-01  0.3867E-01  0.2443E+01
     -5.418  0.3293E-01  0.3926E-01  0.2499E+01
     -5.350  0.2639E-01  0.2456E-01  0.1657E+01
     -5.282  0.4721E-01  0.2645E-01  0.1482E+01
     -5.213  0.8886E-01  0.5396E-01  0.2256E+01
     -5.145  0.8632E-01  0.5673E-01  0.2609E+01
     -5.077  0.5289E-01  0.3855E-01  0.2787E+01
     -5.008  0.4077E-01  0.3441E-01  0.3310E+01
     -4.940  0.2690E-01  0.3282E-01  0.3187E+01
     -4.872  0.1743E-01  0.2998E-01  0.2663E+01
     -4.803  0.2402E-01  0.2992E-01  0.2080E+01
     -4.735  0.5314E-01  0.6084E-01  0.2011E+01
     -4.667  0.9175E-01  0.9047E-01  0.2449E+01
     -4.598  0.1073E+00  0.8126E-01  0.2522E+01
     -4.530  0.1048E+00  0.7183E-01  0.2191E+01
     -4.461  0.6250E-01  0.5217E-01  0.1472E+01
     -4.393  0.2580E-01  0.3554E-01  0.1069E+01
     -4.325  0.4027E-01  0.3894E-01  0.1688E+01
     -4.256  0.7055E-01  0.5858E-01  0.3188E+01
     -4.188  0.7178E-01  0.5554E-01  0.3841E+01
     -4.120  0.5183E-01  0.3573E-01  0.3650E+01
     -4.051  0.5003E-01  0.4622E-01  0.3937E+01
     -3.983  0.4916E-01  0.6300E-01  0.3378E+01
     -3.915  0.3749E-01  0.6628E-01  0.2250E+01
     -3.846  0.2980E-01  0.5256E-01  0.1880E+01
     -3.778  0.2520E-01  0.2948E-01  0.1823E+01
     -3.710  0.2026E-01  0.1964E-01  0.1920E+01
     -3.641  0.1246E-01  0.2488E-01  0.2251E+01
     -3.573  0.8089E-02  0.2406E-01  0.1899E+01
     -3.505  0.1486E-01  0.2382E-01  0.1741E+01
     -3.436  0.3321E-01  0.3536E-01  0.2403E+01
     -3.368  0.5322E-01  0.3686E-01  0.2510E+01
     -3.300  0.5233E-01  0.2808E-01  0.2580E+01
     -3.231  0.6371E-01  0.3079E-01  0.3859E+01
     -3.163  0.9226E-01  0.3764E-01  0.4594E+01
     -3.095  0.6498E-01  0.2254E-01  0.2653E+01
     -3.026  0.1425E-01  0.7522E-02  0.1337E+01
     -2.958  0.1749E-01  0.1670E-01  0.1505E+01
     -2.890  0.8108E-01  0.4186E-01  0.1356E+01
     -2.821  0.1306E+00  0.5289E-01  0.1204E+01
     -2.753  0.8361E-01  0.3608E-01  0.9832E+00
     -2.684  0.2217E-01  0.1334E-01  0.4592E+00
     -2.616  0.2521E-02  0.2742E-02  0.6504E-01
     -2.548  0.1289E-01  0.8292E-02  0.7174E-02
     -2.479  0.1315E-01  0.8302E-02  0.2303E-01
     -2.411 -0.4143E-03 -0.1298E-04 -0.5595E-03
     -2.343 -0.2036E-02 -0.4816E-03  0.3103E-03
     -2.274  0.3956E-01  0.2159E-01  0.7319E-01
     -2.206  0.1432E+00  0.7233E-01  0.2682E+00
     -2.138  0.1661E+00  0.8928E-01  0.4362E+00
     -2.069  0.8397E-01  0.5859E-01  0.4360E+00
     -2.001  0.5777E-01  0.4398E-01  0.3128E+00
     -1.933  0.6266E-01  0.4066E-01  0.1606E+00
     -1.864  0.3566E-01  0.2402E-01  0.7726E-01
     -1.796  0.2295E-01  0.2403E-01  0.7139E-01
     -1.728  0.1655E-01  0.1826E-01  0.5328E-01
     -1.659  0.3334E-02  0.2706E-02  0.9728E-02
     -1.591  0.2240E-01  0.1062E-01  0.5356E-01
     -1.523  0.4785E-01  0.2381E-01  0.1148E+00
     -1.454  0.2772E-01  0.1355E-01  0.6718E-01
     -1.386  0.5316E-02  0.1202E-02  0.1524E-01
     -1.318  0.3101E-01  0.1642E-01  0.5074E-01
     -1.249  0.1503E+00  0.9518E-01  0.2488E+00
     -1.181  0.2520E+00  0.1672E+00  0.5030E+00
     -1.113  0.1759E+00  0.1169E+00  0.4321E+00
     -1.044  0.6758E-01  0.4875E-01  0.1803E+00
     -0.976  0.2290E-01  0.3791E-01  0.7525E-01
     -0.907  0.2112E-01  0.3645E-01  0.5480E-01
     -0.839  0.3658E-01  0.5429E-01  0.4959E-01
     -0.771  0.2517E-01  0.4622E-01  0.2750E-01
     -0.702  0.3190E-01  0.2425E-01  0.4432E-01
     -0.634  0.6248E-01  0.2960E-01  0.9051E-01
     -0.566  0.5604E-01  0.2645E-01  0.7630E-01
     -0.497  0.4667E-01  0.3837E-01  0.6073E-01
     -0.429  0.1842E-01  0.3798E-01  0.2700E-01
     -0.361 -0.2460E-02  0.1024E-01 -0.3214E-02
     -0.292  0.8545E-02  0.2747E-03  0.6657E-02
     -0.224  0.5282E-01  0.1929E-01  0.8229E-01
     -0.156  0.1749E+00  0.1342E+00  0.2754E+00
     -0.087  0.2603E+00  0.2811E+00  0.3987E+00
     -0.019  0.1726E+00  0.2113E+00  0.2522E+00
      0.049  0.7513E-01  0.7554E-01  0.8827E-01
      0.118  0.2820E-01  0.3899E-01  0.3275E-01
      0.186  0.3805E-01  0.4330E-01  0.3947E-01
      0.254  0.4307E-01  0.3570E-01  0.4117E-01
      0.323  0.1363E-01  0.2232E-01  0.1991E-01
      0.391  0.3583E-03  0.2415E-01  0.1372E-01
      0.459  0.5378E-02  0.2136E-01  0.1310E-01
      0.528  0.2025E-01  0.2810E-01  0.2004E-01
      0.596  0.1609E-01  0.5803E-01  0.3362E-01
      0.664 -0.4042E-02  0.4052E-01  0.1697E-01
      0.733  0.1579E-01  0.2020E-01  0.2245E-01
      0.801  0.1132E+00  0.8464E-01  0.1237E+00
      0.870  0.1566E+00  0.1339E+00  0.1717E+00
      0.938  0.1190E+00  0.1040E+00  0.1213E+00
      1.006  0.1351E+00  0.9407E-01  0.1317E+00
      1.075  0.1864E+00  0.1660E+00  0.1890E+00
      1.143  0.1120E+00  0.1358E+00  0.1120E+00
      1.211  0.1021E-01  0.4181E-01  0.1426E-01
      1.280  0.1348E-01  0.2685E-01  0.2444E-01
      1.348  0.5227E-01  0.5590E-01  0.6936E-01
      1.416  0.3279E-01  0.6600E-01  0.6062E-01
      1.485  0.7403E-03  0.2918E-01  0.1749E-01
      1.553 -0.2578E-02  0.8416E-03  0.1590E-02
      1.621  0.1034E-02  0.2708E-01  0.1894E-01
      1.690  0.5209E-02  0.6075E-01  0.3479E-01
      1.758  0.8782E-01  0.5991E-01  0.5718E-01
      1.826  0.2300E+00  0.5646E-01  0.9372E-01
      1.895  0.1724E+00  0.4511E-01  0.6960E-01
      1.963  0.3207E-01  0.1517E-01  0.1586E-01
      2.031 -0.1550E-01  0.1192E-01  0.2502E-02
      2.100  0.2565E-01  0.4964E-01  0.4013E-01
      2.168  0.1775E+00  0.7074E-01  0.1024E+00
      2.236  0.2785E+00  0.1130E+00  0.1613E+00
      2.305  0.1851E+00  0.1286E+00  0.1402E+00
      2.373  0.1320E+00  0.7212E-01  0.7452E-01
      2.441  0.1229E+00  0.3260E-01  0.4177E-01
      2.510  0.4643E-01  0.6204E-02  0.1334E-01
      2.578  0.7629E-01  0.2281E-01  0.4170E-01
      2.647  0.1760E+00  0.5902E-01  0.9358E-01
      2.715  0.2030E+00  0.5151E-01  0.8195E-01
      2.783  0.1312E+00  0.3399E-01  0.4662E-01
      2.852  0.6813E-01  0.4946E-01  0.4562E-01
      2.920  0.7061E-01  0.8905E-01  0.6253E-01
      2.988  0.6358E-01  0.9524E-01  0.5709E-01
      3.057  0.7285E-01  0.7765E-01  0.4620E-01
      3.125  0.1501E+00  0.1443E+00  0.9378E-01
      3.193  0.1380E+00  0.1553E+00  0.1025E+00
      3.262  0.1073E+00  0.8017E-01  0.6270E-01
      3.330  0.7826E-01  0.3905E-01  0.3725E-01
      3.398  0.2149E-01  0.2154E-01  0.1660E-01
      3.467  0.2649E-01  0.5237E-01  0.3477E-01
      3.535  0.2959E-01  0.6205E-01  0.4265E-01
      3.603  0.1117E-01  0.3157E-01  0.2391E-01
      3.672  0.2650E-01  0.3432E-01  0.2144E-01
      3.740  0.7870E-01  0.1554E+00  0.6657E-01
      3.808  0.1264E+00  0.2797E+00  0.1309E+00
      3.877  0.1404E+00  0.2116E+00  0.1248E+00
      3.945  0.8757E-01  0.8490E-01  0.6100E-01
      4.013  0.4063E-01  0.4692E-01  0.2934E-01
      4.082  0.3730E-01  0.5857E-01  0.2625E-01
      4.150  0.1016E+00  0.1069E+00  0.5129E-01
      4.218  0.1454E+00  0.1259E+00  0.7105E-01
      4.287  0.8698E-01  0.9852E-01  0.5751E-01
      4.355  0.3745E-01  0.8843E-01  0.5015E-01
      4.424  0.2138E-01  0.7385E-01  0.4323E-01
      4.492  0.5743E-01  0.1489E+00  0.8231E-01
      4.560  0.8516E-01  0.1898E+00  0.1029E+00
      4.629  0.6130E-01  0.1226E+00  0.7132E-01
      4.697  0.6128E-01  0.9548E-01  0.6146E-01
      4.765  0.7600E-01  0.7702E-01  0.3656E-01
      4.834  0.9168E-01  0.1102E+00  0.4163E-01
      4.902  0.6982E-01  0.1246E+00  0.5102E-01
      4.970  0.3911E-01  0.7686E-01  0.3299E-01
      5.039  0.4421E-01  0.7652E-01  0.3740E-01
      5.107  0.5335E-01  0.1052E+00  0.4162E-01
      5.175  0.4742E-01  0.9718E-01  0.3243E-01
      5.244  0.5602E-01  0.8011E-01  0.3573E-01
      5.312  0.6571E-01  0.7962E-01  0.4471E-01
      5.380  0.5446E-01  0.7969E-01  0.4447E-01
      5.449  0.4526E-01  0.1415E+00  0.6156E-01
      5.517  0.8506E-01  0.2487E+00  0.9733E-01
      5.585  0.9734E-01  0.2360E+00  0.8454E-01
      5.654  0.3614E-01  0.9080E-01  0.3078E-01
      5.722  0.3126E-02  0.5722E-02  0.4442E-02
      5.790  0.5344E-02  0.2388E-01  0.1506E-01
      5.859  0.1489E-01  0.7161E-01  0.2956E-01
      5.927  0.5545E-01  0.1337E+00  0.3784E-01
      5.995  0.1332E+00  0.2031E+00  0.5999E-01
      6.064  0.1673E+00  0.2267E+00  0.8033E-01
      6.132  0.1137E+00  0.1733E+00  0.6992E-01
      6.200  0.4795E-01  0.1024E+00  0.4389E-01
      6.269  0.2284E-01  0.5156E-01  0.2256E-01
      6.337  0.6107E-02  0.5148E-02  0.2376E-02
      6.406  0.6718E-02  0.2420E-01  0.1015E-01
      6.474  0.2829E-01  0.1396E+00  0.6396E-01
      6.542  0.4500E-01  0.2321E+00  0.1014E+00
      6.611  0.6256E-01  0.2312E+00  0.9440E-01
      6.679  0.9353E-01  0.1715E+00  0.8647E-01
      6.747  0.7002E-01  0.8787E-01  0.5609E-01
      6.816  0.2260E-01  0.4445E-01  0.2580E-01
      6.884  0.1952E-01  0.6953E-01  0.3176E-01
      6.952  0.1971E-01  0.6918E-01  0.2801E-01
      7.021  0.1246E-01  0.3760E-01  0.1243E-01
      7.089  0.5301E-01  0.8970E-01  0.3245E-01
      7.157  0.1168E+00  0.1955E+00  0.7741E-01
      7.226  0.1149E+00  0.2296E+00  0.8890E-01
      7.294  0.6906E-01  0.1706E+00  0.5683E-01
      7.362  0.6956E-01  0.1575E+00  0.4147E-01
      7.431  0.1038E+00  0.1821E+00  0.4249E-01
      7.499  0.7349E-01  0.1385E+00  0.2913E-01
      7.567  0.3294E-01  0.1123E+00  0.2746E-01
      7.636  0.2428E-01  0.1012E+00  0.4040E-01
      7.704  0.3121E-01  0.1244E+00  0.6036E-01
      7.772  0.2901E-01  0.1207E+00  0.4693E-01
      7.841  0.7949E-02  0.4092E-01  0.9963E-02
      7.909 -0.9664E-03 -0.6992E-04 -0.1763E-02
      7.977  0.4487E-03  0.8484E-02  0.4222E-03
      8.046  0.1023E-02  0.1280E-01  0.1657E-02
      8.114  0.3083E-03  0.5047E-02  0.8987E-03
      8.183 -0.1938E-04  0.1006E-03  0.7128E-04
      8.251 -0.2998E-04 -0.5828E-03 -0.1397E-03
      8.319  0.5552E-06  0.5999E-04  0.2891E-04
      8.388  0.1287E-03  0.3988E-02  0.1338E-02
      8.456  0.2105E-03  0.6522E-02  0.2187E-02
      8.524  0.7172E-04  0.2321E-02  0.7779E-03
      8.593 -0.3330E-04 -0.2713E-03 -0.9544E-04
      8.661  0.1701E-05 -0.1477E-03 -0.4837E-04
      8.729  0.4006E-03  0.2895E-03  0.1683E-03
      8.798  0.6907E-03  0.5215E-03  0.2975E-03
      8.866  0.2617E-03  0.1977E-03  0.1128E-03
      8.934 -0.2426E-04 -0.1833E-04 -0.1045E-04
      9.003 -0.1705E-04 -0.1288E-04 -0.7349E-05
      9.071 -0.1570E-05 -0.1186E-05 -0.6767E-06
      9.139 -0.4584E-07 -0.3463E-07 -0.1975E-07
      9.208 -0.4799E-09 -0.3626E-09 -0.2068E-09
      9.276 -0.1878E-11 -0.1419E-11 -0.8093E-12
      9.344 -0.2798E-14 -0.2114E-14 -0.1206E-14
      9.413 -0.1717E-17 -0.1297E-17 -0.7397E-18
      9.481  0.0000E+00  0.0000E+00  0.0000E+00
      9.549  0.0000E+00  0.0000E+00  0.0000E+00
      9.618  0.0000E+00  0.0000E+00  0.0000E+00
      9.686  0.0000E+00  0.0000E+00  0.0000E+00
      9.754  0.0000E+00  0.0000E+00  0.0000E+00
      9.75447872    -10.74928389  301     -1.20739125      1.00000000
    -10.749  0.0000E+00  0.0000E+00  0.0000E+00
    -10.681  0.0000E+00  0.0000E+00  0.0000E+00
    -10.613 -0.1041E-33 -0.7075E-35 -0.2464E-36
    -10.544 -0.8015E-29 -0.5446E-30 -0.1896E-31
    -10.476 -0.2406E-24 -0.1634E-25 -0.5692E-27
    -10.408 -0.2812E-20 -0.1910E-21 -0.6653E-23
    -10.339 -0.1222E-16 -0.8301E-18 -0.2891E-19
    -10.271 -0.2167E-13 -0.1473E-14 -0.5130E-16
    -10.203 -0.1456E-10 -0.9891E-12 -0.3448E-13
    -10.134 -0.3728E-08 -0.2534E-09 -0.8859E-11
    -10.066 -0.3591E-06 -0.2443E-07 -0.8626E-09
     -9.997 -0.1270E-04 -0.8666E-06 -0.3176E-07
     -9.929 -0.1579E-03 -0.1091E-04 -0.4560E-06
     -9.861 -0.6059E-03 -0.4415E-04 -0.2768E-05
     -9.792  0.4596E-03  0.2004E-04 -0.3934E-05
     -9.724  0.1068E-01  0.7623E-03  0.4149E-04
     -9.656  0.2999E-01  0.2216E-02  0.1486E-03
     -9.587  0.2479E-01  0.1838E-02  0.1228E-03
     -9.519  0.1597E-01  0.1363E-02  0.1859E-03
     -9.451  0.3776E-01  0.3446E-02  0.5943E-03
     -9.382  0.4500E-01  0.4222E-02  0.8073E-03
     -9.314  0.2065E-01  0.1954E-02  0.3763E-03
     -9.246 -0.3386E-03 -0.5701E-04 -0.3481E-04
     -9.177  0.2502E-01  0.2967E-02  0.1091E-02
     -9.109  0.5938E-01  0.6965E-02  0.2506E-02
     -9.041  0.3723E-01  0.4463E-02  0.1742E-02
     -8.972  0.2634E-01  0.3459E-02  0.1756E-02
     -8.904  0.1916E-01  0.2508E-02  0.1262E-02
     -8.836  0.4743E-03  0.1188E-04 -0.8066E-04
     -8.767  0.1552E-01  0.2412E-02  0.1667E-02
     -8.699  0.6093E-01  0.9530E-02  0.7058E-02
     -8.631  0.6598E-01  0.1041E-01  0.8024E-02
     -8.562  0.2117E-01  0.3393E-02  0.2793E-02
     -8.494  0.1480E-01  0.2679E-02  0.3265E-02
     -8.426  0.2283E-01  0.4057E-02  0.4709E-02
     -8.357  0.4682E-02  0.8671E-03  0.6503E-03
     -8.289  0.1494E-01  0.3287E-02  0.3698E-02
     -8.220  0.6641E-01  0.1254E-01  0.1925E-01
     -8.152  0.1087E+00  0.1539E-01  0.3644E-01
     -8.084  0.1007E+00  0.8420E-02  0.3620E-01
     -8.015  0.5060E-01  0.3673E-02  0.2093E-01
     -7.947  0.6274E-01  0.5104E-02  0.2602E-01
     -7.879  0.9311E-01  0.3164E-02  0.3218E-01
     -7.810  0.9939E-01  0.7608E-02  0.5007E-01
     -7.742  0.1221E+00  0.2412E-01  0.1062E+00
     -7.674  0.1210E+00  0.2367E-01  0.1076E+00
     -7.605  0.1419E+00  0.1284E-01  0.9512E-01
     -7.537  0.1559E+00  0.1530E-01  0.1680E+00
     -7.469  0.1316E+00  0.2167E-01  0.2197E+00
     -7.400  0.8276E-01  0.1886E-01  0.1465E+00
     -7.332  0.7475E-01  0.2051E-01  0.1583E+00
     -7.264  0.1929E+00  0.3284E-01  0.3622E+00
     -7.195  0.2537E+00  0.2844E-01  0.4447E+00
     -7.127  0.1755E+00  0.1813E-01  0.4028E+00
     -7.059  0.1472E+00  0.2552E-01  0.5001E+00
     -6.990  0.2309E+00  0.4419E-01  0.7231E+00
     -6.922  0.2832E+00  0.5677E-01  0.8943E+00
     -6.854  0.2225E+00  0.5488E-01  0.9352E+00
     -6.785  0.2155E+00  0.6365E-01  0.1119E+01
     -6.717  0.2624E+00  0.7844E-01  0.1421E+01
     -6.649  0.1821E+00  0.5745E-01  0.1270E+01
     -6.580  0.7208E-01  0.2964E-01  0.8728E+00
     -6.512  0.4887E-01  0.2489E-01  0.9408E+00
     -6.443  0.4196E-01  0.2432E-01  0.9598E+00
     -6.375  0.2824E-01  0.1486E-01  0.6293E+00
     -6.307  0.2623E-01  0.8718E-02  0.5368E+00
     -6.238  0.3565E-01  0.1646E-01  0.7576E+00
     -6.170  0.3644E-01  0.2319E-01  0.8941E+00
     -6.102  0.3430E-01  0.2601E-01  0.1047E+01
     -6.033  0.2539E-01  0.2702E-01  0.9989E+00
     -5.965  0.7231E-02  0.1755E-01  0.5496E+00
     -5.897  0.1534E-01  0.1249E-01  0.5076E+00
     -5.828  0.5819E-01  0.3070E-01  0.1576E+01
     -5.760  0.6544E-01  0.4410E-01  0.2642E+01
     -5.692  0.2765E-01  0.3495E-01  0.2298E+01
     -5.623  0.2082E-01  0.2593E-01  0.1543E+01
     -5.555  0.3300E-01  0.2764E-01  0.1699E+01
     -5.487  0.3859E-01  0.3867E-01  0.2443E+01
     -5.418  0.3293E-01  0.3926E-01  0.2499E+01
     -5.350  0.2639E-01  0.2456E-01  0.1657E+01
     -5.282  0.4721E-01  0.2645E-01  0.1482E+01
     -5.213  0.8886E-01  0.5396E-01  0.2256E+01
     -5.145  0.8632E-01  0.5673E-01  0.2609E+01
     -5.077  0.5289E-01  0.3855E-01  0.2787E+01
     -5.008  0.4077E-01  0.3441E-01  0.3310E+01
     -4.940  0.2690E-01  0.3282E-01  0.3187E+01
     -4.872  0.1743E-01  0.2998E-01  0.2663E+01
     -4.803  0.2402E-01  0.2992E-01  0.2080E+01
     -4.735  0.5314E-01  0.6084E-01  0.2011E+01
     -4.667  0.9175E-01  0.9047E-01  0.2449E+01