       N       E                     dE             d eps       ncg     rms          rms(c)
DAV:   1     0.747187916760E+03    0.74719E+03   -0.47813E+04  2304   0.917E+02
DAV:   2    -0.454365611065E+01   -0.75173E+03   -0.70152E+03  2832   0.207E+02
DAV:   3    -0.383466164314E+02   -0.33803E+02   -0.33161E+02  2832   0.445E+01
DAV:   4    -0.387787679029E+02   -0.43215E+00   -0.43203E+00  2808   0.547E+00
DAV:   5    -0.387853925109E+02   -0.66246E-02   -0.66244E-02  3192   0.651E-01    0.224E+01
DAV:   6    -0.360043064611E+02    0.27811E+01   -0.80797E+00  2688   0.103E+01    0.158E+01
DAV:   7    -0.358861598324E+02    0.11815E+00   -0.70860E-01  2592   0.324E+00    0.651E+00
DAV:   8    -0.358758154309E+02    0.10344E-01   -0.19175E-01  2688   0.274E+00    0.117E+00
DAV:   9    -0.358640421753E+02    0.11773E-01   -0.48057E-02  2640   0.146E+00    0.177E-01
DAV:  10    -0.358644799349E+02   -0.43776E-03   -0.31810E-03  2712   0.165E-01    0.713E-02
DAV:  11    -0.358648278802E+02   -0.34795E-03   -0.11864E-04  2376   0.411E-02    0.318E-02
DAV:  12    -0.358652427203E+02   -0.41484E-03   -0.61072E-05  1992   0.207E-02    0.112E-02
DAV:  13    -0.358653746934E+02   -0.13197E-03   -0.90936E-06  2040   0.688E-03    0.601E-03
DAV:  14    -0.358656871699E+02   -0.31248E-03   -0.48710E-05  1944   0.138E-02    0.557E-03
DAV:  15    -0.358657953470E+02   -0.10818E-03   -0.10352E-05  1992   0.647E-03    0.213E-03
DAV:  16    -0.358658350218E+02   -0.39675E-04   -0.21417E-06  1896   0.337E-03
   1 F= -.35865835E+02 E0= -.35860389E+02  d E =-.163377E-01
