 vasp.5.4.1 05Feb16 (build Feb 08 2018 09:21:51) complex                        
  
 executed on             LinuxIFC date 2019.11.21  23:49:32
 running on   24 total cores
 distrk:  each k-point on   24 cores,    1 groups
 distr:  one band on NCORES_PER_BAND=   1 cores,   24 groups


--------------------------------------------------------------------------------------------------------


 INCAR:
 POTCAR:    PAW_PBE Au 04Oct2007                  

 ----------------------------------------------------------------------------- 
|                                                                             |
|           W    W    AA    RRRRR   N    N  II  N    N   GGGG   !!!           |
|           W    W   A  A   R    R  NN   N  II  NN   N  G    G  !!!           |
|           W    W  A    A  R    R  N N  N  II  N N  N  G       !!!           |
|           W WW W  AAAAAA  RRRRR   N  N N  II  N  N N  G  GGG   !            |
|           WW  WW  A    A  R   R   N   NN  II  N   NN  G    G                |
|           W    W  A    A  R    R  N    N  II  N    N   GGGG   !!!           |
|                                                                             |
|      For optimal performance we recommend to set                            |
|        NCORE= 4 - approx SQRT( number of cores)                             |
|      NCORE specifies how many cores store one orbital (NPAR=cpu/NCORE).     |
|      This setting can  greatly improve the performance of VASP for DFT.     |
|      The default, NPAR=number of cores might be grossly inefficient         |
|      on modern multi-core architectures or massively parallel machines.     |
|      Do your own testing !!!!                                               |
|      Unfortunately you need to use the default for GW and RPA calculations. |
|      (for HF NCORE is supported but not extensively tested yet)             |
|                                                                             |
 ----------------------------------------------------------------------------- 

 POTCAR:    PAW_PBE Au 04Oct2007                  
   VRHFIN =Au: s1d10                                                            
   LEXCH  = PE                                                                  
   EATOM  =   926.0867 eV,   68.0654 Ry                                         
                                                                                
   TITEL  = PAW_PBE Au 04Oct2007                                                
   LULTRA =        F    use ultrasoft PP ?                                      
   IUNSCR =        1    unscreen: 0-lin 1-nonlin 2-no                           
   RPACOR =    2.330    partial core radius                                     
   POMASS =  196.966; ZVAL   =   11.000    mass and valenz                      
   RCORE  =    2.500    outmost cutoff radius                                   
   RWIGS  =    2.840; RWIGS  =    1.503    wigner-seitz radius (au A)           
   ENMAX  =  229.943; ENMIN  =  172.457 eV                                      
   ICORE  =        3    local potential                                         
   LCOR   =        T    correct aug charges                                     
   LPAW   =        T    paw PP                                                  
   EAUG   =  356.670                                                            
   DEXC   =    0.000                                                            
   RMAX   =    2.562    core radius for proj-oper                               
   RAUG   =    1.300    factor for augmentation sphere                          
   RDEP   =    2.598    radius for radial grids                                 
   RDEPT  =    2.193    core radius for aug-charge                              
                                                                                
   Atomic configuration                                                         
   16 entries                                                                   
     n  l   j            E        occ.                                          
     1  0  0.50    -80748.5001   2.0000                                         
     2  0  0.50    -14244.7466   2.0000                                         
     2  1  1.50    -12310.9591   6.0000                                         
     3  0  0.50     -3362.1768   2.0000                                         
     3  1  1.50     -2801.5463   6.0000                                         
     3  2  2.50     -2203.8206  10.0000                                         
     4  0  0.50      -729.8168   2.0000                                         
     4  1  1.50      -546.0527   6.0000                                         
     4  2  2.50      -325.7302  10.0000                                         
     4  3  3.50       -81.1472  14.0000                                         
     5  0  0.50      -108.3201   2.0000                                         
     5  1  1.50       -59.7479   6.0000                                         
     5  2  2.50        -6.8783  10.0000                                         
     6  0  0.50        -5.7602   1.0000                                         
     6  1  1.50        -6.8029   0.0000                                         
     5  3  2.50        -1.3606   0.0000                                         
   Description                                                                  
     l       E           TYP  RCUT    TYP  RCUT                                 
     2     -6.8782861     23  2.500                                             
     2     -8.2388687     23  2.500                                             
     0     -5.7601759     23  2.500                                             
     0     -0.8493231     23  2.500                                             
     1     -2.7211652     23  2.500                                             
     1     27.2116520     23  2.500                                             
     3     -1.3605826     23  2.500                                             
  local pseudopotential read in
  partial core-charges read in
  partial kinetic energy density read in
  atomic valenz-charges read in
  non local Contribution for L=           2  read in
    real space projection operators read in
  non local Contribution for L=           2  read in
    real space projection operators read in
  non local Contribution for L=           0  read in
    real space projection operators read in
  non local Contribution for L=           0  read in
    real space projection operators read in
  non local Contribution for L=           1  read in
    real space projection operators read in
  non local Contribution for L=           1  read in
    real space projection operators read in
    PAW grid and wavefunctions read in
 
   number of l-projection  operators is LMAX  =           6
   number of lm-projection operators is LMMAX =          18
 
  PAW_PBE Au 04Oct2007                  :
 energy of atom  1       EATOM= -926.0867
 kinetic energy error for atom=    0.0062 (will be added to EATOM!!)
 
 
 POSCAR: Au                                      
  positions in cartesian coordinates
  No initial velocities read in
 exchange correlation table for  LEXCH =        8
   RHO(1)=    0.500       N(1)  =     2000
   RHO(2)=  100.500       N(2)  =     4000
 


--------------------------------------------------------------------------------------------------------


 ion  position               nearest neighbor table
   1  0.167  0.167  0.403-   2 2.94   2 2.94   4 2.94   4 2.94   3 2.94   3 2.94   6 2.95   5 2.95
                             8 2.95
   2  0.667  0.167  0.403-   1 2.94   1 2.94   3 2.94   3 2.94   4 2.94   4 2.94   5 2.95   6 2.95
                             7 2.95
   3  0.167  0.667  0.403-   4 2.94   4 2.94   2 2.94   2 2.94   1 2.94   1 2.94   8 2.95   7 2.95
                             6 2.95
   4  0.667  0.667  0.403-   3 2.94   3 2.94   1 2.94   1 2.94   2 2.94   2 2.94   7 2.95   8 2.95
                             5 2.95
   5  0.833  0.333  0.500-   6 2.94   6 2.94   8 2.94   8 2.94   7 2.94   7 2.94   2 2.95  12 2.95
                             9 2.95   1 2.95  11 2.95   4 2.95
   6  0.333  0.333  0.500-   5 2.94   5 2.94   7 2.94   7 2.94   8 2.94   8 2.94   1 2.95  11 2.95
                            10 2.95   2 2.95  12 2.95   3 2.95
   7  0.833  0.833  0.500-   8 2.94   8 2.94   6 2.94   6 2.94   5 2.94   5 2.94   4 2.95  10 2.95
                            11 2.95   3 2.95   9 2.95   2 2.95
   8  0.333  0.833  0.500-   7 2.94   7 2.94   5 2.94   5 2.94   6 2.94   6 2.94   3 2.95   9 2.95
                            12 2.95   4 2.95  10 2.95   1 2.95
   9  0.000  0.000  0.597-  10 2.94  10 2.94  12 2.94  12 2.94  11 2.94  11 2.94   8 2.95   5 2.95
                             7 2.95
  10  0.500  0.000  0.597-   9 2.94   9 2.94  11 2.94  11 2.94  12 2.94  12 2.94   7 2.95   6 2.95
                             8 2.95
  11  0.000  0.500  0.597-  12 2.94  12 2.94  10 2.94  10 2.94   9 2.94   9 2.94   6 2.95   7 2.95
                             5 2.95
  12  0.500  0.500  0.597-  11 2.94  11 2.94   9 2.94   9 2.94  10 2.94  10 2.94   5 2.95   8 2.95
                             6 2.95
 
  LATTYP: Found a hexagonal cell.
 ALAT       =     5.8802999934
 C/A-ratio  =     4.2176835991
  
  Lattice vectors:
  
 A1 = (   2.9401499900,  -5.0924891800,   0.0000000000)
 A2 = (  -5.8802999900,   0.0000000000,   0.0000000000)
 A3 = (   0.0000000000,   0.0000000000, -24.8012448400)


Analysis of symmetry for initial positions (statically):
=====================================================================
 Subroutine PRICEL returns following result:
 
  LATTYP: Found a hexagonal cell.
 ALAT       =     2.9401499967
 C/A-ratio  =     8.4353671982
  
  Lattice vectors:
  
 A1 = (   1.4700749950,  -2.5462445900,   0.0000000000)
 A2 = (  -2.9401499950,   0.0000000000,   0.0000000000)
 A3 = (   0.0000000000,   0.0000000000, -24.8012448400)
 
   4 primitive cells build up your supercell.
 

 Routine SETGRP: Setting up the symmetry group for a 
 hexagonal supercell.


 Subroutine GETGRP returns: Found 12 space group operations
 (whereof  6 operations were pure point group operations)
 out of a pool of 24 trial point group operations.


The static configuration has the point symmetry C_3v.
 The point group associated with its full space group is D_3d.


Analysis of symmetry for dynamics (positions and initial velocities):
=====================================================================
 Subroutine PRICEL returns following result:
 
  LATTYP: Found a hexagonal cell.
 ALAT       =     2.9401499967
 C/A-ratio  =     8.4353671982
  
  Lattice vectors:
  
 A1 = (   1.4700749950,  -2.5462445900,   0.0000000000)
 A2 = (  -2.9401499950,   0.0000000000,   0.0000000000)
 A3 = (   0.0000000000,   0.0000000000, -24.8012448400)
 
   4 primitive cells build up your supercell.
 

 Routine SETGRP: Setting up the symmetry group for a 
 hexagonal supercell.


 Subroutine GETGRP returns: Found 12 space group operations
 (whereof  6 operations were pure point group operations)
 out of a pool of 24 trial point group operations.


The dynamic configuration has the point symmetry C_3v.
 The point group associated with its full space group is D_3d.


 Subroutine INISYM returns: Found 12 space group operations
 (whereof  6 operations are pure point group operations),
 and found     4 'primitive' translations

 
 
 KPOINTS: KPOINTS created by Atomic Simulation Env

Automatic generation of k-mesh.
Space group operators:
 irot       det(A)        alpha          n_x          n_y          n_z        tau_x        tau_y        tau_z
    1     1.000000     0.000000     1.000000     0.000000     0.000000     0.000000     0.000000     0.000000
    2     1.000000   120.000000     0.000000     0.000000     1.000000     0.000000     0.000000     0.000000
    3     1.000000   120.000000     0.000000     0.000000    -1.000000     0.000000     0.000000     0.000000
    4    -1.000000   180.000000     0.500000    -0.866025     0.000000     0.000000     0.000000     0.000000
    5    -1.000000   180.000000     1.000000    -0.000000     0.000000     0.000000     0.000000     0.000000
    6    -1.000000   180.000000    -0.500000    -0.866025     0.000000     0.000000     0.000000     0.000000
    7    -1.000000     0.000000     1.000000     0.000000     0.000000     0.166667    -0.333333     0.000000
    8    -1.000000   120.000000     0.000000     0.000000     1.000000     0.166667    -0.333333     0.000000
    9    -1.000000   120.000000     0.000000     0.000000    -1.000000     0.166667    -0.333333     0.000000
   10     1.000000   180.000000     0.500000    -0.866025     0.000000     0.166667    -0.333333     0.000000
   11     1.000000   180.000000     1.000000    -0.000000     0.000000     0.166667    -0.333333     0.000000
   12     1.000000   180.000000    -0.500000    -0.866025     0.000000     0.166667    -0.333333     0.000000
 
 Subroutine IBZKPT returns following result:
 ===========================================
 
 Found     12 irreducible k-points:
 
 Following reciprocal coordinates:
            Coordinates               Weight
  0.000000  0.000000  0.000000      1.000000
  0.111111  0.000000  0.000000      6.000000
  0.222222  0.000000  0.000000      6.000000
  0.333333  0.000000  0.000000      6.000000
  0.444444  0.000000  0.000000      6.000000
  0.222222  0.111111  0.000000      6.000000
  0.333333  0.111111  0.000000     12.000000
  0.444444  0.111111  0.000000     12.000000
 -0.444444  0.111111  0.000000      6.000000
  0.444444  0.222222  0.000000      6.000000
 -0.444444  0.222222  0.000000     12.000000
 -0.333333  0.333333  0.000000      2.000000
 
 Following cartesian coordinates:
            Coordinates               Weight
  0.000000  0.000000  0.000000      1.000000
  0.018895 -0.010909  0.000000      6.000000
  0.037791 -0.021819  0.000000      6.000000
  0.056686 -0.032728  0.000000      6.000000
  0.075582 -0.043637  0.000000      6.000000
  0.037791 -0.000000  0.000000      6.000000
  0.056686 -0.010909  0.000000     12.000000
  0.075582 -0.021819  0.000000     12.000000
 -0.075582  0.065456  0.000000      6.000000
  0.075582 -0.000000  0.000000      6.000000
 -0.075582  0.087274  0.000000     12.000000
 -0.056686  0.098184  0.000000      2.000000
 


--------------------------------------------------------------------------------------------------------




 Dimension of arrays:
   k-points           NKPTS =     12   k-points in BZ     NKDIM =     12   number of bands    NBANDS=     96
   number of dos      NEDOS =    301   number of ions     NIONS =     12
   non local maximal  LDIM  =      6   non local SUM 2l+1 LMDIM =     18
   total plane-waves  NPLWV = 113400
   max r-space proj   IRMAX =      1   max aug-charges    IRDMAX=   9536
   dimension x,y,z NGX =    30 NGY =   30 NGZ =  126
   dimension x,y,z NGXF=    60 NGYF=   60 NGZF=  252
   support grid    NGXF=    60 NGYF=   60 NGZF=  252
   ions per type =              12
 NGX,Y,Z   is equivalent  to a cutoff of   8.48,  8.48,  8.45 a.u.
 NGXF,Y,Z  is equivalent  to a cutoff of  16.96, 16.96, 16.89 a.u.


 I would recommend the setting:
   dimension x,y,z NGX =    29 NGY =   29 NGZ =  121
 SYSTEM =  unknown system                          
 POSCAR =  Au                                      

 Startparameter for this run:
   NWRITE =      2    write-flag & timer
   PREC   = normal    normal or accurate (medium, high low for compatibility)
   ISTART =      0    job   : 0-new  1-cont  2-samecut
   ICHARG =      2    charge: 1-file 2-atom 10-const
   ISPIN  =      1    spin polarized calculation?
   LNONCOLLINEAR =      F non collinear calculations
   LSORBIT =      F    spin-orbit coupling
   INIWAV =      1    electr: 0-lowe 1-rand  2-diag
   LASPH  =      F    aspherical Exc in radial PAW
   METAGGA=      F    non-selfconsistent MetaGGA calc.

 Electronic Relaxation 1
   ENCUT  =  400.0 eV  29.40 Ry    5.42 a.u.   9.59  9.59 40.44*2*pi/ulx,y,z
   ENINI  =  400.0     initial cutoff
   ENAUG  =  356.7 eV  augmentation charge cutoff
   NELM   =     60;   NELMIN=  2; NELMDL= -5     # of ELM steps 
   EDIFF  = 0.1E-03   stopping-criterion for ELM
   LREAL  =      F    real-space projection
   NLSPLINE    = F    spline interpolate recip. space projectors
   LCOMPAT=      F    compatible to vasp.4.4
   GGA_COMPAT  = T    GGA compatible to vasp.4.4-vasp.4.6
   LMAXPAW     = -100 max onsite density
   LMAXMIX     =    2 max onsite mixed and CHGCAR
   VOSKOWN=      0    Vosko Wilk Nusair interpolation
   ROPT   =    0.00000
 Ionic relaxation
   EDIFFG = 0.1E-02   stopping-criterion for IOM
   NSW    =      0    number of steps for IOM
   NBLOCK =      1;   KBLOCK =      1    inner block; outer block 
   IBRION =     -1    ionic relax: 0-MD 1-quasi-New 2-CG
   NFREE  =      0    steps in history (QN), initial steepest desc. (CG)
   ISIF   =      2    stress and relaxation
   IWAVPR =     10    prediction:  0-non 1-charg 2-wave 3-comb
   ISYM   =      2    0-nonsym 1-usesym 2-fastsym
   LCORR  =      T    Harris-Foulkes like correction to forces

   POTIM  = 0.5000    time-step for ionic-motion
   TEIN   =    0.0    initial temperature
   TEBEG  =    0.0;   TEEND  =   0.0 temperature during run
   SMASS  =  -3.00    Nose mass-parameter (am)
   estimated Nose-frequenzy (Omega)   =  0.10E-29 period in steps =****** mass=  -0.790E-27a.u.
   SCALEE = 1.0000    scale energy and forces
   NPACO  =    256;   APACO  = 16.0  distance and # of slots for P.C.
   PSTRESS=    0.0 pullay stress

  Mass of Ions in am
   POMASS = 196.97
  Ionic Valenz
   ZVAL   =  11.00
  Atomic Wigner-Seitz radii
   RWIGS  =  -1.00
  virtual crystal weights 
   VCA    =   1.00
   NELECT =     132.0000    total number of electrons
   NUPDOWN=      -1.0000    fix difference up-down

 DOS related values:
   EMIN   =  10.00;   EMAX   =-10.00  energy-range for DOS
   EFERMI =   0.00
   ISMEAR =     1;   SIGMA  =   0.10  broadening in eV -4-tet -1-fermi 0-gaus

 Electronic relaxation 2 (details)
   IALGO  =     38    algorithm
   LDIAG  =      T    sub-space diagonalisation (order eigenvalues)
   LSUBROT=      F    optimize rotation matrix (better conditioning)
   TURBO    =      0    0=normal 1=particle mesh
   IRESTART =      0    0=no restart 2=restart with 2 vectors
   NREBOOT  =      0    no. of reboots
   NMIN     =      0    reboot dimension
   EREF     =   0.00    reference energy to select bands
   IMIX   =      4    mixing-type and parameters
     AMIX     =   0.40;   BMIX     =  1.00
     AMIX_MAG =   1.60;   BMIX_MAG =  1.00
     AMIN     =   0.10
     WC   =   100.;   INIMIX=   1;  MIXPRE=   1;  MAXMIX= -45

 Intra band minimization:
   WEIMIN = 0.0000     energy-eigenvalue tresh-hold
   EBREAK =  0.26E-06  absolut break condition
   DEPER  =   0.30     relativ break condition  

   TIME   =   0.40     timestep for ELM

  volume/ion in A,a.u.               =      61.89       417.66
  Fermi-wavevector in a.u.,A,eV,Ry     =   0.920446  1.739391 11.527146  0.847221
  Thomas-Fermi vector in A             =   2.045753
 
 Write flags
   LWAVE  =      F    write WAVECAR
   LCHARG =      F    write CHGCAR
   LVTOT  =      F    write LOCPOT, total local potential
   LVHAR  =      F    write LOCPOT, Hartree potential only
   LELF   =      F    write electronic localiz. function (ELF)
   LORBIT =     10    0 simple, 1 ext, 2 COOP (PROOUT)


 Dipole corrections
   LMONO  =      F    monopole corrections only (constant potential shift)
   LDIPOL =      F    correct potential (dipole corrections)
   IDIPOL =      0    1-x, 2-y, 3-z, 4-all directions 
   EPSILON=  1.0000000 bulk dielectric constant

 Exchange correlation treatment:
   GGA     =    --    GGA type
   LEXCH   =     8    internal setting for exchange type
   VOSKOWN=      0    Vosko Wilk Nusair interpolation
   LHFCALC =     F    Hartree Fock is set to
   LHFONE  =     F    Hartree Fock one center treatment
   AEXX    =    0.0000 exact exchange contribution

 Linear response parameters
   LEPSILON=     F    determine dielectric tensor
   LRPA    =     F    only Hartree local field effects (RPA)
   LNABLA  =     F    use nabla operator in PAW spheres
   LVEL    =     F    velocity operator in full k-point grid
   LINTERFAST=   F  fast interpolation
   KINTER  =     0    interpolate to denser k-point grid
   CSHIFT  =0.1000    complex shift for real part using Kramers Kronig
   OMEGAMAX=  -1.0    maximum frequency
   DEG_THRESHOLD= 0.2000000E-02 threshold for treating states as degnerate
   RTIME   =    0.100 relaxation time in fs

 Orbital magnetization related:
   ORBITALMAG=     F  switch on orbital magnetization
   LCHIMAG   =     F  perturbation theory with respect to B field
   DQ        =  0.001000  dq finite difference perturbation B field



--------------------------------------------------------------------------------------------------------


 Static calculation
 charge density and potential will be updated during run
 non-spin polarized calculation
 Variant of blocked Davidson
 Davidson routine will perform the subspace rotation
 perform sub-space diagonalisation
    after iterative eigenvector-optimisation
 modified Broyden-mixing scheme, WC =      100.0
 initial mixing is a Kerker type mixing with AMIX =  0.4000 and BMIX =      1.0000
 Hartree-type preconditioning will be used
 using additional bands           30
 reciprocal scheme for non local part
 use partial core corrections
 calculate Harris-corrections to forces 
   (improved forces if not selfconsistent)
 use gradient corrections 
 use of overlap-Matrix (Vanderbilt PP)
 Methfessel and Paxton  Order N= 1 SIGMA  =   0.10


--------------------------------------------------------------------------------------------------------


  energy-cutoff  :      400.00
  volume of cell :      742.68
      direct lattice vectors                 reciprocal lattice vectors
     5.880299990  0.000000000  0.000000000     0.170059351 -0.098183812  0.000000000
     2.940150000  5.092489180  0.000000000     0.000000000  0.196367624  0.000000000
     0.000000000  0.000000000 24.801244840     0.000000000  0.000000000  0.040320557

  length of vectors
     5.880299990  5.880299998 24.801244840     0.196367624  0.196367624  0.040320557


 
 k-points in units of 2pi/SCALE and weight: KPOINTS created by Atomic Simulation Env
   0.00000000  0.00000000  0.00000000       0.012
   0.01889548 -0.01090931  0.00000000       0.074
   0.03779097 -0.02181862  0.00000000       0.074
   0.05668645 -0.03272794  0.00000000       0.074
   0.07558193 -0.04363725  0.00000000       0.074
   0.03779097 -0.00000000  0.00000000       0.074
   0.05668645 -0.01090931  0.00000000       0.148
   0.07558193 -0.02181862  0.00000000       0.148
  -0.07558193  0.06545587  0.00000000       0.074
   0.07558193 -0.00000000  0.00000000       0.074
  -0.07558193  0.08727450  0.00000000       0.148
  -0.05668645  0.09818381  0.00000000       0.025
 
 k-points in reciprocal lattice and weights: KPOINTS created by Atomic Simulation Env
   0.00000000  0.00000000  0.00000000       0.012
   0.11111111  0.00000000  0.00000000       0.074
   0.22222222  0.00000000  0.00000000       0.074
   0.33333333  0.00000000  0.00000000       0.074
   0.44444444  0.00000000  0.00000000       0.074
   0.22222222  0.11111111  0.00000000       0.074
   0.33333333  0.11111111  0.00000000       0.148
   0.44444444  0.11111111  0.00000000       0.148
  -0.44444444  0.11111111  0.00000000       0.074
   0.44444444  0.22222222  0.00000000       0.074
  -0.44444444  0.22222222  0.00000000       0.148
  -0.33333333  0.33333333  0.00000000       0.025
 
 position of ions in fractional coordinates (direct lattice) 
   0.16666667  0.16666667  0.40279360
   0.66666667  0.16666667  0.40279360
   0.16666667  0.66666667  0.40279360
   0.66666667  0.66666667  0.40279360
   0.83333333  0.33333333  0.50000000
   0.33333333  0.33333333  0.50000000
   0.83333333  0.83333333  0.50000000
   0.33333333  0.83333333  0.50000000
   0.00000000  0.00000000  0.59720640
   0.50000000  0.00000000  0.59720640
   0.00000000  0.50000000  0.59720640
   0.50000000  0.50000000  0.59720640
 
 position of ions in cartesian coordinates  (Angst):
   1.47007503  0.84874821  9.98978269
   4.41022502  0.84874821  9.98978269
   2.94015003  3.39499280  9.98978269
   5.88030002  3.39499280  9.98978269
   5.88029996  1.69749638 12.40062242
   2.94014997  1.69749638 12.40062242
   7.35037496  4.24374097 12.40062242
   4.41022497  4.24374097 12.40062242
   0.00000000  0.00000000 14.81146215
   2.94015000  0.00000000 14.81146215
   1.47007500  2.54624459 14.81146215
   4.41022500  2.54624459 14.81146215
 


--------------------------------------------------------------------------------------------------------


 k-point  1 :   0.0000 0.0000 0.0000  plane waves:   13545
 k-point  2 :   0.1111 0.0000 0.0000  plane waves:   13569
 k-point  3 :   0.2222 0.0000 0.0000  plane waves:   13513
 k-point  4 :   0.3333 0.0000 0.0000  plane waves:   13500
 k-point  5 :   0.4444 0.0000 0.0000  plane waves:   13456
 k-point  6 :   0.2222 0.1111 0.0000  plane waves:   13505
 k-point  7 :   0.3333 0.1111 0.0000  plane waves:   13506
 k-point  8 :   0.4444 0.1111 0.0000  plane waves:   13477
 k-point  9 :  -0.4444 0.1111 0.0000  plane waves:   13452
 k-point 10 :   0.4444 0.2222 0.0000  plane waves:   13492
 k-point 11 :  -0.4444 0.2222 0.0000  plane waves:   13483
 k-point 12 :  -0.3333 0.3333 0.0000  plane waves:   13470

 maximum and minimum number of plane-waves per node :     13569    13452

 maximum number of plane-waves:     13569
 maximum index in each direction: 
   IXMAX=   10   IYMAX=    9   IZMAX=   40
   IXMIN=  -10   IYMIN=   -9   IZMIN=  -40

 WARNING: aliasing errors must be expected set NGX to  42 to avoid them
 WARNING: aliasing errors must be expected set NGY to  38 to avoid them
 WARNING: aliasing errors must be expected set NGZ to 162 to avoid them
 aliasing errors are usually negligible using standard VASP settings
 and one can safely disregard these warnings

 serial   3D FFT for wavefunctions
 parallel 3D FFT for charge:
    minimum data exchange during FFTs selected (reduces bandwidth)


 total amount of memory used by VASP on root node    75554. kBytes
========================================================================

   base      :      30000. kBytes
   nonl-proj :      26081. kBytes
   fftplans  :       1950. kBytes
   grid      :       6739. kBytes
   one-center:        186. kBytes
   wavefun   :      10598. kBytes
 
     INWAV:  cpu time    0.0000: real time    0.0001
 Broyden mixing: mesh for mixing (old mesh)
   NGX = 19   NGY = 19   NGZ = 81
  (NGX  = 60   NGY  = 60   NGZ  =252)
  gives a total of  29241 points

 initial charge density was supplied:
 charge density of overlapping atoms calculated
 number of electron     132.0000000 magnetization 
 keeping initial charge density in first step


--------------------------------------------------------------------------------------------------------


 Maximum index for augmentation-charges          714 (set IRDMAX)


--------------------------------------------------------------------------------------------------------


 First call to EWALD:  gamma=   0.196
 Maximum number of real-space cells 5x 5x 1
 Maximum number of reciprocal cells 2x 2x 7

 FEWALD executed in parallel
    FEWALD:  cpu time    0.0017: real time    0.0024


----------------------------------------- Iteration    1(   1)  ---------------------------------------


    POTLOK:  cpu time    0.0424: real time    0.0424
    SETDIJ:  cpu time    0.0053: real time    0.0053
     EDDAV:  cpu time    3.8915: real time    3.8939
       DOS:  cpu time    0.0008: real time    0.0009
    --------------------------------------------
      LOOP:  cpu time    3.9422: real time    3.9455

 eigenvalue-minimisations  :  2304
 total energy-change (2. order) : 0.7471879E+03  (-0.4781302E+04)
 number of electron     132.0000000 magnetization 
 augmentation part      132.0000000 magnetization 

 Free energy of the ion-electron system (eV)
  ---------------------------------------------------
  alpha Z        PSCENC =       225.84438837
  Ewald energy   TEWEN  =     45603.05135447
  -Hartree energ DENC   =    -56919.07658882
  -exchange      EXHF   =         0.00000000
  -V(xc)+E(xc)   XCENC  =       182.05161600
  PAW double counting   =     10489.17004023   -10212.12161789
  entropy T*S    EENTRO =        -0.00301090
  eigenvalues    EBANDS =       265.30551009
  atomic energy  EATOM  =     11112.96622521
  Solvation  Ediel_sol  =         0.00000000
  ---------------------------------------------------
  free energy    TOTEN  =       747.18791676 eV

  energy without entropy =      747.19092766  energy(sigma->0) =      747.18892039


--------------------------------------------------------------------------------------------------------




----------------------------------------- Iteration    1(   2)  ---------------------------------------


     EDDAV:  cpu time    4.1108: real time    4.1205
       DOS:  cpu time    0.0007: real time    0.0007
    --------------------------------------------
      LOOP:  cpu time    4.1138: real time    4.1295

 eigenvalue-minimisations  :  2832
 total energy-change (2. order) :-0.7517316E+03  (-0.7015169E+03)
 number of electron     132.0000000 magnetization 
 augmentation part      132.0000000 magnetization 

 Free energy of the ion-electron system (eV)
  ---------------------------------------------------
  alpha Z        PSCENC =       225.84438837
  Ewald energy   TEWEN  =     45603.05135447
  -Hartree energ DENC   =    -56919.07658882
  -exchange      EXHF   =         0.00000000
  -V(xc)+E(xc)   XCENC  =       182.05161600
  PAW double counting   =     10489.17004023   -10212.12161789
  entropy T*S    EENTRO =         0.00306175
  eigenvalues    EBANDS =      -486.43213544
  atomic energy  EATOM  =     11112.96622521
  Solvation  Ediel_sol  =         0.00000000
  ---------------------------------------------------
  free energy    TOTEN  =        -4.54365611 eV

  energy without entropy =       -4.54671787  energy(sigma->0) =       -4.54467670


--------------------------------------------------------------------------------------------------------




----------------------------------------- Iteration    1(   3)  ---------------------------------------


     EDDAV:  cpu time    4.0920: real time    4.1019
       DOS:  cpu time    0.0006: real time    0.0007
    --------------------------------------------
      LOOP:  cpu time    4.0936: real time    4.1051

 eigenvalue-minimisations  :  2832
 total energy-change (2. order) :-0.3380296E+02  (-0.3316060E+02)
 number of electron     132.0000000 magnetization 
 augmentation part      132.0000000 magnetization 

 Free energy of the ion-electron system (eV)
  ---------------------------------------------------
  alpha Z        PSCENC =       225.84438837
  Ewald energy   TEWEN  =     45603.05135447
  -Hartree energ DENC   =    -56919.07658882
  -exchange      EXHF   =         0.00000000
  -V(xc)+E(xc)   XCENC  =       182.05161600
  PAW double counting   =     10489.17004023   -10212.12161789
  entropy T*S    EENTRO =        -0.00262635
  eigenvalues    EBANDS =      -520.22940765
  atomic energy  EATOM  =     11112.96622521
  Solvation  Ediel_sol  =         0.00000000
  ---------------------------------------------------
  free energy    TOTEN  =       -38.34661643 eV

  energy without entropy =      -38.34399008  energy(sigma->0) =      -38.34574098


--------------------------------------------------------------------------------------------------------




----------------------------------------- Iteration    1(   4)  ---------------------------------------


     EDDAV:  cpu time    4.0525: real time    4.0590
       DOS:  cpu time    0.0006: real time    0.0006
    --------------------------------------------
      LOOP:  cpu time    4.0541: real time    4.0679

 eigenvalue-minimisations  :  2808
 total energy-change (2. order) :-0.4321515E+00  (-0.4320276E+00)
 number of electron     132.0000000 magnetization 
 augmentation part      132.0000000 magnetization 

 Free energy of the ion-electron system (eV)
  ---------------------------------------------------
  alpha Z        PSCENC =       225.84438837
  Ewald energy   TEWEN  =     45603.05135447
  -Hartree energ DENC   =    -56919.07658882
  -exchange      EXHF   =         0.00000000
  -V(xc)+E(xc)   XCENC  =       182.05161600
  PAW double counting   =     10489.17004023   -10212.12161789
  entropy T*S    EENTRO =        -0.00279027
  eigenvalues    EBANDS =      -520.66139520
  atomic energy  EATOM  =     11112.96622521
  Solvation  Ediel_sol  =         0.00000000
  ---------------------------------------------------
  free energy    TOTEN  =       -38.77876790 eV

  energy without entropy =      -38.77597763  energy(sigma->0) =      -38.77783781


--------------------------------------------------------------------------------------------------------




----------------------------------------- Iteration    1(   5)  ---------------------------------------


     EDDAV:  cpu time    5.2740: real time    5.2771
       DOS:  cpu time    0.0006: real time    0.0006
    CHARGE:  cpu time    0.1439: real time    0.1441
    MIXING:  cpu time    0.0018: real time    0.0018
    --------------------------------------------
      LOOP:  cpu time    5.4215: real time    5.4390

 eigenvalue-minimisations  :  3192
 total energy-change (2. order) :-0.6624608E-02  (-0.6624361E-02)
 number of electron     132.0000160 magnetization 
 augmentation part       46.4204110 magnetization 

 Broyden mixing:
  rms(total) = 0.22365E+01    rms(broyden)= 0.22364E+01
  rms(prec ) = 0.22713E+01
  weight for this iteration     100.00

 Free energy of the ion-electron system (eV)
  ---------------------------------------------------
  alpha Z        PSCENC =       225.84438837
  Ewald energy   TEWEN  =     45603.05135447
  -Hartree energ DENC   =    -56919.07658882
  -exchange      EXHF   =         0.00000000
  -V(xc)+E(xc)   XCENC  =       182.05161600
  PAW double counting   =     10489.17004023   -10212.12161789
  entropy T*S    EENTRO =        -0.00279217
  eigenvalues    EBANDS =      -520.66801791
  atomic energy  EATOM  =     11112.96622521
  Solvation  Ediel_sol  =         0.00000000
  ---------------------------------------------------
  free energy    TOTEN  =       -38.78539251 eV

  energy without entropy =      -38.78260034  energy(sigma->0) =      -38.78446179


--------------------------------------------------------------------------------------------------------




----------------------------------------- Iteration    1(   6)  ---------------------------------------


    POTLOK:  cpu time    0.0307: real time    0.0307
    SETDIJ:  cpu time    0.0036: real time    0.0036
     EDDAV:  cpu time    4.5890: real time    4.6039
       DOS:  cpu time    0.0007: real time    0.0007
    CHARGE:  cpu time    0.1288: real time    0.1288
    MIXING:  cpu time    0.0019: real time    0.0020
    --------------------------------------------
      LOOP:  cpu time    4.7558: real time    4.7726

 eigenvalue-minimisations  :  2688
 total energy-change (2. order) : 0.2781086E+01  (-0.8079715E+00)
 number of electron     132.0000167 magnetization 
 augmentation part       48.0416366 magnetization 

 Broyden mixing:
  rms(total) = 0.15794E+01    rms(broyden)= 0.15794E+01
  rms(prec ) = 0.15819E+01
  weight for this iteration     100.00

 eigenvalues of (default mixing * dielectric matrix)
  average eigenvalue GAMMA=   1.7079
  1.7079

 Free energy of the ion-electron system (eV)
  ---------------------------------------------------
  alpha Z        PSCENC =       225.84438837
  Ewald energy   TEWEN  =     45603.05135447
  -Hartree energ DENC   =    -56799.27575160
  -exchange      EXHF   =         0.00000000
  -V(xc)+E(xc)   XCENC  =       177.96047226
  PAW double counting   =     11003.34534164   -10739.01031999
  entropy T*S    EENTRO =        -0.01572762
  eigenvalues    EBANDS =      -620.87028918
  atomic energy  EATOM  =     11112.96622521
  Solvation  Ediel_sol  =         0.00000000
  ---------------------------------------------------
  free energy    TOTEN  =       -36.00430646 eV

  energy without entropy =      -35.98857884  energy(sigma->0) =      -35.99906392


--------------------------------------------------------------------------------------------------------




----------------------------------------- Iteration    1(   7)  ---------------------------------------


    POTLOK:  cpu time    0.0290: real time    0.0291
    SETDIJ:  cpu time    0.0042: real time    0.0042
     EDDAV:  cpu time    3.7997: real time    3.8027
       DOS:  cpu time    0.0006: real time    0.0006
    CHARGE:  cpu time    0.1252: real time    0.1253
    MIXING:  cpu time    0.0013: real time    0.0013
    --------------------------------------------
      LOOP:  cpu time    3.9614: real time    3.9660

 eigenvalue-minimisations  :  2592
 total energy-change (2. order) : 0.1181466E+00  (-0.7085970E-01)
 number of electron     132.0000169 magnetization 
 augmentation part       48.4423424 magnetization 

 Broyden mixing:
  rms(total) = 0.65068E+00    rms(broyden)= 0.65067E+00
  rms(prec ) = 0.65158E+00
  weight for this iteration     100.00

 eigenvalues of (default mixing * dielectric matrix)
  average eigenvalue GAMMA=   1.7970
  1.1317  2.4623

 Free energy of the ion-electron system (eV)
  ---------------------------------------------------
  alpha Z        PSCENC =       225.84438837
  Ewald energy   TEWEN  =     45603.05135447
  -Hartree energ DENC   =    -56770.44087963
  -exchange      EXHF   =         0.00000000
  -V(xc)+E(xc)   XCENC  =       176.54244042
  PAW double counting   =     11579.07447223   -11323.97850671
  entropy T*S    EENTRO =        -0.01084853
  eigenvalues    EBANDS =      -638.93480566
  atomic energy  EATOM  =     11112.96622521
  Solvation  Ediel_sol  =         0.00000000
  ---------------------------------------------------
  free energy    TOTEN  =       -35.88615983 eV

  energy without entropy =      -35.87531130  energy(sigma->0) =      -35.88254366


--------------------------------------------------------------------------------------------------------




----------------------------------------- Iteration    1(   8)  ---------------------------------------


    POTLOK:  cpu time    0.0282: real time    0.0282
    SETDIJ:  cpu time    0.0034: real time    0.0034
     EDDAV:  cpu time    3.9141: real time    3.9181
       DOS:  cpu time    0.0007: real time    0.0007
    CHARGE:  cpu time    0.1241: real time    0.1241
    MIXING:  cpu time    0.0013: real time    0.0013
    --------------------------------------------
      LOOP:  cpu time    4.0730: real time    4.0787

 eigenvalue-minimisations  :  2688
 total energy-change (2. order) : 0.1034440E-01  (-0.1917455E-01)
 number of electron     132.0000169 magnetization 
 augmentation part       48.4063078 magnetization 

 Broyden mixing:
  rms(total) = 0.11678E+00    rms(broyden)= 0.11677E+00
  rms(prec ) = 0.12204E+00
  weight for this iteration     100.00

 eigenvalues of (default mixing * dielectric matrix)
  average eigenvalue GAMMA=   1.4769
  2.5552  1.1781  0.6974

 Free energy of the ion-electron system (eV)
  ---------------------------------------------------
  alpha Z        PSCENC =       225.84438837
  Ewald energy   TEWEN  =     45603.05135447
  -Hartree energ DENC   =    -56761.78860395
  -exchange      EXHF   =         0.00000000
  -V(xc)+E(xc)   XCENC  =       176.42418943
  PAW double counting   =     11911.56039672   -11660.41687207
  entropy T*S    EENTRO =        -0.02186169
  eigenvalues    EBANDS =      -643.49503192
  atomic energy  EATOM  =     11112.96622521
  Solvation  Ediel_sol  =         0.00000000
  ---------------------------------------------------
  free energy    TOTEN  =       -35.87581543 eV

  energy without entropy =      -35.85395374  energy(sigma->0) =      -35.86852820


--------------------------------------------------------------------------------------------------------




----------------------------------------- Iteration    1(   9)  ---------------------------------------


    POTLOK:  cpu time    0.0281: real time    0.0281
    SETDIJ:  cpu time    0.0033: real time    0.0033
     EDDAV:  cpu time    3.8591: real time    3.9017
       DOS:  cpu time    0.0007: real time    0.0007
    CHARGE:  cpu time    0.1263: real time    0.1264
    MIXING:  cpu time    0.0013: real time    0.0013
    --------------------------------------------
      LOOP:  cpu time    4.0198: real time    4.0646

 eigenvalue-minimisations  :  2640
 total energy-change (2. order) : 0.1177326E-01  (-0.4805657E-02)
 number of electron     132.0000169 magnetization 
 augmentation part       48.3758891 magnetization 

 Broyden mixing:
  rms(total) = 0.17672E-01    rms(broyden)= 0.17665E-01
  rms(prec ) = 0.18137E-01
  weight for this iteration     100.00

 eigenvalues of (default mixing * dielectric matrix)
  average eigenvalue GAMMA=   1.3948
  2.4678  1.2909  1.1244  0.6961

 Free energy of the ion-electron system (eV)
  ---------------------------------------------------
  alpha Z        PSCENC =       225.84438837
  Ewald energy   TEWEN  =     45603.05135447
  -Hartree energ DENC   =    -56764.98101162
  -exchange      EXHF   =         0.00000000
  -V(xc)+E(xc)   XCENC  =       176.43852897
  PAW double counting   =     11936.94010121   -11685.89195623
  entropy T*S    EENTRO =        -0.01599896
  eigenvalues    EBANDS =      -640.21567358
  atomic energy  EATOM  =     11112.96622521
  Solvation  Ediel_sol  =         0.00000000
  ---------------------------------------------------
  free energy    TOTEN  =       -35.86404218 eV

  energy without entropy =      -35.84804321  energy(sigma->0) =      -35.85870919


--------------------------------------------------------------------------------------------------------




----------------------------------------- Iteration    1(  10)  ---------------------------------------


    POTLOK:  cpu time    0.0281: real time    0.0282
    SETDIJ:  cpu time    0.0034: real time    0.0034
     EDDAV:  cpu time    3.8957: real time    3.9083
       DOS:  cpu time    0.0007: real time    0.0007
    CHARGE:  cpu time    0.1234: real time    0.1235
    MIXING:  cpu time    0.0014: real time    0.0014
    --------------------------------------------
      LOOP:  cpu time    4.0539: real time    4.0683

 eigenvalue-minimisations  :  2712
 total energy-change (2. order) :-0.4377596E-03  (-0.3180955E-03)
 number of electron     132.0000169 magnetization 
 augmentation part       48.3742002 magnetization 

 Broyden mixing:
  rms(total) = 0.71305E-02    rms(broyden)= 0.71298E-02
  rms(prec ) = 0.74526E-02
  weight for this iteration     100.00

 eigenvalues of (default mixing * dielectric matrix)
  average eigenvalue GAMMA=   1.3751
  2.4877  1.6740  1.1730  0.7788  0.7618

 Free energy of the ion-electron system (eV)
  ---------------------------------------------------
  alpha Z        PSCENC =       225.84438837
  Ewald energy   TEWEN  =     45603.05135447
  -Hartree energ DENC   =    -56763.89511739
  -exchange      EXHF   =         0.00000000
  -V(xc)+E(xc)   XCENC  =       176.44316284
  PAW double counting   =     11930.23151987   -11678.96581645
  entropy T*S    EENTRO =        -0.01624670
  eigenvalues    EBANDS =      -641.52395014
  atomic energy  EATOM  =     11112.96622521
  Solvation  Ediel_sol  =         0.00000000
  ---------------------------------------------------
  free energy    TOTEN  =       -35.86447993 eV

  energy without entropy =      -35.84823323  energy(sigma->0) =      -35.85906437


--------------------------------------------------------------------------------------------------------




----------------------------------------- Iteration    1(  11)  ---------------------------------------


    POTLOK:  cpu time    0.0274: real time    0.0275
    SETDIJ:  cpu time    0.0034: real time    0.0034
     EDDAV:  cpu time    3.5192: real time    3.5262
       DOS:  cpu time    0.0007: real time    0.0007
    CHARGE:  cpu time    0.1261: real time    0.1263
    MIXING:  cpu time    0.0016: real time    0.0016
    --------------------------------------------
      LOOP:  cpu time    3.6795: real time    3.6884

 eigenvalue-minimisations  :  2376
 total energy-change (2. order) :-0.3479453E-03  (-0.1186439E-04)
 number of electron     132.0000169 magnetization 
 augmentation part       48.3766852 magnetization 

 Broyden mixing:
  rms(total) = 0.31777E-02    rms(broyden)= 0.31777E-02
  rms(prec ) = 0.35140E-02
  weight for this iteration     100.00

 eigenvalues of (default mixing * dielectric matrix)
  average eigenvalue GAMMA=   1.5127
  2.7103  2.3795  1.2050  1.2050  0.7286  0.8478

 Free energy of the ion-electron system (eV)
  ---------------------------------------------------
  alpha Z        PSCENC =       225.84438837
  Ewald energy   TEWEN  =     45603.05135447
  -Hartree energ DENC   =    -56763.19475722
  -exchange      EXHF   =         0.00000000
  -V(xc)+E(xc)   XCENC  =       176.43390086
  PAW double counting   =     11933.28282564   -11681.98873744
  entropy T*S    EENTRO =        -0.01635663
  eigenvalues    EBANDS =      -642.24367112
  atomic energy  EATOM  =     11112.96622521
  Solvation  Ediel_sol  =         0.00000000
  ---------------------------------------------------
  free energy    TOTEN  =       -35.86482788 eV

  energy without entropy =      -35.84847125  energy(sigma->0) =      -35.85937567


--------------------------------------------------------------------------------------------------------




----------------------------------------- Iteration    1(  12)  ---------------------------------------


    POTLOK:  cpu time    0.0279: real time    0.0279
    SETDIJ:  cpu time    0.0034: real time    0.0034
     EDDAV:  cpu time    3.1410: real time    3.1445
       DOS:  cpu time    0.0006: real time    0.0006
    CHARGE:  cpu time    0.1239: real time    0.1239
    MIXING:  cpu time    0.0015: real time    0.0015
    --------------------------------------------
      LOOP:  cpu time    3.2996: real time    3.3050

 eigenvalue-minimisations  :  1992
 total energy-change (2. order) :-0.4148401E-03  (-0.6107215E-05)
 number of electron     132.0000169 magnetization 
 augmentation part       48.3773062 magnetization 

 Broyden mixing:
  rms(total) = 0.11184E-02    rms(broyden)= 0.11184E-02
  rms(prec ) = 0.15047E-02
  weight for this iteration     100.00

 eigenvalues of (default mixing * dielectric matrix)
  average eigenvalue GAMMA=   1.4752
  2.5826  2.4800  1.4821  1.1697  0.7215  0.9452  0.9452

 Free energy of the ion-electron system (eV)
  ---------------------------------------------------
  alpha Z        PSCENC =       225.84438837
  Ewald energy   TEWEN  =     45603.05135447
  -Hartree energ DENC   =    -56762.31883908
  -exchange      EXHF   =         0.00000000
  -V(xc)+E(xc)   XCENC  =       176.42686272
  PAW double counting   =     11934.84299122   -11683.49775138
  entropy T*S    EENTRO =        -0.01633137
  eigenvalues    EBANDS =      -643.16414287
  atomic energy  EATOM  =     11112.96622521
  Solvation  Ediel_sol  =         0.00000000
  ---------------------------------------------------
  free energy    TOTEN  =       -35.86524272 eV

  energy without entropy =      -35.84891135  energy(sigma->0) =      -35.85979893


--------------------------------------------------------------------------------------------------------




----------------------------------------- Iteration    1(  13)  ---------------------------------------


    POTLOK:  cpu time    0.0278: real time    0.0278
    SETDIJ:  cpu time    0.0033: real time    0.0033
     EDDAV:  cpu time    3.1673: real time    3.1779
       DOS:  cpu time    0.0006: real time    0.0006
    CHARGE:  cpu time    0.1270: real time    0.1272
    MIXING:  cpu time    0.0015: real time    0.0015
    --------------------------------------------
      LOOP:  cpu time    3.3288: real time    3.3414

 eigenvalue-minimisations  :  2040
 total energy-change (2. order) :-0.1319731E-03  (-0.9093600E-06)
 number of electron     132.0000169 magnetization 
 augmentation part       48.3776056 magnetization 

 Broyden mixing:
  rms(total) = 0.60128E-03    rms(broyden)= 0.60127E-03
  rms(prec ) = 0.99001E-03
  weight for this iteration     100.00

 eigenvalues of (default mixing * dielectric matrix)
  average eigenvalue GAMMA=   1.6042
  3.0588  2.5530  2.2886  0.7254  1.1828  1.1828  0.9212  0.9212

 Free energy of the ion-electron system (eV)
  ---------------------------------------------------
  alpha Z        PSCENC =       225.84438837
  Ewald energy   TEWEN  =     45603.05135447
  -Hartree energ DENC   =    -56761.88503297
  -exchange      EXHF   =         0.00000000
  -V(xc)+E(xc)   XCENC  =       176.42555429
  PAW double counting   =     11934.10917160   -11682.75571675
  entropy T*S    EENTRO =        -0.01635526
  eigenvalues    EBANDS =      -643.60496364
  atomic energy  EATOM  =     11112.96622521
  Solvation  Ediel_sol  =         0.00000000
  ---------------------------------------------------
  free energy    TOTEN  =       -35.86537469 eV

  energy without entropy =      -35.84901944  energy(sigma->0) =      -35.85992294


--------------------------------------------------------------------------------------------------------




----------------------------------------- Iteration    1(  14)  ---------------------------------------


    POTLOK:  cpu time    0.0278: real time    0.0278
    SETDIJ:  cpu time    0.0034: real time    0.0034
     EDDAV:  cpu time    3.0537: real time    3.0568
       DOS:  cpu time    0.0006: real time    0.0006
    CHARGE:  cpu time    0.1234: real time    0.1234
    MIXING:  cpu time    0.0015: real time    0.0015
    --------------------------------------------
      LOOP:  cpu time    3.2117: real time    3.2163

 eigenvalue-minimisations  :  1944
 total energy-change (2. order) :-0.3124765E-03  (-0.4870956E-05)
 number of electron     132.0000169 magnetization 
 augmentation part       48.3776889 magnetization 

 Broyden mixing:
  rms(total) = 0.55675E-03    rms(broyden)= 0.55673E-03
  rms(prec ) = 0.65218E-03
  weight for this iteration     100.00

 eigenvalues of (default mixing * dielectric matrix)
  average eigenvalue GAMMA=   1.7110
  3.6089  2.4350  2.2254  2.2254  1.1727  1.1727  0.7274  0.8600  0.9718

 Free energy of the ion-electron system (eV)
  ---------------------------------------------------
  alpha Z        PSCENC =       225.84438837
  Ewald energy   TEWEN  =     45603.05135447
  -Hartree energ DENC   =    -56760.85949265
  -exchange      EXHF   =         0.00000000
  -V(xc)+E(xc)   XCENC  =       176.42205872
  PAW double counting   =     11934.26237311   -11682.90393129
  entropy T*S    EENTRO =        -0.01632517
  eigenvalues    EBANDS =      -644.63233793
  atomic energy  EATOM  =     11112.96622521
  Solvation  Ediel_sol  =         0.00000000
  ---------------------------------------------------
  free energy    TOTEN  =       -35.86568717 eV

  energy without entropy =      -35.84936200  energy(sigma->0) =      -35.86024545


--------------------------------------------------------------------------------------------------------




----------------------------------------- Iteration    1(  15)  ---------------------------------------


    POTLOK:  cpu time    0.0277: real time    0.0277
    SETDIJ:  cpu time    0.0033: real time    0.0033
     EDDAV:  cpu time    3.1197: real time    3.1208
       DOS:  cpu time    0.0007: real time    0.0007
    CHARGE:  cpu time    0.1259: real time    0.1259
    MIXING:  cpu time    0.0017: real time    0.0018
    --------------------------------------------
      LOOP:  cpu time    3.2801: real time    3.2835

 eigenvalue-minimisations  :  1992
 total energy-change (2. order) :-0.1081772E-03  (-0.1035172E-05)
 number of electron     132.0000169 magnetization 
 augmentation part       48.3777403 magnetization 

 Broyden mixing:
  rms(total) = 0.21267E-03    rms(broyden)= 0.21266E-03
  rms(prec ) = 0.25343E-03
  weight for this iteration     100.00

 eigenvalues of (default mixing * dielectric matrix)
  average eigenvalue GAMMA=   1.9352
  6.1156  2.5659  2.5378  2.1602  0.7276  1.2253  1.1386  1.0114  1.0114  0.8577

 Free energy of the ion-electron system (eV)
  ---------------------------------------------------
  alpha Z        PSCENC =       225.84438837
  Ewald energy   TEWEN  =     45603.05135447
  -Hartree energ DENC   =    -56760.42575764
  -exchange      EXHF   =         0.00000000
  -V(xc)+E(xc)   XCENC  =       176.42075811
  PAW double counting   =     11934.59374390   -11683.23875479
  entropy T*S    EENTRO =        -0.01633214
  eigenvalues    EBANDS =      -645.06142083
  atomic energy  EATOM  =     11112.96622521
  Solvation  Ediel_sol  =         0.00000000
  ---------------------------------------------------
  free energy    TOTEN  =       -35.86579535 eV

  energy without entropy =      -35.84946321  energy(sigma->0) =      -35.86035130


--------------------------------------------------------------------------------------------------------




----------------------------------------- Iteration    1(  16)  ---------------------------------------


    POTLOK:  cpu time    0.0275: real time    0.0275
    SETDIJ:  cpu time    0.0032: real time    0.0032
     EDDAV:  cpu time    3.0097: real time    3.0124
       DOS:  cpu time    0.0006: real time    0.0006
    --------------------------------------------
      LOOP:  cpu time    3.0421: real time    3.0466

 eigenvalue-minimisations  :  1896
 total energy-change (2. order) :-0.3967475E-04  (-0.2141657E-06)
 number of electron     132.0000169 magnetization 
 augmentation part       48.3777403 magnetization 

 Free energy of the ion-electron system (eV)
  ---------------------------------------------------
  alpha Z        PSCENC =       225.84438837
  Ewald energy   TEWEN  =     45603.05135447
  -Hartree energ DENC   =    -56760.24315629
  -exchange      EXHF   =         0.00000000
  -V(xc)+E(xc)   XCENC  =       176.42019641
  PAW double counting   =     11934.60242430   -11683.24894802
  entropy T*S    EENTRO =        -0.01633769
  eigenvalues    EBANDS =      -645.24198176
  atomic energy  EATOM  =     11112.96622521
  Solvation  Ediel_sol  =         0.00000000
  ---------------------------------------------------
  free energy    TOTEN  =       -35.86583502 eV

  energy without entropy =      -35.84949733  energy(sigma->0) =      -35.86038913


--------------------------------------------------------------------------------------------------------




 average (electrostatic) potential at core
  the test charge radii are     1.2098
  (the norm of the test charge is              1.0000)
       1 -74.2677       2 -74.2677       3 -74.2677       4 -74.2677       5 -74.6155
       6 -74.6155       7 -74.6155       8 -74.6155       9 -74.2677      10 -74.2677
      11 -74.2677      12 -74.2677
 
 
 
 E-fermi :  -1.2074     XC(G=0):  -4.2774     alpha+bet : -3.8366


 k-point     1 :       0.0000    0.0000    0.0000
  band No.  band energies     occupation 
      1      -9.7493      2.00000
      2      -8.2030      2.00000
      3      -7.8231      2.00000
      4      -7.5351      2.00000
      5      -7.5351      2.00000
      6      -7.5351      2.00000
      7      -7.2759      2.00000
      8      -7.2759      2.00000
      9      -7.2759      2.00000
     10      -6.9568      2.00000
     11      -6.9568      2.00000
     12      -6.9568      2.00000
     13      -6.8087      2.00000
     14      -6.8087      2.00000
     15      -6.8087      2.00000
     16      -5.7641      2.00000
     17      -5.7641      2.00000
     18      -5.7641      2.00000
     19      -5.6122      2.00000
     20      -5.6122      2.00000
     21      -5.6122      2.00000
     22      -5.5279      2.00000
     23      -5.4924      2.00000
     24      -5.4924      2.00000
     25      -5.1810      2.00000
     26      -5.1810      2.00000
     27      -5.1167      2.00000
     28      -5.1167      2.00000
     29      -5.1167      2.00000
     30      -5.0792      2.00000
     31      -5.0112      2.00000
     32      -5.0112      2.00000
     33      -4.5418      2.00000
     34      -4.5418      2.00000
     35      -4.5418      2.00000
     36      -4.1009      2.00000
     37      -4.1009      2.00000
     38      -4.0362      2.00000
     39      -4.0362      2.00000
     40      -4.0362      2.00000
     41      -3.8182      2.00000
     42      -3.8182      2.00000
     43      -3.8182      2.00000
     44      -3.6195      2.00000
     45      -3.6195      2.00000
     46      -3.2926      2.00000
     47      -3.2926      2.00000
     48      -3.2926      2.00000
     49      -3.1851      2.00000
     50      -3.1851      2.00000
     51      -3.1810      2.00000
     52      -3.1810      2.00000
     53      -3.1810      2.00000
     54      -3.0687      2.00000
     55      -3.0687      2.00000
     56      -3.0687      2.00000
     57      -2.7407      2.00000
     58      -2.7407      2.00000
     59      -2.7407      2.00000
     60      -2.7190      2.00000
     61      -2.7121      2.00000
     62      -2.7121      2.00000
     63      -2.7121      2.00000
     64      -0.8485     -0.00000
     65      -0.8485     -0.00000
     66      -0.8485     -0.00000
     67      -0.7047     -0.00000
     68       0.0062     -0.00000
     69       0.0062     -0.00000
     70       0.0062     -0.00000
     71       0.2692     -0.00000
     72       0.2692     -0.00000
     73       0.2692     -0.00000
     74       2.1532      0.00000
     75       2.1532      0.00000
     76       2.1532      0.00000
     77       2.8670      0.00000
     78       2.8670      0.00000
     79       2.8670      0.00000
     80       3.4399      0.00000
     81       3.6320      0.00000
     82       3.6320      0.00000
     83       3.6320      0.00000
     84       3.9468      0.00000
     85       4.1100      0.00000
     86       5.2682      0.00000
     87       5.4288      0.00000
     88       6.9612      0.00000
     89       6.9612      0.00000
     90       6.9612      0.00000
     91       7.1521      0.00000
     92       7.4309      0.00000
     93       7.5473      0.00000
     94       7.5473      0.00000
     95       7.5473      0.00000
     96       8.7545      0.00000

 k-point     2 :       0.1111    0.0000    0.0000
  band No.  band energies     occupation 
      1      -9.6587      2.00000
      2      -8.1124      2.00000
      3      -7.7425      2.00000
      4      -7.5306      2.00000
      5      -7.4713      2.00000
      6      -7.4713      2.00000
      7      -7.2482      2.00000
      8      -7.2204      2.00000
      9      -7.2204      2.00000
     10      -6.9422      2.00000
     11      -6.9265      2.00000
     12      -6.9265      2.00000
     13      -6.7697      2.00000
     14      -6.7323      2.00000
     15      -6.7323      2.00000
     16      -5.7643      2.00000
     17      -5.7643      2.00000
     18      -5.7517      2.00000
     19      -5.5790      2.00000
     20      -5.5790      2.00000
     21      -5.5765      2.00000
     22      -5.5508      2.00000
     23      -5.5227      2.00000
     24      -5.4382      2.00000
     25      -5.2917      2.00000
     26      -5.1634      2.00000
     27      -5.1634      2.00000
     28      -5.1389      2.00000
     29      -5.1003      2.00000
     30      -5.0361      2.00000
     31      -5.0263      2.00000
     32      -4.9553      2.00000
     33      -4.6075      2.00000
     34      -4.5787      2.00000
     35      -4.5787      2.00000
     36      -4.1214      2.00000
     37      -4.1191      2.00000
     38      -4.0944      2.00000
     39      -4.0944      2.00000
     40      -4.0335      2.00000
     41      -3.8780      2.00000
     42      -3.8525      2.00000
     43      -3.8525      2.00000
     44      -3.7487      2.00000
     45      -3.6211      2.00000
     46      -3.3479      2.00000
     47      -3.3479      2.00000
     48      -3.3148      2.00000
     49      -3.3026      2.00000
     50      -3.2485      2.00000
     51      -3.2104      2.00000
     52      -3.2104      2.00000
     53      -3.1832      2.00000
     54      -3.1754      2.00000
     55      -3.1754      2.00000
     56      -3.1288      2.00000
     57      -2.9042      2.00000
     58      -2.9042      2.00000
     59      -2.8317      2.00000
     60      -2.8317      2.00000
     61      -2.8189      2.00000
     62      -2.7933      2.00000
     63      -2.5499      2.00000
     64      -1.8073      2.00000
     65      -0.9949     -0.01047
     66      -0.9949     -0.01047
     67      -0.8375     -0.00000
     68      -0.4701     -0.00000
     69      -0.0944     -0.00000
     70      -0.0944     -0.00000
     71       0.7867     -0.00000
     72       0.7867     -0.00000
     73       1.1505     -0.00000
     74       2.1329      0.00000
     75       2.3790      0.00000
     76       2.3790      0.00000
     77       2.6435      0.00000
     78       2.6435      0.00000
     79       3.1200      0.00000
     80       3.4977      0.00000
     81       4.0213      0.00000
     82       4.1034      0.00000
     83       4.1034      0.00000
     84       4.1775      0.00000
     85       4.6481      0.00000
     86       5.3406      0.00000
     87       5.4902      0.00000
     88       6.5983      0.00000
     89       6.8749      0.00000
     90       6.8749      0.00000
     91       7.2216      0.00000
     92       7.2464      0.00000
     93       7.4998      0.00000
     94       7.5262      0.00000
     95       7.5262      0.00000
     96       8.4104      0.00000

 k-point     3 :       0.2222    0.0000    0.0000
  band No.  band energies     occupation 
      1      -9.3943      2.00000
      2      -7.8532      2.00000
      3      -7.5449      2.00000
      4      -7.5141      2.00000
      5      -7.2879      2.00000
      6      -7.2879      2.00000
      7      -7.1720      2.00000
      8      -7.0691      2.00000
      9      -7.0691      2.00000
     10      -6.8970      2.00000
     11      -6.8315      2.00000
     12      -6.8315      2.00000
     13      -6.6596      2.00000
     14      -6.5143      2.00000
     15      -6.5143      2.00000
     16      -5.7807      2.00000
     17      -5.7807      2.00000
     18      -5.7112      2.00000
     19      -5.7046      2.00000
     20      -5.5410      2.00000
     21      -5.4895      2.00000
     22      -5.4792      2.00000
     23      -5.4792      2.00000
     24      -5.4459      2.00000
     25      -5.2904      2.00000
     26      -5.2904      2.00000
     27      -5.2811      2.00000
     28      -5.0859      2.00000
     29      -5.0537      2.00000
     30      -5.0250      2.00000
     31      -5.0203      2.00000
     32      -4.7944      2.00000
     33      -4.7913      2.00000
     34      -4.7073      2.00000
     35      -4.7073      2.00000
     36      -4.2286      2.00000
     37      -4.2286      2.00000
     38      -4.2233      2.00000
     39      -4.1626      2.00000
     40      -4.0601      2.00000
     41      -4.0366      2.00000
     42      -3.9921      2.00000
     43      -3.9921      2.00000
     44      -3.9579      2.00000
     45      -3.6306      2.00000
     46      -3.6297      2.00000
     47      -3.6297      2.00000
     48      -3.4931      2.00000
     49      -3.4871      2.00000
     50      -3.4860      2.00000
     51      -3.4860      2.00000
     52      -3.4388      2.00000
     53      -3.3514      2.00000
     54      -3.3514      2.00000
     55      -3.2437      2.00000
     56      -3.1779      2.00000
     57      -3.1596      2.00000
     58      -3.1596      2.00000
     59      -3.0517      2.00000
     60      -2.9800      2.00000
     61      -2.9529      2.00000
     62      -2.9529      2.00000
     63      -2.9473      2.00000
     64      -2.1994      2.00000
     65      -1.9906      2.00000
     66      -1.1367      0.07576
     67      -1.1367      0.07576
     68      -0.1268     -0.00000
     69      -0.1268     -0.00000
     70       0.1117     -0.00000
     71       0.5201     -0.00000
     72       1.6494      0.00000
     73       1.6494      0.00000
     74       2.2210      0.00000
     75       2.2210      0.00000
     76       3.2526      0.00000
     77       3.2526      0.00000
     78       3.3090      0.00000
     79       3.6709      0.00000
     80       4.2446      0.00000
     81       4.2894      0.00000
     82       4.3813      0.00000
     83       4.8847      0.00000
     84       4.8847      0.00000
     85       5.3872      0.00000
     86       5.5576      0.00000
     87       5.6759      0.00000
     88       6.4199      0.00000
     89       6.6546      0.00000
     90       6.6546      0.00000
     91       7.1674      0.00000
     92       7.4152      0.00000
     93       7.4152      0.00000
     94       7.4290      0.00000
     95       7.5284      0.00000
     96       7.7057      0.00000

 k-point     4 :       0.3333    0.0000    0.0000
  band No.  band energies     occupation 
      1      -8.9813      2.00000
      2      -7.6662      2.00000
      3      -7.4775      2.00000
      4      -7.1882      2.00000
      5      -7.0733      2.00000
      6      -7.0190      2.00000
      7      -7.0190      2.00000
      8      -6.8787      2.00000
      9      -6.8787      2.00000
     10      -6.8243      2.00000
     11      -6.6645      2.00000
     12      -6.6645      2.00000
     13      -6.4925      2.00000
     14      -6.1905      2.00000
     15      -6.1905      2.00000
     16      -5.8986      2.00000
     17      -5.8263      2.00000
     18      -5.8263      2.00000
     19      -5.7064      2.00000
     20      -5.6592      2.00000
     21      -5.5032      2.00000
     22      -5.5032      2.00000
     23      -5.4703      2.00000
     24      -5.4412      2.00000
     25      -5.3135      2.00000
     26      -5.3135      2.00000
     27      -5.1594      2.00000
     28      -5.0461      2.00000
     29      -5.0176      2.00000
     30      -4.9954      2.00000
     31      -4.9854      2.00000
     32      -4.9131      2.00000
     33      -4.9131      2.00000
     34      -4.8805      2.00000
     35      -4.5303      2.00000
     36      -4.4223      2.00000
     37      -4.4050      2.00000
     38      -4.4050      2.00000
     39      -4.3434      2.00000
     40      -4.2263      2.00000
     41      -4.2263      2.00000
     42      -4.1843      2.00000
     43      -4.1843      2.00000
     44      -4.1648      2.00000
     45      -4.1621      2.00000
     46      -4.1045      2.00000
     47      -4.0500      2.00000
     48      -3.8206      2.00000
     49      -3.8206      2.00000
     50      -3.7248      2.00000
     51      -3.6525      2.00000
     52      -3.6522      2.00000
     53      -3.5539      2.00000
     54      -3.5539      2.00000
     55      -3.5137      2.00000
     56      -3.4390      2.00000
     57      -3.3823      2.00000
     58      -3.2001      2.00000
     59      -3.2001      2.00000
     60      -3.1707      2.00000
     61      -3.1172      2.00000
     62      -2.9715      2.00000
     63      -2.9715      2.00000
     64      -2.7879      2.00000
     65      -1.7973      2.00000
     66      -1.1769      0.50929
     67      -1.1769      0.50929
     68      -0.2775     -0.00000
     69      -0.1349     -0.00000
     70      -0.1349     -0.00000
     71       0.8758     -0.00000
     72       1.8732      0.00000
     73       1.8732      0.00000
     74       2.8288      0.00000
     75       2.8288      0.00000
     76       3.4659      0.00000
     77       3.9599      0.00000
     78       4.1678      0.00000
     79       4.1678      0.00000
     80       4.6159      0.00000
     81       4.7238      0.00000
     82       5.2654      0.00000
     83       5.5635      0.00000
     84       5.5635      0.00000
     85       5.8083      0.00000
     86       5.9175      0.00000
     87       5.9905      0.00000
     88       6.1776      0.00000
     89       6.1776      0.00000
     90       6.4823      0.00000
     91       6.6291      0.00000
     92       7.0872      0.00000
     93       7.3958      0.00000
     94       7.3958      0.00000
     95       7.7690      0.00000
     96       7.7702      0.00000

 k-point     5 :       0.4444    0.0000    0.0000
  band No.  band energies     occupation 
      1      -8.4763      2.00000
      2      -7.9901      2.00000
      3      -7.1341      2.00000
      4      -7.0167      2.00000
      5      -6.8804      2.00000
      6      -6.7810      2.00000
      7      -6.7810      2.00000
      8      -6.7682      2.00000
      9      -6.7450      2.00000
     10      -6.7450      2.00000
     11      -6.4391      2.00000
     12      -6.4391      2.00000
     13      -6.2880      2.00000
     14      -6.0841      2.00000
     15      -5.9985      2.00000
     16      -5.9985      2.00000
     17      -5.8511      2.00000
     18      -5.8211      2.00000
     19      -5.8211      2.00000
     20      -5.7519      2.00000
     21      -5.6838      2.00000
     22      -5.6838      2.00000
     23      -5.4586      2.00000
     24      -5.4099      2.00000
     25      -5.1974      2.00000
     26      -5.1247      2.00000
     27      -5.1247      2.00000
     28      -5.0367      2.00000
     29      -5.0367      2.00000
     30      -4.9845      2.00000
     31      -4.9154      2.00000
     32      -4.9148      2.00000
     33      -4.8909      2.00000
     34      -4.7654      2.00000
     35      -4.7654      2.00000
     36      -4.6815      2.00000
     37      -4.6815      2.00000
     38      -4.6796      2.00000
     39      -4.6659      2.00000
     40      -4.6634      2.00000
     41      -4.6430      2.00000
     42      -4.3422      2.00000
     43      -4.2723      2.00000
     44      -4.2516      2.00000
     45      -4.2516      2.00000
     46      -4.1930      2.00000
     47      -4.1533      2.00000
     48      -4.0735      2.00000
     49      -4.0735      2.00000
     50      -4.0333      2.00000
     51      -3.8318      2.00000
     52      -3.7882      2.00000
     53      -3.6742      2.00000
     54      -3.6359      2.00000
     55      -3.6359      2.00000
     56      -3.6347      2.00000
     57      -3.3855      2.00000
     58      -3.2034      2.00000
     59      -3.2034      2.00000
     60      -3.1686      2.00000
     61      -3.1630      2.00000
     62      -3.1522      2.00000
     63      -2.9676      2.00000
     64      -2.9676      2.00000
     65      -1.3673      2.04618
     66      -1.1809      0.56913
     67      -1.1809      0.56913
     68      -0.8831     -0.00005
     69      -0.1372     -0.00000
     70      -0.1372     -0.00000
     71       1.7331      0.00000
     72       1.7936      0.00000
     73       1.7936      0.00000
     74       2.6284      0.00000
     75       3.8390      0.00000
     76       3.8390      0.00000
     77       4.3670      0.00000
     78       4.7770      0.00000
     79       4.7770      0.00000
     80       4.8919      0.00000
     81       5.1313      0.00000
     82       5.2088      0.00000
     83       5.4472      0.00000
     84       5.4472      0.00000
     85       5.7765      0.00000
     86       5.8402      0.00000
     87       6.0553      0.00000
     88       6.0553      0.00000
     89       6.4040      0.00000
     90       6.4471      0.00000
     91       6.8985      0.00000
     92       7.0595      0.00000
     93       7.3602      0.00000
     94       7.3602      0.00000
     95       7.6046      0.00000
     96       7.7258      0.00000

 k-point     6 :       0.2222    0.1111    0.0000
  band No.  band energies     occupation 
      1      -9.4811      2.00000
      2      -7.9368      2.00000
      3      -7.5873      2.00000
      4      -7.4679      2.00000
      5      -7.4679      2.00000
      6      -7.2944      2.00000
      7      -7.1657      2.00000
      8      -7.1657      2.00000
      9      -7.0974      2.00000
     10      -6.8945      2.00000
     11      -6.8945      2.00000
     12      -6.8476      2.00000
     13      -6.6607      2.00000
     14      -6.6607      2.00000
     15      -6.5473      2.00000
     16      -5.7865      2.00000
     17      -5.7425      2.00000
     18      -5.7425      2.00000
     19      -5.6588      2.00000
     20      -5.5217      2.00000
     21      -5.5178      2.00000
     22      -5.5122      2.00000
     23      -5.5122      2.00000
     24      -5.4187      2.00000
     25      -5.3293      2.00000
     26      -5.2826      2.00000
     27      -5.1466      2.00000
     28      -5.1466      2.00000
     29      -5.0863      2.00000
     30      -5.0442      2.00000
     31      -5.0229      2.00000
     32      -4.8409      2.00000
     33      -4.7013      2.00000
     34      -4.7013      2.00000
     35      -4.6465      2.00000
     36      -4.2330      2.00000
     37      -4.1935      2.00000
     38      -4.1442      2.00000
     39      -4.0927      2.00000
     40      -4.0927      2.00000
     41      -3.9847      2.00000
     42      -3.9847      2.00000
     43      -3.9154      2.00000
     44      -3.8711      2.00000
     45      -3.6888      2.00000
     46      -3.5357      2.00000
     47      -3.4395      2.00000
     48      -3.4395      2.00000
     49      -3.4147      2.00000
     50      -3.4147      2.00000
     51      -3.3991      2.00000
     52      -3.3531      2.00000
     53      -3.2879      2.00000
     54      -3.2879      2.00000
     55      -3.2176      2.00000
     56      -3.1999      2.00000
     57      -3.1906      2.00000
     58      -3.0416      2.00000
     59      -3.0416      2.00000
     60      -2.9685      2.00000
     61      -2.9685      2.00000
     62      -2.9531      2.00000
     63      -2.3000      2.00000
     64      -2.1228      2.00000
     65      -2.1228      2.00000
     66      -1.2061      0.97808
     67      -1.2061      0.97807
     68      -0.1199     -0.00000
     69      -0.0670     -0.00000
     70       0.3875     -0.00000
     71       0.8822     -0.00000
     72       1.0852     -0.00000
     73       1.0852     -0.00000
     74       2.2193      0.00000
     75       2.6029      0.00000
     76       2.6029      0.00000
     77       3.1102      0.00000
     78       3.6132      0.00000
     79       3.8545      0.00000
     80       3.8545      0.00000
     81       3.8545      0.00000
     82       4.1703      0.00000
     83       4.3132      0.00000
     84       5.1191      0.00000
     85       5.1191      0.00000
     86       5.4854      0.00000
     87       5.6137      0.00000
     88       6.6888      0.00000
     89       6.6888      0.00000
     90       6.9029      0.00000
     91       6.9029      0.00000
     92       7.3350      0.00000
     93       7.3387      0.00000
     94       7.3601      0.00000
     95       7.6372      0.00000
     96       8.0475      0.00000

 k-point     7 :       0.3333    0.1111    0.0000
  band No.  band energies     occupation 
      1      -9.1404      2.00000
      2      -7.6125      2.00000
      3      -7.5199      2.00000
      4      -7.3040      2.00000
      5      -7.2974      2.00000
      6      -7.0708      2.00000
      7      -7.0236      2.00000
      8      -6.9897      2.00000
      9      -6.9231      2.00000
     10      -6.8309      2.00000
     11      -6.7834      2.00000
     12      -6.6929      2.00000
     13      -6.5266      2.00000
     14      -6.4190      2.00000
     15      -6.2477      2.00000
     16      -5.8505      2.00000
     17      -5.8366      2.00000
     18      -5.7567      2.00000
     19      -5.6979      2.00000
     20      -5.6131      2.00000
     21      -5.5155      2.00000
     22      -5.4359      2.00000
     23      -5.4203      2.00000
     24      -5.4144      2.00000
     25      -5.3879      2.00000
     26      -5.3160      2.00000
     27      -5.1490      2.00000
     28      -5.1445      2.00000
     29      -5.1080      2.00000
     30      -5.0677      2.00000
     31      -4.9222      2.00000
     32      -4.8779      2.00000
     33      -4.8594      2.00000
     34      -4.8116      2.00000
     35      -4.6151      2.00000
     36      -4.3859      2.00000
     37      -4.3217      2.00000
     38      -4.2837      2.00000
     39      -4.2525      2.00000
     40      -4.2244      2.00000
     41      -4.1270      2.00000
     42      -4.0995      2.00000
     43      -4.0850      2.00000
     44      -4.0297      2.00000
     45      -3.9921      2.00000
     46      -3.9387      2.00000
     47      -3.9264      2.00000
     48      -3.7730      2.00000
     49      -3.7643      2.00000
     50      -3.6949      2.00000
     51      -3.6270      2.00000
     52      -3.4907      2.00000
     53      -3.4876      2.00000
     54      -3.4264      2.00000
     55      -3.3974      2.00000
     56      -3.2664      2.00000
     57      -3.2297      2.00000
     58      -3.2085      2.00000
     59      -3.1758      2.00000
     60      -3.1564      2.00000
     61      -3.0299      2.00000
     62      -3.0284      2.00000
     63      -2.8855      2.00000
     64      -2.2245      2.00000
     65      -2.1028      2.00000
     66      -1.9401      2.00000
     67      -1.2633      1.80125
     68      -0.0821     -0.00000
     69       0.1865     -0.00000
     70       0.5933     -0.00000
     71       0.9123     -0.00000
     72       1.0547     -0.00000
     73       1.3249     -0.00000
     74       2.7227      0.00000
     75       3.0734      0.00000
     76       3.4623      0.00000
     77       3.7718      0.00000
     78       3.8442      0.00000
     79       4.4677      0.00000
     80       4.5002      0.00000
     81       4.5183      0.00000
     82       4.5863      0.00000
     83       4.6619      0.00000
     84       5.5255      0.00000
     85       5.7744      0.00000
     86       5.8638      0.00000
     87       6.0743      0.00000
     88       6.0883      0.00000
     89       6.5788      0.00000
     90       6.5806      0.00000
     91       7.0809      0.00000
     92       7.1339      0.00000
     93       7.1539      0.00000
     94       7.6347      0.00000
     95       7.6828      0.00000
     96       7.7485      0.00000

 k-point     8 :       0.4444    0.1111    0.0000
  band No.  band energies     occupation 
      1      -8.6740      2.00000
      2      -7.7376      2.00000
      3      -7.2267      2.00000
      4      -7.0766      2.00000
      5      -6.9766      2.00000
      6      -6.9665      2.00000
      7      -6.8040      2.00000
      8      -6.7629      2.00000
      9      -6.7469      2.00000
     10      -6.7248      2.00000
     11      -6.5948      2.00000
     12      -6.4745      2.00000
     13      -6.3464      2.00000
     14      -6.0960      2.00000
     15      -6.0458      2.00000
     16      -6.0163      2.00000
     17      -5.8131      2.00000
     18      -5.8119      2.00000
     19      -5.8010      2.00000
     20      -5.7207      2.00000
     21      -5.6526      2.00000
     22      -5.5945      2.00000
     23      -5.4865      2.00000
     24      -5.4799      2.00000
     25      -5.2314      2.00000
     26      -5.2189      2.00000
     27      -5.1980      2.00000
[...]
     82       5.3278      0.00000
     83       5.3278      0.00000
     84       5.8160      0.00000
     85       5.9866      0.00000
     86       5.9866      0.00000
     87       6.1350      0.00000
     88       6.1800      0.00000
     89       6.6697      0.00000
     90       6.6697      0.00000
     91       6.8418      0.00000
     92       6.8418      0.00000
     93       7.1513      0.00000
     94       7.1513      0.00000
     95       7.2330      0.00000
     96       7.9714      0.00000

 k-point    11 :      -0.4444    0.2222    0.0000
  band No.  band energies     occupation 
      1      -8.2461      2.00000
      2      -7.7560      2.00000
      3      -7.3194      2.00000
      4      -6.9184      2.00000
      5      -6.8102      2.00000
      6      -6.7264      2.00000
      7      -6.6750      2.00000
      8      -6.6054      2.00000
      9      -6.5981      2.00000
     10      -6.5274      2.00000
     11      -6.4699      2.00000
     12      -6.2300      2.00000
     13      -6.2119      2.00000
     14      -6.1488      2.00000
     15      -6.1153      2.00000
     16      -6.0992      2.00000
     17      -5.9971      2.00000
     18      -5.8955      2.00000
     19      -5.8479      2.00000
     20      -5.7828      2.00000
     21      -5.6067      2.00000
     22      -5.5580      2.00000
     23      -5.4824      2.00000
     24      -5.4346      2.00000
     25      -5.3383      2.00000
     26      -5.3207      2.00000
     27      -5.2450      2.00000
     28      -5.2393      2.00000
     29      -5.2169      2.00000
     30      -5.2051      2.00000
     31      -5.0684      2.00000
     32      -4.9803      2.00000
     33      -4.9667      2.00000
     34      -4.9109      2.00000
     35      -4.8697      2.00000
     36      -4.7740      2.00000
     37      -4.7254      2.00000
     38      -4.6833      2.00000
     39      -4.6783      2.00000
     40      -4.6176      2.00000
     41      -4.5608      2.00000
     42      -4.3497      2.00000
     43      -4.2857      2.00000
     44      -4.2327      2.00000
     45      -4.1263      2.00000
     46      -4.0947      2.00000
     47      -4.0661      2.00000
     48      -4.0649      2.00000
     49      -3.9845      2.00000
     50      -3.8373      2.00000
     51      -3.7908      2.00000
     52      -3.6981      2.00000
     53      -3.6869      2.00000
     54      -3.4789      2.00000
     55      -3.4696      2.00000
     56      -3.3641      2.00000
     57      -3.3529      2.00000
     58      -3.2970      2.00000
     59      -3.2714      2.00000
     60      -3.2336      2.00000
     61      -3.1897      2.00000
     62      -3.1838      2.00000
     63      -3.1665      2.00000
     64      -2.8589      2.00000
     65      -2.7429      2.00000
     66      -2.1687      2.00000
     67      -1.1711      0.42818
     68      -0.6549     -0.00000
     69      -0.0415     -0.00000
     70       0.8112     -0.00000
     71       1.7968      0.00000
     72       2.0840      0.00000
     73       2.1708      0.00000
     74       2.9558      0.00000
     75       3.1347      0.00000
     76       3.7569      0.00000
     77       4.2045      0.00000
     78       4.4927      0.00000
     79       4.5440      0.00000
     80       5.0681      0.00000
     81       5.3557      0.00000
     82       5.4161      0.00000
     83       5.4807      0.00000
     84       5.5174      0.00000
     85       6.0036      0.00000
     86       6.0452      0.00000
     87       6.4658      0.00000
     88       6.4874      0.00000
     89       6.6174      0.00000
     90       6.6412      0.00000
     91       6.6487      0.00000
     92       6.7730      0.00000
     93       7.0528      0.00000
     94       7.2664      0.00000
     95       7.4182      0.00000
     96       7.7114      0.00000

 k-point    12 :      -0.3333    0.3333    0.0000
  band No.  band energies     occupation 
      1      -7.7560      2.00000
      2      -7.7560      2.00000
      3      -7.7560      2.00000
      4      -6.7175      2.00000
      5      -6.7175      2.00000
      6      -6.7175      2.00000
      7      -6.4665      2.00000
      8      -6.4162      2.00000
      9      -6.4162      2.00000
     10      -6.3923      2.00000
     11      -6.3923      2.00000
     12      -6.3923      2.00000
     13      -6.2868      2.00000
     14      -6.2868      2.00000
     15      -6.2868      2.00000
     16      -5.9707      2.00000
     17      -5.9707      2.00000
     18      -5.8038      2.00000
     19      -5.8038      2.00000
     20      -5.8038      2.00000
     21      -5.6242      2.00000
     22      -5.6242      2.00000
     23      -5.6242      2.00000
     24      -5.4461      2.00000
     25      -5.4461      2.00000
     26      -5.4461      2.00000
     27      -5.3674      2.00000
     28      -5.3674      2.00000
     29      -5.3674      2.00000
     30      -5.2524      2.00000
     31      -4.9128      2.00000
     32      -4.9128      2.00000
     33      -4.9050      2.00000
     34      -4.8932      2.00000
     35      -4.8722      2.00000
     36      -4.8722      2.00000
     37      -4.8722      2.00000
     38      -4.7822      2.00000
     39      -4.7822      2.00000
     40      -4.7822      2.00000
     41      -4.3612      2.00000
     42      -4.3612      2.00000
     43      -4.3612      2.00000
     44      -4.1954      2.00000
     45      -4.1954      2.00000
     46      -4.0300      2.00000
     47      -4.0300      2.00000
     48      -4.0300      2.00000
     49      -3.8518      2.00000
     50      -3.8518      2.00000
     51      -3.8518      2.00000
     52      -3.4685      2.00000
     53      -3.4685      2.00000
     54      -3.4685      2.00000
     55      -3.4005      2.00000
     56      -3.4005      2.00000
     57      -3.3538      2.00000
     58      -3.3538      2.00000
     59      -3.3538      2.00000
     60      -3.2878      2.00000
     61      -3.2522      2.00000
     62      -3.2522      2.00000
     63      -3.2522      2.00000
     64      -2.8454      2.00000
     65      -2.8454      2.00000
     66      -2.8454      2.00000
     67      -0.6900     -0.00000
     68      -0.6900     -0.00000
     69      -0.6900     -0.00000
     70       1.5870      0.00000
     71       1.8156      0.00000
     72       1.8156      0.00000
     73       2.8905      0.00000
     74       2.8905      0.00000
     75       2.8905      0.00000
     76       3.9742      0.00000
     77       4.0055      0.00000
     78       4.0055      0.00000
     79       5.0127      0.00000
     80       5.0127      0.00000
     81       5.0127      0.00000
     82       5.9427      0.00000
     83       5.9427      0.00000
     84       5.9427      0.00000
     85       5.9710      0.00000
     86       5.9710      0.00000
     87       5.9710      0.00000
     88       6.0020      0.00000
     89       6.0020      0.00000
     90       6.5503      0.00000
     91       7.0838      0.00000
     92       7.0838      0.00000
     93       7.0838      0.00000
     94       7.2033      0.00000
     95       7.2033      0.00000
     96       7.2033      0.00000


--------------------------------------------------------------------------------------------------------


 soft charge-density along one line, spin component           1
         0         1         2         3         4         5         6         7         8         9
 total charge-density along one line
 
 pseudopotential strength for first ion, spin component:           1
 -8.154  -0.000   0.000  -0.003   0.000  -8.298  -0.000   0.000
 -0.000  -8.120  -0.000   0.000  -0.003  -0.000  -8.265  -0.000
  0.000  -0.000  -8.119  -0.000   0.000   0.000  -0.000  -8.265
 -0.003   0.000  -0.000  -8.120  -0.000  -0.003   0.000  -0.000
  0.000  -0.003   0.000  -0.000  -8.154   0.000  -0.003   0.000
 -8.298  -0.000   0.000  -0.003   0.000  -8.427  -0.000   0.000
 -0.000  -8.265  -0.000   0.000  -0.003  -0.000  -8.395  -0.000
  0.000  -0.000  -8.265  -0.000   0.000   0.000  -0.000  -8.394
 -0.003   0.000  -0.000  -8.265  -0.000  -0.003   0.000  -0.000
  0.000  -0.003   0.000  -0.000  -8.298   0.000  -0.003   0.000
  0.000   0.000  -0.014   0.000   0.000   0.000   0.000  -0.014
  0.000   0.000  -0.020   0.000   0.000   0.000   0.000  -0.020
  0.000  -0.003  -0.000  -0.000   0.000   0.000  -0.003  -0.000
 -0.000   0.000  -0.005   0.000  -0.000  -0.000   0.000  -0.005
  0.000  -0.000  -0.000  -0.003   0.000   0.000  -0.000  -0.000
  0.000  -0.003  -0.000  -0.000   0.000   0.000  -0.002  -0.000
 -0.000   0.000  -0.005   0.000  -0.000  -0.000   0.000  -0.005
  0.000  -0.000  -0.000  -0.003   0.000   0.000  -0.000  -0.000
 total augmentation occupancy for first ion, spin component:           1
  4.047  -0.000  -0.000   0.057  -0.000  -2.023   0.000   0.000  -0.100   0.000  -0.000   0.000   0.000   0.000  -0.036  -0.000
 -0.000   3.661   0.000   0.000   0.057   0.000  -1.453  -0.000  -0.000  -0.100   0.000   0.000  -0.142   0.000  -0.000   0.004
 -0.000   0.000   4.086  -0.000   0.000   0.000  -0.000  -1.938   0.000  -0.000   0.591  -0.049  -0.000  -0.229   0.000   0.000
  0.057   0.000  -0.000   3.661   0.000  -0.100  -0.000   0.000  -1.453  -0.000  -0.000   0.000  -0.000   0.000  -0.142   0.000
 -0.000   0.057   0.000   0.000   4.047   0.000  -0.100  -0.000  -0.000  -2.023   0.000  -0.000  -0.036  -0.000  -0.000   0.001
 -2.023   0.000   0.000  -0.100   0.000   1.912  -0.000  -0.000   0.131  -0.000   0.000  -0.000  -0.000  -0.000   0.033   0.000
  0.000  -1.453  -0.000  -0.000  -0.100  -0.000   1.207   0.000   0.000   0.131   0.000  -0.000   0.136  -0.000   0.000  -0.006
  0.000  -0.000  -1.938   0.000  -0.000  -0.000   0.000   1.733  -0.000   0.000  -0.534   0.069   0.000   0.237  -0.000  -0.000
 -0.100  -0.000   0.000  -1.453  -0.000   0.131   0.000  -0.000   1.207   0.000  -0.000  -0.000   0.000  -0.000   0.136  -0.000
  0.000  -0.100  -0.000  -0.000  -2.023  -0.000   0.131   0.000   0.000   1.912  -0.000   0.000   0.033   0.000   0.000  -0.001
 -0.000   0.000   0.591   0.000   0.000   0.000  -0.000  -0.534  -0.000  -0.000   2.179  -0.471  -0.000   0.127   0.000   0.000
  0.000   0.000  -0.049  -0.000  -0.000  -0.000  -0.000   0.069  -0.000   0.000  -0.471   0.153  -0.000  -0.058   0.000  -0.000
  0.000  -0.142  -0.000  -0.000  -0.036  -0.000   0.136   0.000   0.000   0.033  -0.000   0.000   0.147   0.000   0.000  -0.005
  0.000   0.000  -0.229   0.000  -0.000  -0.000  -0.000   0.237  -0.000   0.000   0.127  -0.058  -0.000   0.083   0.000   0.000
 -0.036  -0.000   0.000  -0.142  -0.000   0.033   0.000  -0.000   0.136   0.000   0.000   0.000   0.000   0.000   0.147  -0.000
 -0.000   0.004   0.000   0.000   0.001   0.000  -0.006  -0.000  -0.000  -0.001  -0.000   0.000  -0.005  -0.000  -0.000   0.000
 -0.000  -0.000   0.002   0.000   0.000   0.000  -0.000  -0.007   0.000  -0.000  -0.008   0.003  -0.000  -0.003  -0.000   0.000
  0.001   0.000  -0.000   0.004   0.000  -0.001  -0.000   0.000  -0.006  -0.000   0.000  -0.000  -0.000   0.000  -0.005   0.000


------------------------ aborting loop because EDIFF is reached ----------------------------------------


 


 total charge     
 
# of ion     s       p       d       tot
----------------------------------------
  1        0.543   0.238   8.762   9.543
  2        0.543   0.238   8.762   9.543
  3        0.543   0.238   8.762   9.543
  4        0.543   0.238   8.762   9.543
  5        0.511   0.291   8.781   9.584
  6        0.511   0.291   8.781   9.584
  7        0.511   0.291   8.781   9.584
  8        0.511   0.291   8.781   9.584
  9        0.543   0.238   8.762   9.543
 10        0.543   0.238   8.762   9.543
 11        0.543   0.238   8.762   9.543
 12        0.543   0.238   8.762   9.543
------------------------------------------------
tot        6.388   3.071 105.223 114.682
 
    CHARGE:  cpu time    0.2116: real time    0.2115
    FORLOC:  cpu time    0.0049: real time    0.0049
    FORNL :  cpu time    2.3104: real time    2.3110
    STRESS:  cpu time    3.2652: real time    3.2684
    FORCOR:  cpu time    0.0276: real time    0.0276
    FORHAR:  cpu time    0.0094: real time    0.0094
    MIXING:  cpu time    0.0028: real time    0.0028
    OFIELD:  cpu time    0.0001: real time    0.0001

  FORCE on cell =-STRESS in cart. coord.  units (eV):
  Direction    XX          YY          ZZ          XY          YZ          ZX
  --------------------------------------------------------------------------------------
  Alpha Z   225.84439   225.84439   225.84439
  Ewald   53220.26861 53220.26860-60837.49802     0.00000     0.00000     0.00000
  Hartree 55764.52760 55764.52760-54768.84408     0.00000     0.00000     0.00000
  E(xc)    -591.42826  -591.42824  -594.83924    -0.00002     0.00000     0.00000
  Local  ************************113313.22383     0.00096    -0.00000    -0.00000
  n-local    -3.43136   -48.34341   -11.76358   -22.83001    -0.75206     0.46474
  augment   810.44368   810.44451   818.30589    -0.00072    -0.00000    -0.00001
  Kinetic  1824.30383  1834.55276  1855.93214     4.32124    -0.37779     0.43520
  Fock        0.00000     0.00000     0.00000     0.00000     0.00000     0.00000
  -------------------------------------------------------------------------------------
  Total     -10.70257   -10.70257     0.36133    -0.00000     0.00000     0.00000
  in kB     -23.08849   -23.08849     0.77949    -0.00000     0.00000     0.00000
  external pressure =      -15.13 kB  Pullay stress =        0.00 kB


 VOLUME and BASIS-vectors are now :
 -----------------------------------------------------------------------------
  energy-cutoff  :      400.00
  volume of cell :      742.68
      direct lattice vectors                 reciprocal lattice vectors
     5.880299990  0.000000000  0.000000000     0.170059351 -0.098183812  0.000000000
     2.940150000  5.092489180  0.000000000     0.000000000  0.196367624  0.000000000
     0.000000000  0.000000000 24.801244840     0.000000000  0.000000000  0.040320557

  length of vectors
     5.880299990  5.880299998 24.801244840     0.196367624  0.196367624  0.040320557


 FORCES acting on ions
    electron-ion (+dipol)            ewald-force                    non-local-force                 convergence-correction
 -----------------------------------------------------------------------------------------------
   -.893E-05 -.511E-05 0.206E+04   -.765E-06 -.507E-06 -.206E+04   0.249E-17 -.542E-18 -.239E+00   -.119E-08 -.696E-09 -.242E-02
   -.893E-05 -.511E-05 0.206E+04   -.765E-06 -.507E-06 -.206E+04   -.314E-17 -.141E-17 -.239E+00   -.119E-08 -.696E-09 -.242E-02
   -.893E-05 -.511E-05 0.206E+04   -.765E-06 -.507E-06 -.206E+04   -.493E-17 -.249E-17 -.239E+00   -.119E-08 -.696E-09 -.242E-02
   -.893E-05 -.511E-05 0.206E+04   -.765E-06 -.507E-06 -.206E+04   -.184E-17 0.976E-18 -.239E+00   -.119E-08 -.696E-09 -.242E-02
   0.834E-05 0.482E-05 -.529E-06   0.120E-05 0.691E-06 -.171E-12   -.182E-22 0.265E-22 0.414E-23   0.957E-09 0.553E-09 -.996E-10
   0.834E-05 0.482E-05 -.529E-06   0.120E-05 0.691E-06 0.568E-13   0.662E-23 -.265E-22 0.496E-23   0.957E-09 0.553E-09 -.996E-10
   0.834E-05 0.482E-05 -.529E-06   0.120E-05 0.691E-06 -.114E-12   0.132E-22 0.000E+00 0.807E-23   0.957E-09 0.553E-09 -.996E-10
   0.834E-05 0.482E-05 -.529E-06   0.120E-05 0.691E-06 -.114E-12   -.364E-22 0.000E+00 0.132E-22   0.957E-09 0.553E-09 -.995E-10
   0.172E-06 0.530E-07 -.206E+04   -.431E-06 -.184E-06 0.206E+04   0.260E-17 0.358E-17 0.239E+00   0.112E-09 0.735E-10 0.242E-02
   0.172E-06 0.530E-07 -.206E+04   -.431E-06 -.184E-06 0.206E+04   -.271E-17 -.651E-18 0.239E+00   0.112E-09 0.734E-10 0.242E-02
   0.172E-06 0.530E-07 -.206E+04   -.431E-06 -.184E-06 0.206E+04   -.249E-17 0.173E-17 0.239E+00   0.112E-09 0.735E-10 0.242E-02
   0.172E-06 0.530E-07 -.206E+04   -.431E-06 -.184E-06 0.206E+04   0.179E-17 0.141E-17 0.239E+00   0.112E-09 0.735E-10 0.242E-02
 -----------------------------------------------------------------------------------------------
   -.165E-05 -.953E-06 -.430E-05   -.267E-13 -.549E-14 0.000E+00   -.824E-17 0.260E-17 0.250E-15   -.484E-09 -.279E-09 -.757E-09
 
 
 POSITION                                       TOTAL-FORCE (eV/Angst)
 -----------------------------------------------------------------------------------
      1.47008      0.84875      9.98978         0.000000      0.000000     -0.026141
      4.41023      0.84875      9.98978         0.000000      0.000000     -0.026141
      2.94015      3.39499      9.98978         0.000000      0.000000     -0.026141
      5.88030      3.39499      9.98978         0.000000      0.000000     -0.026141
      5.88030      1.69750     12.40062         0.000000     -0.000000      0.000000
      2.94015      1.69750     12.40062        -0.000000     -0.000000      0.000000
      7.35037      4.24374     12.40062        -0.000000      0.000000      0.000000
      4.41022      4.24374     12.40062         0.000000     -0.000000      0.000000
      0.00000      0.00000     14.81146        -0.000000      0.000000      0.026141
      2.94015      0.00000     14.81146        -0.000000     -0.000000      0.026141
      1.47008      2.54624     14.81146        -0.000000     -0.000000      0.026141
      4.41022      2.54624     14.81146        -0.000000     -0.000000      0.026141
 -----------------------------------------------------------------------------------
    total drift:                               -0.000002     -0.000001     -0.000004


--------------------------------------------------------------------------------------------------------



  FREE ENERGIE OF THE ION-ELECTRON SYSTEM (eV)
  ---------------------------------------------------
  free  energy   TOTEN  =       -35.86583502 eV

  energy  without entropy=      -35.84949733  energy(sigma->0) =      -35.86038913
 


--------------------------------------------------------------------------------------------------------


    POTLOK:  cpu time    0.0324: real time    0.0324


--------------------------------------------------------------------------------------------------------


     LOOP+:  cpu time   68.2138: real time   68.4269
    4ORBIT:  cpu time    0.0000: real time    0.0000
 


 total charge     
 
# of ion     s       p       d       tot
----------------------------------------
  1        0.543   0.238   8.762   9.543
  2        0.543   0.238   8.762   9.543
  3        0.543   0.238   8.762   9.543
  4        0.543   0.238   8.762   9.543
  5        0.511   0.291   8.781   9.584
  6        0.511   0.291   8.781   9.584
  7        0.511   0.291   8.781   9.584
  8        0.511   0.291   8.781   9.584
  9        0.543   0.238   8.762   9.543
 10        0.543   0.238   8.762   9.543
 11        0.543   0.238   8.762   9.543
 12        0.543   0.238   8.762   9.543
------------------------------------------------
tot        6.388   3.071 105.223 114.682
 

 total amount of memory used by VASP on root node    75554. kBytes
========================================================================

   base      :      30000. kBytes
   nonl-proj :      26081. kBytes
   fftplans  :       1950. kBytes
   grid      :       6739. kBytes
   one-center:        186. kBytes
   wavefun   :      10598. kBytes
 
  
  
 General timing and accounting informations for this job:
 ========================================================
  
                  Total CPU time used (sec):       70.551
                            User time (sec):       69.102
                          System time (sec):        1.449
                         Elapsed time (sec):       70.999
  
                   Maximum memory used (kb):      124788.
                   Average memory used (kb):           0.
  
                          Minor page faults:        78999
                          Major page faults:           14
                 Voluntary context switches:         1543
