PROCAR new format
# of k-points:   12         # of bands:  96         # of ions:  12

 k-point    1 :    0.00000000 0.00000000 0.00000000     weight = 0.01234568

band   1 # energy   -9.74928389 # occ.  2.00000000
 
ion      s      p      d    tot
  1  0.028  0.002  0.000  0.030
  2  0.028  0.002  0.000  0.030
  3  0.028  0.002  0.000  0.030
  4  0.028  0.002  0.000  0.030
  5  0.083  0.000  0.002  0.085
  6  0.083  0.000  0.002  0.085
  7  0.083  0.000  0.002  0.085
  8  0.083  0.000  0.002  0.085
  9  0.028  0.002  0.000  0.030
 10  0.028  0.002  0.000  0.030
 11  0.028  0.002  0.000  0.030
 12  0.028  0.002  0.000  0.030
tot  0.552  0.015  0.009  0.576
 
band   2 # energy   -8.20300818 # occ.  2.00000000
 
ion      s      p      d    tot
  1  0.055  0.000  0.019  0.074
  2  0.055  0.000  0.019  0.074
  3  0.055  0.000  0.019  0.074
  4  0.055  0.000  0.019  0.074
  5  0.000  0.006  0.000  0.006
  6  0.000  0.006  0.000  0.006
  7  0.000  0.006  0.000  0.006
  8  0.000  0.006  0.000  0.006
  9  0.055  0.000  0.019  0.074
 10  0.055  0.000  0.019  0.074
 11  0.055  0.000  0.019  0.074
 12  0.055  0.000  0.019  0.074
tot  0.439  0.027  0.155  0.622
 
band   3 # energy   -7.82312147 # occ.  2.00000000
 
ion      s      p      d    tot
  1  0.019  0.000  0.029  0.049
  2  0.019  0.000  0.029  0.049
  3  0.019  0.000  0.029  0.049
  4  0.019  0.000  0.029  0.049
  5  0.018  0.000  0.073  0.092
  6  0.018  0.000  0.073  0.092
  7  0.018  0.000  0.073  0.092
  8  0.018  0.000  0.073  0.092
  9  0.019  0.000  0.029  0.049
 10  0.019  0.000  0.029  0.049
 11  0.019  0.000  0.029  0.049
 12  0.019  0.000  0.029  0.049
tot  0.227  0.002  0.527  0.756
 
band   4 # energy   -7.53511092 # occ.  2.00000000
 
ion      s      p      d    tot
  1  0.002  0.001  0.015  0.018
  2  0.002  0.001  0.015  0.018
  3  0.002  0.001  0.015  0.018
  4  0.002  0.001  0.015  0.018
  5  0.025  0.000  0.138  0.163
  6  0.025  0.000  0.138  0.163
  7  0.025  0.000  0.138  0.163
  8  0.025  0.000  0.138  0.163
  9  0.002  0.001  0.015  0.018
 10  0.002  0.001  0.015  0.018
 11  0.002  0.001  0.015  0.018
 12  0.002  0.001  0.015  0.018
tot  0.119  0.009  0.669  0.797
 
band   5 # energy   -7.53511071 # occ.  2.00000000
 
ion      s      p      d    tot
  1  0.002  0.001  0.015  0.018
  2  0.002  0.001  0.015  0.018
  3  0.002  0.001  0.015  0.018
  4  0.002  0.001  0.015  0.018
  5  0.025  0.000  0.138  0.163
  6  0.025  0.000  0.138  0.163
  7  0.025  0.000  0.138  0.163
  8  0.025  0.000  0.138  0.163
  9  0.002  0.001  0.015  0.018
 10  0.002  0.001  0.015  0.018
 11  0.002  0.001  0.015  0.018
 12  0.002  0.001  0.015  0.018
tot  0.119  0.009  0.669  0.797
 
band   6 # energy   -7.53511070 # occ.  2.00000000
 
ion      s      p      d    tot
  1  0.002  0.001  0.015  0.018
  2  0.002  0.001  0.015  0.018
  3  0.002  0.001  0.015  0.018
  4  0.002  0.001  0.015  0.018
  5  0.025  0.000  0.138  0.163
  6  0.025  0.000  0.138  0.163
  7  0.025  0.000  0.138  0.163
  8  0.025  0.000  0.138  0.163
  9  0.002  0.001  0.015  0.018
 10  0.002  0.001  0.015  0.018
 11  0.002  0.001  0.015  0.018
 12  0.002  0.001  0.015  0.018
tot  0.119  0.009  0.669  0.797
 
band   7 # energy   -7.27588920 # occ.  2.00000000
 
ion      s      p      d    tot
  1  0.009  0.001  0.049  0.059
  2  0.009  0.001  0.049  0.059
  3  0.009  0.001  0.049  0.059
  4  0.009  0.001  0.049  0.059
  5  0.000  0.000  0.082  0.082
  6  0.000  0.000  0.082  0.082
  7  0.000  0.000  0.082  0.082
  8  0.000  0.000  0.082  0.082
  9  0.009  0.001  0.049  0.059
 10  0.009  0.001  0.049  0.059
 11  0.009  0.001  0.049  0.059
 12  0.009  0.001  0.049  0.059
tot  0.073  0.004  0.723  0.800
 
band   8 # energy   -7.27588914 # occ.  2.00000000
 
ion      s      p      d    tot
  1  0.009  0.001  0.049  0.059
  2  0.009  0.001  0.049  0.059
  3  0.009  0.001  0.049  0.059
  4  0.009  0.001  0.049  0.059
  5  0.000  0.000  0.082  0.082
  6  0.000  0.000  0.082  0.082
  7  0.000  0.000  0.082  0.082
  8  0.000  0.000  0.082  0.082
  9  0.009  0.001  0.049  0.059
 10  0.009  0.001  0.049  0.059
 11  0.009  0.001  0.049  0.059
 12  0.009  0.001  0.049  0.059
tot  0.073  0.004  0.723  0.800
 
band   9 # energy   -7.27588914 # occ.  2.00000000
 
ion      s      p      d    tot
  1  0.009  0.001  0.049  0.059
  2  0.009  0.001  0.049  0.059
  3  0.009  0.001  0.049  0.059
  4  0.009  0.001  0.049  0.059
  5  0.000  0.000  0.082  0.082
  6  0.000  0.000  0.082  0.082
  7  0.000  0.000  0.082  0.082
  8  0.000  0.000  0.082  0.082
  9  0.009  0.001  0.049  0.059
 10  0.009  0.001  0.049  0.059
 11  0.009  0.001  0.049  0.059
 12  0.009  0.001  0.049  0.059
tot  0.073  0.004  0.723  0.800
 
band  10 # energy   -6.95676955 # occ.  2.00000000
 
ion      s      p      d    tot
  1  0.000  0.001  0.055  0.056
  2  0.000  0.001  0.055  0.056
  3  0.000  0.001  0.055  0.056
  4  0.000  0.001  0.055  0.056
  5  0.003  0.000  0.096  0.099
  6  0.003  0.000  0.096  0.099
  7  0.003  0.000  0.096  0.099
  8  0.003  0.000  0.096  0.099
  9  0.000  0.001  0.055  0.056
 10  0.000  0.001  0.055  0.056
 11  0.000  0.001  0.055  0.056
 12  0.000  0.001  0.055  0.056
tot  0.012  0.010  0.820  0.843
 
band  11 # energy   -6.95676955 # occ.  2.00000000
 
ion      s      p      d    tot
  1  0.000  0.001  0.055  0.056
  2  0.000  0.001  0.055  0.056
  3  0.000  0.001  0.055  0.056
  4  0.000  0.001  0.055  0.056
  5  0.003  0.000  0.096  0.099
  6  0.003  0.000  0.096  0.099
  7  0.003  0.000  0.096  0.099
  8  0.003  0.000  0.096  0.099
  9  0.000  0.001  0.055  0.056
 10  0.000  0.001  0.055  0.056
 11  0.000  0.001  0.055  0.056
 12  0.000  0.001  0.055  0.056
tot  0.012  0.010  0.820  0.843
 
band  12 # energy   -6.95676919 # occ.  2.00000000
 
ion      s      p      d    tot
  1  0.000  0.001  0.055  0.056
  2  0.000  0.001  0.055  0.056
  3  0.000  0.001  0.055  0.056
  4  0.000  0.001  0.055  0.056
  5  0.003  0.000  0.096  0.099
  6  0.003  0.000  0.096  0.099
  7  0.003  0.000  0.096  0.099
  8  0.003  0.000  0.096  0.099
  9  0.000  0.001  0.055  0.056
 10  0.000  0.001  0.055  0.056
 11  0.000  0.001  0.055  0.056
 12  0.000  0.001  0.055  0.056
tot  0.012  0.010  0.820  0.843
 
band  13 # energy   -6.80868567 # occ.  2.00000000
 
ion      s      p      d    tot
  1  0.009  0.000  0.094  0.102
  2  0.009  0.000  0.094  0.102
  3  0.009  0.000  0.094  0.102
  4  0.009  0.000  0.094  0.102
  5  0.000  0.002  0.000  0.002
  6  0.000  0.002  0.000  0.002
  7  0.000  0.002  0.000  0.002
  8  0.000  0.002  0.000  0.002
  9  0.009  0.000  0.094  0.102
 10  0.009  0.000  0.094  0.102
 11  0.009  0.000  0.094  0.102
 12  0.009  0.000  0.094  0.102
tot  0.068  0.007  0.750  0.825
 
band  14 # energy   -6.80868565 # occ.  2.00000000
 
ion      s      p      d    tot
  1  0.009  0.000  0.094  0.102
  2  0.009  0.000  0.094  0.102
  3  0.009  0.000  0.094  0.102
  4  0.009  0.000  0.094  0.102
  5  0.000  0.002  0.000  0.002
  6  0.000  0.002  0.000  0.002
  7  0.000  0.002  0.000  0.002
  8  0.000  0.002  0.000  0.002
  9  0.009  0.000  0.094  0.102
 10  0.009  0.000  0.094  0.102
 11  0.009  0.000  0.094  0.102
 12  0.009  0.000  0.094  0.102
tot  0.068  0.007  0.750  0.825
 
band  15 # energy   -6.80868551 # occ.  2.00000000
 
ion      s      p      d    tot
  1  0.009  0.000  0.094  0.102
  2  0.009  0.000  0.094  0.102
  3  0.009  0.000  0.094  0.102
  4  0.009  0.000  0.094  0.102
  5  0.000  0.002  0.000  0.002
  6  0.000  0.002  0.000  0.002
  7  0.000  0.002  0.000  0.002
  8  0.000  0.002  0.000  0.002
  9  0.009  0.000  0.094  0.102
 10  0.009  0.000  0.094  0.102
 11  0.009  0.000  0.094  0.102
 12  0.009  0.000  0.094  0.102
tot  0.068  0.007  0.750  0.825
 
band  16 # energy   -5.76406203 # occ.  2.00000000
 
ion      s      p      d    tot
  1  0.000  0.000  0.100  0.100
  2  0.000  0.000  0.100  0.100
  3  0.000  0.000  0.100  0.100
  4  0.000  0.000  0.100  0.100
  5  0.000  0.007  0.000  0.007
  6  0.000  0.007  0.000  0.007
  7  0.000  0.007  0.000  0.007
  8  0.000  0.007  0.000  0.007
  9  0.000  0.000  0.100  0.100
 10  0.000  0.000  0.100  0.100
 11  0.000  0.000  0.100  0.100
 12  0.000  0.000  0.100  0.100
tot  0.001  0.030  0.800  0.831
 
band  17 # energy   -5.76406202 # occ.  2.00000000
 
ion      s      p      d    tot
  1  0.000  0.000  0.100  0.100
  2  0.000  0.000  0.100  0.100
  3  0.000  0.000  0.100  0.100
  4  0.000  0.000  0.100  0.100
  5  0.000  0.007  0.000  0.007
  6  0.000  0.007  0.000  0.007
  7  0.000  0.007  0.000  0.007
  8  0.000  0.007  0.000  0.007
  9  0.000  0.000  0.100  0.100
 10  0.000  0.000  0.100  0.100
 11  0.000  0.000  0.100  0.100
 12  0.000  0.000  0.100  0.100
tot  0.001  0.030  0.800  0.831
 
band  18 # energy   -5.76406178 # occ.  2.00000000
 
ion      s      p      d    tot
  1  0.000  0.000  0.100  0.100
  2  0.000  0.000  0.100  0.100
  3  0.000  0.000  0.100  0.100
  4  0.000  0.000  0.100  0.100
  5  0.000  0.007  0.000  0.007
  6  0.000  0.007  0.000  0.007
  7  0.000  0.007  0.000  0.007
  8  0.000  0.007  0.000  0.007
  9  0.000  0.000  0.100  0.100
 10  0.000  0.000  0.100  0.100
 11  0.000  0.000  0.100  0.100
 12  0.000  0.000  0.100  0.100
tot  0.001  0.030  0.800  0.831
 
band  19 # energy   -5.61221555 # occ.  2.00000000
 
ion      s      p      d    tot
  1  0.000  0.000  0.060  0.060
  2  0.000  0.000  0.060  0.060
  3  0.000  0.000  0.060  0.060
  4  0.000  0.000  0.060  0.060
  5  0.001  0.000  0.103  0.104
  6  0.001  0.000  0.103  0.104
  7  0.001  0.000  0.103  0.104
  8  0.001  0.000  0.103  0.104
  9  0.000  0.000  0.060  0.060
 10  0.000  0.000  0.060  0.060
 11  0.000  0.000  0.060  0.060
 12  0.000  0.000  0.060  0.060
tot  0.003  0.003  0.893  0.899
 
band  20 # energy   -5.61221554 # occ.  2.00000000
 
ion      s      p      d    tot
  1  0.000  0.000  0.060  0.060
  2  0.000  0.000  0.060  0.060
  3  0.000  0.000  0.060  0.060
  4  0.000  0.000  0.060  0.060
  5  0.001  0.000  0.103  0.104
  6  0.001  0.000  0.103  0.104
  7  0.001  0.000  0.103  0.104
  8  0.001  0.000  0.103  0.104
  9  0.000  0.000  0.060  0.060
 10  0.000  0.000  0.060  0.060
 11  0.000  0.000  0.060  0.060
 12  0.000  0.000  0.060  0.060
tot  0.003  0.003  0.893  0.899
 
band  21 # energy   -5.61221498 # occ.  2.00000000
 
ion      s      p      d    tot
  1  0.000  0.000  0.060  0.060
  2  0.000  0.000  0.060  0.060
  3  0.000  0.000  0.060  0.060
  4  0.000  0.000  0.060  0.060
  5  0.001  0.000  0.103  0.104
  6  0.001  0.000  0.103  0.104
  7  0.001  0.000  0.103  0.104
  8  0.001  0.000  0.103  0.104
  9  0.000  0.000  0.060  0.060
 10  0.000  0.000  0.060  0.060
 11  0.000  0.000  0.060  0.060
 12  0.000  0.000  0.060  0.060
tot  0.003  0.003  0.893  0.899
 
band  22 # energy   -5.52787111 # occ.  2.00000000
 
ion      s      p      d    tot
  1  0.000  0.001  0.053  0.055
  2  0.000  0.001  0.053  0.055
  3  0.000  0.001  0.053  0.055
  4  0.000  0.001  0.053  0.055
  5  0.002  0.000  0.116  0.118
  6  0.002  0.000  0.116  0.118
  7  0.002  0.000  0.116  0.118
  8  0.002  0.000  0.116  0.118
  9  0.000  0.001  0.053  0.055
 10  0.000  0.001  0.053  0.055
 11  0.000  0.001  0.053  0.055
 12  0.000  0.001  0.053  0.055
tot  0.007  0.009  0.891  0.907
 
band  23 # energy   -5.49240265 # occ.  2.00000000
 
ion      s      p      d    tot
  1  0.000  0.000  0.010  0.010
  2  0.000  0.000  0.010  0.010
  3  0.000  0.000  0.010  0.010
  4  0.000  0.000  0.010  0.010
  5  0.000  0.000  0.211  0.211
  6  0.000  0.000  0.211  0.211
  7  0.000  0.000  0.211  0.211
  8  0.000  0.000  0.211  0.211
  9  0.000  0.000  0.010  0.010
 10  0.000  0.000  0.010  0.010
 11  0.000  0.000  0.010  0.010
 12  0.000  0.000  0.010  0.010
tot  0.000  0.000  0.923  0.923
 
band  24 # energy   -5.49240202 # occ.  2.00000000
 
ion      s      p      d    tot
  1  0.000  0.000  0.010  0.010
  2  0.000  0.000  0.010  0.010
  3  0.000  0.000  0.010  0.010
  4  0.000  0.000  0.010  0.010
  5  0.000  0.000  0.211  0.211
  6  0.000  0.000  0.211  0.211
  7  0.000  0.000  0.211  0.211
  8  0.000  0.000  0.211  0.211
  9  0.000  0.000  0.010  0.010
 10  0.000  0.000  0.010  0.010
 11  0.000  0.000  0.010  0.010
 12  0.000  0.000  0.010  0.010
tot  0.000  0.000  0.923  0.923
 
band  25 # energy   -5.18099399 # occ.  2.00000000
 
ion      s      p      d    tot
  1  0.000  0.000  0.095  0.095
  2  0.000  0.000  0.095  0.095
  3  0.000  0.000  0.095  0.095
  4  0.000  0.000  0.095  0.095
  5  0.000  0.000  0.042  0.042
  6  0.000  0.000  0.042  0.042
  7  0.000  0.000  0.042  0.042
  8  0.000  0.000  0.042  0.042
  9  0.000  0.000  0.095  0.095
 10  0.000  0.000  0.095  0.095
 11  0.000  0.000  0.095  0.095
 12  0.000  0.000  0.095  0.095
tot  0.000  0.000  0.926  0.926
 
band  26 # energy   -5.18099347 # occ.  2.00000000
 
ion      s      p      d    tot
  1  0.000  0.000  0.095  0.095
  2  0.000  0.000  0.095  0.095
  3  0.000  0.000  0.095  0.095
  4  0.000  0.000  0.095  0.095
  5  0.000  0.000  0.042  0.042
  6  0.000  0.000  0.042  0.042
  7  0.000  0.000  0.042  0.042
  8  0.000  0.000  0.042  0.042
  9  0.000  0.000  0.095  0.095
 10  0.000  0.000  0.095  0.095
 11  0.000  0.000  0.095  0.095
 12  0.000  0.000  0.095  0.095
tot  0.000  0.000  0.926  0.926
 
band  27 # energy   -5.11667957 # occ.  2.00000000
 
ion      s      p      d    tot
  1  0.000  0.000  0.043  0.043
  2  0.000  0.000  0.043  0.043
  3  0.000  0.000  0.043  0.043
  4  0.000  0.000  0.043  0.043
  5  0.000  0.000  0.145  0.145
  6  0.000  0.000  0.145  0.145
  7  0.000  0.000  0.145  0.145
  8  0.000  0.000  0.145  0.145
  9  0.000  0.000  0.043  0.043
 10  0.000  0.000  0.043  0.043
 11  0.000  0.000  0.043  0.043
 12  0.000  0.000  0.043  0.043
tot  0.000  0.002  0.919  0.921
 
band  28 # energy   -5.11667957 # occ.  2.00000000
 
ion      s      p      d    tot
  1  0.000  0.000  0.043  0.043
  2  0.000  0.000  0.043  0.043
  3  0.000  0.000  0.043  0.043
  4  0.000  0.000  0.043  0.043
  5  0.000  0.000  0.145  0.145
  6  0.000  0.000  0.145  0.145
  7  0.000  0.000  0.145  0.145
  8  0.000  0.000  0.145  0.145
  9  0.000  0.000  0.043  0.043
 10  0.000  0.000  0.043  0.043
 11  0.000  0.000  0.043  0.043
 12  0.000  0.000  0.043  0.043
tot  0.000  0.002  0.919  0.921
 
band  29 # energy   -5.11667951 # occ.  2.00000000
 
ion      s      p      d    tot
  1  0.000  0.000  0.043  0.043
  2  0.000  0.000  0.043  0.043
  3  0.000  0.000  0.043  0.043
  4  0.000  0.000  0.043  0.043
  5  0.000  0.000  0.145  0.145
  6  0.000  0.000  0.145  0.145
  7  0.000  0.000  0.145  0.145
  8  0.000  0.000  0.145  0.145
  9  0.000  0.000  0.043  0.043
 10  0.000  0.000  0.043  0.043
 11  0.000  0.000  0.043  0.043
 12  0.000  0.000  0.043  0.043
tot  0.000  0.002  0.919  0.921
 
band  30 # energy   -5.07918724 # occ.  2.00000000
 
ion      s      p      d    tot
  1  0.007  0.001  0.088  0.096
  2  0.007  0.001  0.088  0.096
  3  0.007  0.001  0.088  0.096
  4  0.007  0.001  0.088  0.096
  5  0.000  0.011  0.000  0.011
  6  0.000  0.011  0.000  0.011
  7  0.000  0.011  0.000  0.011
  8  0.000  0.011  0.000  0.011
  9  0.007  0.001  0.088  0.096
 10  0.007  0.001  0.088  0.096
 11  0.007  0.001  0.088  0.096
 12  0.007  0.001  0.088  0.096
tot  0.059  0.051  0.701  0.810
 
band  31 # energy   -5.01124615 # occ.  2.00000000
 
ion      s      p      d    tot
  1  0.000  0.000  0.116  0.116
  2  0.000  0.000  0.116  0.116
  3  0.000  0.000  0.116  0.116
  4  0.000  0.000  0.116  0.116
  5  0.000  0.000  0.000  0.000
  6  0.000  0.000  0.000  0.000
  7  0.000  0.000  0.000  0.000
  8  0.000  0.000  0.000  0.000
  9  0.000  0.000  0.116  0.116
 10  0.000  0.000  0.116  0.116
 11  0.000  0.000  0.116  0.116
 12  0.000  0.000  0.116  0.116
tot  0.000  0.000  0.928  0.928
 
band  32 # energy   -5.01124545 # occ.  2.00000000
 
ion      s      p      d    tot
  1  0.000  0.000  0.116  0.116
  2  0.000  0.000  0.116  0.116
  3  0.000  0.000  0.116  0.116
  4  0.000  0.000  0.116  0.116
  5  0.000  0.000  0.000  0.000
  6  0.000  0.000  0.000  0.000
  7  0.000  0.000  0.000  0.000
  8  0.000  0.000  0.000  0.000
  9  0.000  0.000  0.116  0.116
 10  0.000  0.000  0.116  0.116
 11  0.000  0.000  0.116  0.116
 12  0.000  0.000  0.116  0.116
tot  0.000  0.000  0.928  0.928
 
band  33 # energy   -4.54182403 # occ.  2.00000000
 
ion      s      p      d    tot
  1  0.006  0.000  0.092  0.099
  2  0.006  0.000  0.092  0.098
  3  0.006  0.000  0.092  0.098
  4  0.006  0.000  0.092  0.099
  5  0.000  0.014  0.000  0.014
  6  0.000  0.014  0.000  0.014
  7  0.000  0.014  0.000  0.014
  8  0.000  0.014  0.000  0.014
  9  0.006  0.000  0.092  0.099
 10  0.006  0.000  0.092  0.098
 11  0.006  0.000  0.092  0.098
 12  0.006  0.000  0.092  0.099
tot  0.052  0.058  0.733  0.843
 
band  34 # energy   -4.54182402 # occ.  2.00000000
 
ion      s      p      d    tot
  1  0.006  0.000  0.092  0.098
  2  0.006  0.000  0.092  0.099
  3  0.006  0.000  0.092  0.099
  4  0.006  0.000  0.092  0.098
  5  0.000  0.014  0.000  0.014
  6  0.000  0.014  0.000  0.014
  7  0.000  0.014  0.000  0.014
  8  0.000  0.014  0.000  0.014
  9  0.006  0.000  0.092  0.098
 10  0.006  0.000  0.092  0.099
 11  0.006  0.000  0.092  0.099
 12  0.006  0.000  0.092  0.098
tot  0.052  0.058  0.733  0.843
 
band  35 # energy   -4.54182381 # occ.  2.00000000
 
ion      s      p      d    tot
  1  0.006  0.000  0.092  0.099
  2  0.006  0.000  0.092  0.099
  3  0.006  0.000  0.092  0.099
  4  0.006  0.000  0.092  0.099
  5  0.000  0.014  0.000  0.014
  6  0.000  0.014  0.000  0.014
  7  0.000  0.014  0.000  0.014
  8  0.000  0.014  0.000  0.014
  9  0.006  0.000  0.092  0.099
 10  0.006  0.000  0.092  0.099
 11  0.006  0.000  0.092  0.099
 12  0.006  0.000  0.092  0.099
tot  0.052  0.058  0.733  0.843
 
band  36 # energy   -4.10088552 # occ.  2.00000000
 
ion      s      p      d    tot
  1  0.000  0.000  0.048  0.048
  2  0.000  0.000  0.048  0.048
  3  0.000  0.000  0.048  0.048
  4  0.000  0.000  0.048  0.048
  5  0.000  0.000  0.143  0.143
  6  0.000  0.000  0.143  0.143
  7  0.000  0.000  0.143  0.143
  8  0.000  0.000  0.143  0.143
  9  0.000  0.000  0.048  0.048
 10  0.000  0.000  0.048  0.048
 11  0.000  0.000  0.048  0.048
 12  0.000  0.000  0.048  0.048
tot  0.000  0.000  0.958  0.958
 
band  37 # energy   -4.10088536 # occ.  2.00000000
 
ion      s      p      d    tot
  1  0.000  0.000  0.048  0.048
  2  0.000  0.000  0.048  0.048
  3  0.000  0.000  0.048  0.048
  4  0.000  0.000  0.048  0.048
  5  0.000  0.000  0.143  0.143
  6  0.000  0.000  0.143  0.143
  7  0.000  0.000  0.143  0.143
  8  0.000  0.000  0.143  0.143
  9  0.000  0.000  0.048  0.048
 10  0.000  0.000  0.048  0.048
 11  0.000  0.000  0.048  0.048
 12  0.000  0.000  0.048  0.048
tot  0.000  0.000  0.958  0.958
 
band  38 # energy   -4.03618747 # occ.  2.00000000
 
ion      s      p      d    tot
  1  0.000  0.000  0.117  0.117
  2  0.000  0.000  0.117  0.117
  3  0.000  0.000  0.117  0.117
  4  0.000  0.000  0.117  0.117
  5  0.000  0.001  0.000  0.001
  6  0.000  0.001  0.000  0.001
  7  0.000  0.001  0.000  0.001
  8  0.000  0.001  0.000  0.001
  9  0.000  0.000  0.117  0.117
 10  0.000  0.000  0.117  0.117
 11  0.000  0.000  0.117  0.117
 12  0.000  0.000  0.117  0.117
tot  0.000  0.004  0.935  0.938
 
band  39 # energy   -4.03618742 # occ.  2.00000000
 
ion      s      p      d    tot
  1  0.000  0.000  0.117  0.117
  2  0.000  0.000  0.117  0.117
  3  0.000  0.000  0.117  0.117
  4  0.000  0.000  0.117  0.117
  5  0.000  0.001  0.000  0.001
  6  0.000  0.001  0.000  0.001
  7  0.000  0.001  0.000  0.001
  8  0.000  0.001  0.000  0.001
  9  0.000  0.000  0.117  0.117
 10  0.000  0.000  0.117  0.117
 11  0.000  0.000  0.117  0.117
 12  0.000  0.000  0.117  0.117
tot  0.000  0.004  0.935  0.938
 
band  40 # energy   -4.03618742 # occ.  2.00000000
 
ion      s      p      d    tot
  1  0.000  0.000  0.117  0.117
  2  0.000  0.000  0.117  0.117
  3  0.000  0.000  0.117  0.117
  4  0.000  0.000  0.117  0.117
  5  0.000  0.001  0.000  0.001
  6  0.000  0.001  0.000  0.001
  7  0.000  0.001  0.000  0.001
  8  0.000  0.001  0.000  0.001
  9  0.000  0.000  0.117  0.117
 10  0.000  0.000  0.117  0.117
 11  0.000  0.000  0.117  0.117
 12  0.000  0.000  0.117  0.117
tot  0.000  0.004  0.935  0.938
 
band  41 # energy   -3.81824079 # occ.  2.00000000
 
ion      s      p      d    tot
  1  0.000  0.004  0.049  0.053
  2  0.000  0.004  0.049  0.053
  3  0.000  0.004  0.049  0.053
  4  0.000  0.004  0.049  0.053
  5  0.002  0.000  0.115  0.117
  6  0.002  0.000  0.115  0.117
  7  0.002  0.000  0.115  0.117
  8  0.002  0.000  0.115  0.117
  9  0.000  0.004  0.049  0.053
 10  0.000  0.004  0.049  0.053
 11  0.000  0.004  0.049  0.053
 12  0.000  0.004  0.049  0.053
tot  0.007  0.034  0.852  0.893
 
band  42 # energy   -3.81824079 # occ.  2.00000000
 
ion      s      p      d    tot
  1  0.000  0.004  0.049  0.053
  2  0.000  0.004  0.049  0.053
  3  0.000  0.004  0.049  0.053
  4  0.000  0.004  0.049  0.053
  5  0.002  0.000  0.115  0.117
  6  0.002  0.000  0.115  0.117
  7  0.002  0.000  0.115  0.117
  8  0.002  0.000  0.115  0.117
  9  0.000  0.004  0.049  0.053
 10  0.000  0.004  0.049  0.053
 11  0.000  0.004  0.049  0.053
 12  0.000  0.004  0.049  0.053
tot  0.007  0.034  0.852  0.893
 
band  43 # energy   -3.81824064 # occ.  2.00000000
 
ion      s      p      d    tot
  1  0.000  0.004  0.049  0.053
  2  0.000  0.004  0.049  0.053
  3  0.000  0.004  0.049  0.053
  4  0.000  0.004  0.049  0.053
  5  0.002  0.000  0.115  0.117
  6  0.002  0.000  0.115  0.117
  7  0.002  0.000  0.115  0.117
  8  0.002  0.000  0.115  0.117
  9  0.000  0.004  0.049  0.053
 10  0.000  0.004  0.049  0.053
 11  0.000  0.004  0.049  0.053
 12  0.000  0.004  0.049  0.053
tot  0.007  0.034  0.852  0.893
 
band  44 # energy   -3.61953931 # occ.  2.00000000
 
ion      s      p      d    tot
  1  0.000  0.000  0.120  0.120
  2  0.000  0.000  0.120  0.120
  3  0.000  0.000  0.120  0.120
  4  0.000  0.000  0.120  0.120
  5  0.000  0.000  0.000  0.000
  6  0.000  0.000  0.000  0.000
  7  0.000  0.000  0.000  0.000
  8  0.000  0.000  0.000  0.000
  9  0.000  0.000  0.120  0.120
 10  0.000  0.000  0.120  0.120
 11  0.000  0.000  0.120  0.120
 12  0.000  0.000  0.120  0.120
tot  0.000  0.001  0.957  0.958
 
band  45 # energy   -3.61953917 # occ.  2.00000000
 
ion      s      p      d    tot
  1  0.000  0.000  0.120  0.120
  2  0.000  0.000  0.120  0.120
  3  0.000  0.000  0.120  0.120
  4  0.000  0.000  0.120  0.120
  5  0.000  0.000  0.000  0.000
  6  0.000  0.000  0.000  0.000
  7  0.000  0.000  0.000  0.000
  8  0.000  0.000  0.000  0.000
  9  0.000  0.000  0.120  0.120
 10  0.000  0.000  0.120  0.120
 11  0.000  0.000  0.120  0.120
 12  0.000  0.000  0.120  0.120
tot  0.000  0.001  0.957  0.958
 
band  46 # energy   -3.29258970 # occ.  2.00000000
 
ion      s      p      d    tot
  1  0.000  0.000  0.066  0.066
  2  0.000  0.000  0.066  0.066
  3  0.000  0.000  0.066  0.066
  4  0.000  0.000  0.066  0.066
  5  0.000  0.000  0.110  0.110
  6  0.000  0.000  0.110  0.110
  7  0.000  0.000  0.110  0.110
  8  0.000  0.000  0.110  0.110
  9  0.000  0.000  0.066  0.066
 10  0.000  0.000  0.066  0.066
 11  0.000  0.000  0.066  0.066
 12  0.000  0.000  0.066  0.066
tot  0.000  0.001  0.968  0.969
 
band  47 # energy   -3.29258956 # occ.  2.00000000
 
ion      s      p      d    tot
  1  0.000  0.000  0.066  0.066
  2  0.000  0.000  0.066  0.066
  3  0.000  0.000  0.066  0.066
  4  0.000  0.000  0.066  0.066
  5  0.000  0.000  0.110  0.110
  6  0.000  0.000  0.110  0.110
  7  0.000  0.000  0.110  0.110
  8  0.000  0.000  0.110  0.110
  9  0.000  0.000  0.066  0.066
 10  0.000  0.000  0.066  0.066
 11  0.000  0.000  0.066  0.066
 12  0.000  0.000  0.066  0.066
tot  0.000  0.001  0.968  0.969
 
band  48 # energy   -3.29258955 # occ.  2.00000000
 
ion      s      p      d    tot
  1  0.000  0.000  0.066  0.066
  2  0.000  0.000  0.066  0.066
  3  0.000  0.000  0.066  0.066
  4  0.000  0.000  0.066  0.066
  5  0.000  0.000  0.110  0.110
  6  0.000  0.000  0.110  0.110
  7  0.000  0.000  0.110  0.110
  8  0.000  0.000  0.110  0.110
  9  0.000  0.000  0.066  0.066
 10  0.000  0.000  0.066  0.066
 11  0.000  0.000  0.066  0.066
 12  0.000  0.000  0.066  0.066
tot  0.000  0.001  0.968  0.969
 
band  49 # energy   -3.18506953 # occ.  2.00000000
 
ion      s      p      d    tot
  1  0.000  0.000  0.084  0.084
  2  0.000  0.000  0.084  0.084
  3  0.000  0.000  0.084  0.084
  4  0.000  0.000  0.084  0.084
  5  0.000  0.000  0.075  0.075
  6  0.000  0.000  0.075  0.075
  7  0.000  0.000  0.075  0.075
  8  0.000  0.000  0.075  0.075
  9  0.000  0.000  0.084  0.084
 10  0.000  0.000  0.084  0.084
 11  0.000  0.000  0.084  0.084
 12  0.000  0.000  0.084  0.084
tot  0.000  0.000  0.971  0.971
 
band  50 # energy   -3.18506936 # occ.  2.00000000
 
ion      s      p      d    tot
  1  0.000  0.000  0.084  0.084
  2  0.000  0.000  0.084  0.084
  3  0.000  0.000  0.084  0.084
  4  0.000  0.000  0.084  0.084
  5  0.000  0.000  0.075  0.075
  6  0.000  0.000  0.075  0.075
  7  0.000  0.000  0.075  0.075
  8  0.000  0.000  0.075  0.075
  9  0.000  0.000  0.084  0.084
 10  0.000  0.000  0.084  0.084
 11  0.000  0.000  0.084  0.084
 12  0.000  0.000  0.084  0.084
tot  0.000  0.000  0.971  0.971
 
band  51 # energy   -3.18100215 # occ.  2.00000000
 
ion      s      p      d    tot
  1  0.001  0.001  0.087  0.089
  2  0.001  0.001  0.087  0.089
  3  0.001  0.001  0.087  0.089
  4  0.001  0.001  0.087  0.089
  5  0.000  0.000  0.058  0.058
  6  0.000  0.000  0.058  0.058
  7  0.000  0.000  0.058  0.058
  8  0.000  0.000  0.058  0.058
  9  0.001  0.001  0.087  0.089
 10  0.001  0.001  0.087  0.089
 11  0.001  0.001  0.087  0.089
 12  0.001  0.001  0.087  0.089
tot  0.010  0.007  0.924  0.941
 
band  52 # energy   -3.18100189 # occ.  2.00000000
 
ion      s      p      d    tot
  1  0.001  0.001  0.087  0.089
  2  0.001  0.001  0.087  0.089
  3  0.001  0.001  0.087  0.089
  4  0.001  0.001  0.087  0.089
  5  0.000  0.000  0.058  0.058
  6  0.000  0.000  0.058  0.058
  7  0.000  0.000  0.058  0.058
  8  0.000  0.000  0.058  0.058
  9  0.001  0.001  0.087  0.089
 10  0.001  0.001  0.087  0.089
 11  0.001  0.001  0.087  0.089
 12  0.001  0.001  0.087  0.089
tot  0.010  0.007  0.924  0.941
 
band  53 # energy   -3.18100188 # occ.  2.00000000
 
ion      s      p      d    tot
  1  0.001  0.001  0.087  0.089
  2  0.001  0.001  0.087  0.089
  3  0.001  0.001  0.087  0.089
  4  0.001  0.001  0.087  0.089
  5  0.000  0.000  0.058  0.058
  6  0.000  0.000  0.058  0.058
  7  0.000  0.000  0.058  0.058
  8  0.000  0.000  0.058  0.058
  9  0.001  0.001  0.087  0.089
 10  0.001  0.001  0.087  0.089
 11  0.001  0.001  0.087  0.089
 12  0.001  0.001  0.087  0.089
tot  0.010  0.007  0.924  0.941
 
band  54 # energy   -3.06872854 # occ.  2.00000000
 
ion      s      p      d    tot
  1  0.000  0.000  0.016  0.016
  2  0.000  0.000  0.016  0.016
  3  0.000  0.000  0.016  0.016
  4  0.000  0.000  0.016  0.016
  5  0.000  0.000  0.212  0.212
  6  0.000  0.000  0.212  0.212
  7  0.000  0.000  0.212  0.212
  8  0.000  0.000  0.212  0.212
  9  0.000  0.000  0.016  0.016
 10  0.000  0.000  0.016  0.016
 11  0.000  0.000  0.016  0.016
 12  0.000  0.000  0.016  0.016
tot  0.000  0.000  0.980  0.980
 
band  55 # energy   -3.06872772 # occ.  2.00000000
 
ion      s      p      d    tot
  1  0.000  0.000  0.016  0.016
  2  0.000  0.000  0.016  0.016
  3  0.000  0.000  0.016  0.016
  4  0.000  0.000  0.016  0.016
  5  0.000  0.000  0.212  0.212
  6  0.000  0.000  0.212  0.212
  7  0.000  0.000  0.212  0.212
  8  0.000  0.000  0.212  0.212
  9  0.000  0.000  0.016  0.016
 10  0.000  0.000  0.016  0.016
 11  0.000  0.000  0.016  0.016
 12  0.000  0.000  0.016  0.016
tot  0.000  0.000  0.980  0.980
 
band  56 # energy   -3.06872772 # occ.  2.00000000
 
ion      s      p      d    tot
  1  0.000  0.000  0.016  0.016
  2  0.000  0.000  0.016  0.016
  3  0.000  0.000  0.016  0.016
  4  0.000  0.000  0.016  0.016
  5  0.000  0.000  0.212  0.212
  6  0.000  0.000  0.212  0.212
  7  0.000  0.000  0.212  0.212
  8  0.000  0.000  0.212  0.212
  9  0.000  0.000  0.016  0.016
 10  0.000  0.000  0.016  0.016
 11  0.000  0.000  0.016  0.016
 12  0.000  0.000  0.016  0.016
tot  0.000  0.000  0.980  0.980
 
band  57 # energy   -2.74074991 # occ.  2.00000000
 
ion      s      p      d    tot
  1  0.000  0.000  0.123  0.123
  2  0.000  0.000  0.123  0.123
  3  0.000  0.000  0.123  0.123
  4  0.000  0.000  0.123  0.123
  5  0.000  0.000  0.000  0.000
  6  0.000  0.000  0.000  0.000
  7  0.000  0.000  0.000  0.000
  8  0.000  0.000  0.000  0.000
  9  0.000  0.000  0.123  0.123
 10  0.000  0.000  0.123  0.123
 11  0.000  0.000  0.123  0.123
 12  0.000  0.000  0.123  0.123
tot  0.000  0.000  0.982  0.982
 
band  58 # energy   -2.74074913 # occ.  2.00000000
 
ion      s      p      d    tot
  1  0.000  0.000  0.123  0.123
  2  0.000  0.000  0.123  0.123
  3  0.000  0.000  0.123  0.123
  4  0.000  0.000  0.123  0.123
  5  0.000  0.000  0.000  0.000
  6  0.000  0.000  0.000  0.000
  7  0.000  0.000  0.000  0.000
  8  0.000  0.000  0.000  0.000
  9  0.000  0.000  0.123  0.123
 10  0.000  0.000  0.123  0.123
 11  0.000  0.000  0.123  0.123
 12  0.000  0.000  0.123  0.123
tot  0.000  0.000  0.982  0.982
 
band  59 # energy   -2.74074912 # occ.  2.00000000
 
ion      s      p      d    tot
  1  0.000  0.000  0.123  0.123
  2  0.000  0.000  0.123  0.123
  3  0.000  0.000  0.123  0.123
  4  0.000  0.000  0.123  0.123
  5  0.000  0.000  0.000  0.000
  6  0.000  0.000  0.000  0.000
  7  0.000  0.000  0.000  0.000
  8  0.000  0.000  0.000  0.000
  9  0.000  0.000  0.123  0.123
 10  0.000  0.000  0.123  0.123
 11  0.000  0.000  0.123  0.123
 12  0.000  0.000  0.123  0.123
tot  0.000  0.000  0.982  0.982
 
band  60 # energy   -2.71895383 # occ.  2.00000000
 
ion      s      p      d    tot
  1  0.016  0.010  0.025  0.051
  2  0.016  0.010  0.025  0.051