<?xml version="1.0" encoding="ISO-8859-1"?>
<modeling>
 <generator>
  <i name="program" type="string">vasp </i>
  <i name="version" type="string">5.4.1  </i>
  <i name="subversion" type="string">05Feb16 (build Feb 08 2018 09:21:51) complex                          parallel </i>
  <i name="platform" type="string">LinuxIFC </i>
  <i name="date" type="string">2019 11 21 </i>
  <i name="time" type="string">23:49:32 </i>
 </generator>
 <incar>
  <i type="string" name="PREC">normal</i>
  <i name="ENCUT">    400.00000000</i>
  <i type="int" name="ISMEAR">     1</i>
  <i name="SIGMA">      0.10000000</i>
  <i type="logical" name="LWAVE"> F  </i>
  <i type="logical" name="LCHARG"> F  </i>
  <i type="logical" name="LORBIT"> F  </i>
  <v type="int" name="KPOINT_BSE">    -1     0     0     0</v>
 </incar>
 <kpoints>
  <generation param="Monkhorst-Pack">
   <v type="int" name="divisions">       9        9        1 </v>
   <v name="usershift">      0.00000000       0.00000000       0.00000000 </v>
   <v name="genvec1">      0.11111111       0.00000000       0.00000000 </v>
   <v name="genvec2">      0.00000000       0.11111111       0.00000000 </v>
   <v name="genvec3">      0.00000000       0.00000000       1.00000000 </v>
   <v name="shift">      0.00000000       0.00000000       0.00000000 </v>
  </generation>
  <varray name="kpointlist" >
   <v>       0.00000000       0.00000000       0.00000000 </v>
   <v>       0.11111111       0.00000000       0.00000000 </v>
   <v>       0.22222222       0.00000000       0.00000000 </v>
   <v>       0.33333333       0.00000000       0.00000000 </v>
   <v>       0.44444444       0.00000000       0.00000000 </v>
   <v>       0.22222222       0.11111111       0.00000000 </v>
   <v>       0.33333333       0.11111111       0.00000000 </v>
   <v>       0.44444444       0.11111111       0.00000000 </v>
   <v>      -0.44444444       0.11111111       0.00000000 </v>
   <v>       0.44444444       0.22222222       0.00000000 </v>
   <v>      -0.44444444       0.22222222       0.00000000 </v>
   <v>      -0.33333333       0.33333333       0.00000000 </v>
  </varray>
  <varray name="weights" >
   <v>       0.01234568 </v>
   <v>       0.07407407 </v>
   <v>       0.07407407 </v>
   <v>       0.07407407 </v>
   <v>       0.07407407 </v>
   <v>       0.07407407 </v>
   <v>       0.14814815 </v>
   <v>       0.14814815 </v>
   <v>       0.07407407 </v>
   <v>       0.07407407 </v>
   <v>       0.14814815 </v>
   <v>       0.02469136 </v>
  </varray>
 </kpoints>
 <parameters>
  <separator name="general" >
   <i type="string" name="SYSTEM">unknown system</i>
   <i type="logical" name="LCOMPAT"> F  </i>
  </separator>
  <separator name="electronic" >
   <i type="string" name="PREC">normal</i>
   <i name="ENMAX">    400.00000000</i>
   <i name="ENAUG">    356.67000000</i>
   <i name="EDIFF">      0.00010000</i>
   <i type="int" name="IALGO">    38</i>
   <i type="int" name="IWAVPR">    10</i>
   <i type="int" name="NBANDS">    96</i>
   <i name="NELECT">    132.00000000</i>
   <i type="int" name="TURBO">     0</i>
   <i type="int" name="IRESTART">     0</i>
   <i type="int" name="NREBOOT">     0</i>
   <i type="int" name="NMIN">     0</i>
   <i name="EREF">      0.00000000</i>
   <separator name="electronic smearing" >
    <i type="int" name="ISMEAR">     1</i>
    <i name="SIGMA">      0.10000000</i>
    <i name="KSPACING">      0.50000000</i>
    <i type="logical" name="KGAMMA"> T  </i>
   </separator>
   <separator name="electronic projectors" >
    <i type="logical" name="LREAL"> F  </i>
    <v name="ROPT">      0.00000000</v>
    <i type="int" name="LMAXPAW">  -100</i>
    <i type="int" name="LMAXMIX">     2</i>
    <i type="logical" name="NLSPLINE"> F  </i>
   </separator>
   <separator name="electronic startup" >
    <i type="int" name="ISTART">     0</i>
    <i type="int" name="ICHARG">     2</i>
    <i type="int" name="INIWAV">     1</i>
   </separator>
   <separator name="electronic spin" >
    <i type="int" name="ISPIN">     1</i>
    <i type="logical" name="LNONCOLLINEAR"> F  </i>
    <v name="MAGMOM">      1.00000000      1.00000000      1.00000000      1.00000000      1.00000000      1.00000000      1.00000000      1.00000000      1.00000000      1.00000000      1.00000000      1.00000000</v>
    <i name="NUPDOWN">     -1.00000000</i>
    <i type="logical" name="LSORBIT"> F  </i>
    <v name="SAXIS">      0.00000000      0.00000000      1.00000000</v>
    <i type="logical" name="LSPIRAL"> F  </i>
    <v name="QSPIRAL">      0.00000000      0.00000000      0.00000000</v>
    <i type="logical" name="LZEROZ"> F  </i>
   </separator>
   <separator name="electronic exchange-correlation" >
    <i type="logical" name="LASPH"> F  </i>
    <i type="logical" name="LMETAGGA"> F  </i>
   </separator>
   <separator name="electronic convergence" >
    <i type="int" name="NELM">    60</i>
    <i type="int" name="NELMDL">    -5</i>
    <i type="int" name="NELMIN">     2</i>
    <i name="ENINI">    400.00000000</i>
    <separator name="electronic convergence detail" >
     <i type="logical" name="LDIAG"> T  </i>
     <i type="logical" name="LSUBROT"> F  </i>
     <i name="WEIMIN">      0.00000000</i>
     <i name="EBREAK">      0.00000026</i>
     <i name="DEPER">      0.30000000</i>
     <i type="int" name="NRMM">     4</i>
     <i name="TIME">      0.40000000</i>
    </separator>
   </separator>
   <separator name="electronic mixer" >
    <i name="AMIX">      0.40000000</i>
    <i name="BMIX">      1.00000000</i>
    <i name="AMIN">      0.10000000</i>
    <i name="AMIX_MAG">      1.60000000</i>
    <i name="BMIX_MAG">      1.00000000</i>
    <separator name="electronic mixer details" >
     <i type="int" name="IMIX">     4</i>
     <i type="logical" name="MIXFIRST"> F  </i>
     <i type="int" name="MAXMIX">   -45</i>
     <i name="WC">    100.00000000</i>
     <i type="int" name="INIMIX">     1</i>
     <i type="int" name="MIXPRE">     1</i>
     <i type="int" name="MREMOVE">     5</i>
    </separator>
   </separator>
   <separator name="electronic dipolcorrection" >
    <i type="logical" name="LDIPOL"> F  </i>
    <i type="logical" name="LMONO"> F  </i>
    <i type="int" name="IDIPOL">     0</i>
    <i name="EPSILON">      1.00000000</i>
    <v name="DIPOL">   -100.00000000   -100.00000000   -100.00000000</v>
    <i name="EFIELD">      0.00000000</i>
   </separator>
  </separator>
  <separator name="grids" >
   <i type="int" name="NGX">    30</i>
   <i type="int" name="NGY">    30</i>
   <i type="int" name="NGZ">   126</i>
   <i type="int" name="NGXF">    60</i>
   <i type="int" name="NGYF">    60</i>
   <i type="int" name="NGZF">   252</i>
   <i type="logical" name="ADDGRID"> F  </i>
  </separator>
  <separator name="ionic" >
   <i type="int" name="NSW">     0</i>
   <i type="int" name="IBRION">    -1</i>
   <i type="int" name="ISIF">     2</i>
   <i name="PSTRESS">      0.00000000</i>
   <i name="EDIFFG">      0.00100000</i>
   <i type="int" name="NFREE">     0</i>
   <i name="POTIM">      0.50000000</i>
   <i name="SMASS">     -3.00000000</i>
   <i name="SCALEE">      1.00000000</i>
  </separator>
  <separator name="ionic md" >
   <i name="TEBEG">      0.00010000</i>
   <i name="TEEND">      0.00010000</i>
   <i type="int" name="NBLOCK">     1</i>
   <i type="int" name="KBLOCK">     1</i>
   <i type="int" name="NPACO">   256</i>
   <i name="APACO">     16.00000000</i>
  </separator>
  <separator name="symmetry" >
   <i type="int" name="ISYM">     2</i>
   <i name="SYMPREC">      0.00001000</i>
  </separator>
  <separator name="dos" >
   <i type="logical" name="LORBIT"> F  </i>
   <v name="RWIGS">     -1.00000000</v>
   <i type="int" name="NEDOS">   301</i>
   <i name="EMIN">     10.00000000</i>
   <i name="EMAX">    -10.00000000</i>
   <i name="EFERMI">      0.00000000</i>
  </separator>
  <separator name="writing" >
   <i type="int" name="NWRITE">     2</i>
   <i type="logical" name="LWAVE"> F  </i>
   <i type="logical" name="LCHARG"> F  </i>
   <i type="logical" name="LPARD"> F  </i>
   <i type="logical" name="LVTOT"> F  </i>
   <i type="logical" name="LVHAR"> F  </i>
   <i type="logical" name="LELF"> F  </i>
   <i type="logical" name="LOPTICS"> F  </i>
   <v name="STM">      0.00000000      0.00000000      0.00000000      0.00000000      0.00000000      0.00000000      0.00000000</v>
  </separator>
  <separator name="performance" >
   <i type="int" name="NPAR">    24</i>
   <i type="int" name="NSIM">     4</i>
   <i type="int" name="NBLK">    -1</i>
   <i type="logical" name="LPLANE"> T  </i>
   <i type="logical" name="LSCALAPACK"> F  </i>
   <i type="logical" name="LSCAAWARE"> F  </i>
   <i type="logical" name="LSCALU"> F  </i>
   <i type="logical" name="LASYNC"> F  </i>
   <i type="logical" name="LORBITALREAL"> F  </i>
  </separator>
  <separator name="miscellaneous" >
   <i type="int" name="IDIOT">     3</i>
   <i type="logical" name="LMUSIC"> F  </i>
   <v name="POMASS">    196.96600000</v>
   <v name="DARWINR">      0.00000000</v>
   <v name="DARWINV">      1.00000000</v>
   <i type="logical" name="LCORR"> T  </i>
  </separator>
  <i type="logical" name="GGA_COMPAT"> T  </i>
  <i type="logical" name="LBERRY"> F  </i>
  <i type="int" name="ICORELEVEL">     0</i>
  <i type="logical" name="LDAU"> F  </i>
  <i type="int" name="I_CONSTRAINED_M">     0</i>
  <separator name="electronic exchange-correlation" >
   <i type="string" name="GGA">--</i>
   <i type="int" name="VOSKOWN">     0</i>
   <i type="logical" name="LHFCALC"> F  </i>
   <i type="string" name="PRECFOCK"></i>
   <i type="logical" name="LSYMGRAD"> F  </i>
   <i type="logical" name="LHFONE"> F  </i>
   <i type="logical" name="LRHFCALC"> F  </i>
   <i type="logical" name="LTHOMAS"> F  </i>
   <i type="logical" name="LMODELHF"> F  </i>
   <i name="ENCUT4O">     -1.00000000</i>
   <i type="int" name="EXXOEP">     0</i>
   <i type="int" name="FOURORBIT">     0</i>
   <i name="AEXX">      0.00000000</i>
   <i name="HFALPHA">      0.00000000</i>
   <i name="MCALPHA">      0.00000000</i>
   <i name="ALDAX">      1.00000000</i>
   <i name="AGGAX">      1.00000000</i>
   <i name="ALDAC">      1.00000000</i>
   <i name="AGGAC">      1.00000000</i>
   <i type="int" name="NKREDX">     1</i>
   <i type="int" name="NKREDY">     1</i>
   <i type="int" name="NKREDZ">     1</i>
   <i type="logical" name="SHIFTRED"> F  </i>
   <i type="logical" name="ODDONLY"> F  </i>
   <i type="logical" name="EVENONLY"> F  </i>
   <i type="int" name="LMAXFOCK">     0</i>
   <i type="int" name="NMAXFOCKAE">     0</i>
   <i type="logical" name="LFOCKAEDFT"> F  </i>
   <i name="HFSCREEN">      0.00000000</i>
   <i name="HFSCREENC">      0.00000000</i>
   <i type="int" name="NBANDSGWLOW">     0</i>
  </separator>
  <separator name="vdW DFT" >
   <i type="logical" name="LUSE_VDW"> F  </i>
   <i name="Zab_VDW">     -0.84910000</i>
   <i name="PARAM1">      0.12340000</i>
   <i name="PARAM2">      1.00000000</i>
   <i name="PARAM3">      0.00000000</i>
  </separator>
  <separator name="model GW" >
   <i type="int" name="MODEL_GW">     0</i>
   <i name="MODEL_EPS0">     37.13411531</i>
   <i name="MODEL_ALPHA">      1.00000000</i>
  </separator>
  <separator name="linear response parameters" >
   <i type="logical" name="LEPSILON"> F  </i>
   <i type="logical" name="LRPA"> F  </i>
   <i type="logical" name="LNABLA"> F  </i>
   <i type="logical" name="LVEL"> F  </i>
   <i type="int" name="KINTER">     0</i>
   <i name="CSHIFT">      0.10000000</i>
   <i name="OMEGAMAX">     -1.00000000</i>
   <i name="DEG_THRESHOLD">      0.00200000</i>
  </separator>
  <separator name="orbital magnetization" >
   <i type="logical" name="NUCIND"> F  </i>
   <v name="MAGPOS">      0.00000000      0.00000000      0.00000000</v>
   <i type="logical" name="LNICSALL"> T  </i>
   <i type="logical" name="ORBITALMAG"> F  </i>
   <i type="logical" name="LMAGBLOCH"> F  </i>
   <i type="logical" name="LCHIMAG"> F  </i>
   <i type="logical" name="LGAUGE"> T  </i>
   <i type="int" name="MAGATOM">     0</i>
   <v name="MAGDIPOL">      0.00000000      0.00000000      0.00000000</v>
   <v name="AVECCONST">      0.00000000      0.00000000      0.00000000</v>
  </separator>
  <separator name="response functions" >
   <i type="logical" name="LADDER"> F  </i>
   <i type="logical" name="LFXC"> F  </i>
   <i type="logical" name="LHARTREE"> T  </i>
   <i type="int" name="IBSE">     0</i>
   <v type="int" name="KPOINT">    -1     0     0     0</v>
   <i type="logical" name="LTCTE"> F  </i>
   <i type="logical" name="LTETE"> F  </i>
   <i type="logical" name="LTRIPLET"> F  </i>
   <i type="logical" name="LFXCEPS"> F  </i>
   <i type="logical" name="LFXHEG"> F  </i>
   <i type="int" name="NATURALO">     0</i>
   <i type="logical" name="L2ORDER"> F  </i>
   <i type="logical" name="LUSEW"> F  </i>
   <i name="ENCUTGW">     -2.00000000</i>
   <i name="ENCUTGWSOFT">     -2.00000000</i>
   <i name="ENCUTLF">     -1.00000000</i>
   <i type="int" name="LMAXMP2">    -1</i>
   <i name="SCISSOR">      0.00000000</i>
   <i type="int" name="NOMEGA">     0</i>
   <i type="int" name="NOMEGAR">     0</i>
   <i type="int" name="NBANDSGW">    -1</i>
   <i type="int" name="NBANDSO">    -1</i>
   <i type="int" name="NBANDSV">    -1</i>
   <i type="int" name="NELM">     1</i>
   <i type="int" name="NELMHF">     1</i>
   <i type="int" name="DIM">     3</i>
   <i type="int" name="ANTIRES">     0</i>
   <i name="OMEGAMAX">    -30.00000000</i>
   <i name="OMEGAMIN">    -30.00000000</i>
   <i name="OMEGATL">   -200.00000000</i>
   <i type="int" name="OMEGAGRID">     0</i>
   <i name="CSHIFT">     -0.10000000</i>
   <i type="logical" name="SELFENERGY"> F  </i>
   <i type="logical" name="LSPECTRAL"> F  </i>
   <i type="logical" name="LSPECTRALGW"> F  </i>
   <i type="logical" name="LSINGLES"> F  </i>
   <i type="logical" name="LFERMIGW"> F  </i>
   <i type="logical" name="ODDONLYGW"> F  </i>
   <i type="logical" name="EVENONLYGW"> F  </i>
   <i type="int" name="NKREDLFX">     1</i>
   <i type="int" name="NKREDLFY">     1</i>
   <i type="int" name="NKREDLFZ">     1</i>
   <i type="int" name="MAXMEM">  1800</i>
   <i type="int" name="TELESCOPE">     0</i>
   <i type="int" name="TAUPAR">     1</i>
   <i type="int" name="OMEGAPAR">    -1</i>
   <i name="LAMBDA">      1.00000000</i>
  </separator>
  <separator name="External order field" >
   <i name="OFIELD_KAPPA">      0.00000000</i>
   <v name="OFIELD_K">      0.00000000      0.00000000      0.00000000</v>
   <i name="OFIELD_Q6_NEAR">      0.00000000</i>
   <i name="OFIELD_Q6_FAR">      0.00000000</i>
   <i name="OFIELD_A">      0.00000000</i>
  </separator>
 </parameters>
 <atominfo>
  <atoms>      12 </atoms>
  <types>       1 </types>
  <array name="atoms" >
   <dimension dim="1">ion</dimension>
   <field type="string">element</field>
   <field type="int">atomtype</field>
   <set>
    <rc><c>Au</c><c>   1</c></rc>
    <rc><c>Au</c><c>   1</c></rc>
    <rc><c>Au</c><c>   1</c></rc>
    <rc><c>Au</c><c>   1</c></rc>
    <rc><c>Au</c><c>   1</c></rc>
    <rc><c>Au</c><c>   1</c></rc>
    <rc><c>Au</c><c>   1</c></rc>
    <rc><c>Au</c><c>   1</c></rc>
    <rc><c>Au</c><c>   1</c></rc>
    <rc><c>Au</c><c>   1</c></rc>
    <rc><c>Au</c><c>   1</c></rc>
    <rc><c>Au</c><c>   1</c></rc>
   </set>
  </array>
  <array name="atomtypes" >
   <dimension dim="1">type</dimension>
   <field type="int">atomspertype</field>
   <field type="string">element</field>
   <field>mass</field>
   <field>valence</field>
   <field type="string">pseudopotential</field>
   <set>
    <rc><c>  12</c><c>Au</c><c>    196.96600000</c><c>     11.00000000</c><c>  PAW_PBE Au 04Oct2007                  </c></rc>
   </set>
  </array>
 </atominfo>
 <structure name="initialpos" >
  <crystal>
   <varray name="basis" >
    <v>       5.88029999       0.00000000       0.00000000 </v>
    <v>       2.94015000       5.09248918       0.00000000 </v>
    <v>       0.00000000       0.00000000      24.80124484 </v>
   </varray>
   <i name="volume">    742.68230623 </i>
   <varray name="rec_basis" >
    <v>       0.17005935      -0.09818381       0.00000000 </v>
    <v>       0.00000000       0.19636762       0.00000000 </v>
    <v>       0.00000000       0.00000000       0.04032056 </v>
   </varray>
  </crystal>
  <varray name="positions" >
   <v>       0.16666667       0.16666667       0.40279360 </v>
   <v>       0.66666667       0.16666667       0.40279360 </v>
   <v>       0.16666667       0.66666667       0.40279360 </v>
   <v>       0.66666667       0.66666667       0.40279360 </v>
   <v>       0.83333333       0.33333333       0.50000000 </v>
   <v>       0.33333333       0.33333333       0.50000000 </v>
   <v>       0.83333333       0.83333333       0.50000000 </v>
   <v>       0.33333333       0.83333333       0.50000000 </v>
   <v>       0.00000000       0.00000000       0.59720640 </v>
   <v>       0.50000000       0.00000000       0.59720640 </v>
   <v>       0.00000000       0.50000000       0.59720640 </v>
   <v>       0.50000000       0.50000000       0.59720640 </v>
  </varray>
 </structure>
 <calculation>
  <scstep>
   <time name="dav">    3.89    3.89</time>
   <time name="total">    3.94    3.95</time>
   <energy>
    <i name="alphaZ">    225.84438837 </i>
    <i name="ewald">  45603.05135447 </i>
    <i name="hartreedc"> -56919.07658882 </i>
    <i name="XCdc">    182.05161600 </i>
    <i name="pawpsdc">  10489.17004023 </i>
    <i name="pawaedc"> -10212.12161789 </i>
    <i name="eentropy">     -0.00301090 </i>
    <i name="bandstr">    265.30551009 </i>
    <i name="atom">  11112.96622521 </i>
    <i name="e_fr_energy">    747.18791676 </i>
    <i name="e_wo_entrp">    747.19092766 </i>
    <i name="e_0_energy">    747.18892039 </i>
   </energy>
  </scstep>
  <scstep>
   <time name="dav">    4.11    4.12</time>
   <time name="total">    4.11    4.13</time>
   <energy>
    <i name="e_fr_energy">     -4.54365611 </i>
    <i name="e_wo_entrp">     -4.54671787 </i>
    <i name="e_0_energy">     -4.54467670 </i>
   </energy>
  </scstep>
  <scstep>
   <time name="dav">    4.09    4.10</time>
   <time name="total">    4.09    4.11</time>
   <energy>
    <i name="e_fr_energy">    -38.34661643 </i>
    <i name="e_wo_entrp">    -38.34399008 </i>
    <i name="e_0_energy">    -38.34574098 </i>
   </energy>
  </scstep>
  <scstep>
   <time name="dav">    4.05    4.06</time>
   <time name="total">    4.05    4.07</time>
   <energy>
    <i name="e_fr_energy">    -38.77876790 </i>
    <i name="e_wo_entrp">    -38.77597763 </i>
    <i name="e_0_energy">    -38.77783781 </i>
   </energy>
  </scstep>
  <scstep>
   <time name="dav">    5.27    5.28</time>
   <time name="total">    5.42    5.44</time>
   <energy>
    <i name="e_fr_energy">    -38.78539251 </i>
    <i name="e_wo_entrp">    -38.78260034 </i>
    <i name="e_0_energy">    -38.78446179 </i>
   </energy>
  </scstep>
  <scstep>
   <time name="dav">    4.59    4.60</time>
   <time name="total">    4.76    4.77</time>
   <energy>
    <i name="e_fr_energy">    -36.00430646 </i>
    <i name="e_wo_entrp">    -35.98857884 </i>
    <i name="e_0_energy">    -35.99906392 </i>
   </energy>
  </scstep>
  <scstep>
   <time name="dav">    3.80    3.80</time>
   <time name="total">    3.96    3.97</time>
   <energy>
    <i name="e_fr_energy">    -35.88615983 </i>
    <i name="e_wo_entrp">    -35.87531130 </i>
    <i name="e_0_energy">    -35.88254366 </i>
   </energy>
  </scstep>
  <scstep>
   <time name="dav">    3.91    3.92</time>
   <time name="total">    4.07    4.08</time>
   <energy>
    <i name="e_fr_energy">    -35.87581543 </i>
    <i name="e_wo_entrp">    -35.85395374 </i>
    <i name="e_0_energy">    -35.86852820 </i>
   </energy>
  </scstep>
  <scstep>
   <time name="dav">    3.86    3.90</time>
   <time name="total">    4.02    4.06</time>
   <energy>
    <i name="e_fr_energy">    -35.86404218 </i>
    <i name="e_wo_entrp">    -35.84804321 </i>
    <i name="e_0_energy">    -35.85870919 </i>
   </energy>
  </scstep>
  <scstep>
   <time name="dav">    3.90    3.91</time>
   <time name="total">    4.05    4.07</time>
   <energy>
    <i name="e_fr_energy">    -35.86447993 </i>
    <i name="e_wo_entrp">    -35.84823323 </i>
    <i name="e_0_energy">    -35.85906437 </i>
   </energy>
  </scstep>
  <scstep>
   <time name="dav">    3.52    3.53</time>
   <time name="total">    3.68    3.69</time>
   <energy>
    <i name="e_fr_energy">    -35.86482788 </i>
    <i name="e_wo_entrp">    -35.84847125 </i>
    <i name="e_0_energy">    -35.85937567 </i>
   </energy>
  </scstep>
  <scstep>
   <time name="dav">    3.14    3.14</time>
   <time name="total">    3.30    3.31</time>
   <energy>
    <i name="e_fr_energy">    -35.86524272 </i>
    <i name="e_wo_entrp">    -35.84891135 </i>
    <i name="e_0_energy">    -35.85979893 </i>
   </energy>
  </scstep>
  <scstep>
   <time name="dav">    3.17    3.18</time>
   <time name="total">    3.33    3.34</time>
   <energy>
    <i name="e_fr_energy">    -35.86537469 </i>
    <i name="e_wo_entrp">    -35.84901944 </i>
    <i name="e_0_energy">    -35.85992294 </i>
   </energy>
  </scstep>
  <scstep>
   <time name="dav">    3.05    3.06</time>
   <time name="total">    3.21    3.22</time>
   <energy>
    <i name="e_fr_energy">    -35.86568717 </i>
    <i name="e_wo_entrp">    -35.84936200 </i>
    <i name="e_0_energy">    -35.86024545 </i>
   </energy>
  </scstep>
  <scstep>
   <time name="dav">    3.12    3.12</time>
   <time name="total">    3.28    3.28</time>
   <energy>
    <i name="e_fr_energy">    -35.86579535 </i>
    <i name="e_wo_entrp">    -35.84946321 </i>
    <i name="e_0_energy">    -35.86035130 </i>
   </energy>
  </scstep>
  <scstep>
   <time name="dav">    3.01    3.01</time>
   <time name="total">    3.04    3.05</time>
   <energy>
    <i name="alphaZ">    225.84438837 </i>
    <i name="ewald">  45603.05135447 </i>
    <i name="hartreedc"> -56760.24315629 </i>
    <i name="XCdc">    176.42019641 </i>
    <i name="pawpsdc">  11934.60242430 </i>
    <i name="pawaedc"> -11683.24894802 </i>
    <i name="eentropy">     -0.01633769 </i>
    <i name="bandstr">   -645.24198176 </i>
    <i name="atom">  11112.96622521 </i>
    <i name="e_fr_energy">    -35.86583502 </i>
    <i name="e_wo_entrp">    -35.84949733 </i>
    <i name="e_0_energy">    -35.86038913 </i>
   </energy>
  </scstep>
  <structure>
   <crystal>
    <varray name="basis" >
     <v>       5.88029999       0.00000000       0.00000000 </v>
     <v>       2.94015000       5.09248918       0.00000000 </v>
     <v>       0.00000000       0.00000000      24.80124484 </v>
    </varray>
    <i name="volume">    742.68230623 </i>
    <varray name="rec_basis" >
     <v>       0.17005935      -0.09818381       0.00000000 </v>
     <v>       0.00000000       0.19636762       0.00000000 </v>
     <v>       0.00000000       0.00000000       0.04032056 </v>
    </varray>
   </crystal>
   <varray name="positions" >
    <v>       0.16666667       0.16666667       0.40279360 </v>
    <v>       0.66666667       0.16666667       0.40279360 </v>
    <v>       0.16666667       0.66666667       0.40279360 </v>
    <v>       0.66666667       0.66666667       0.40279360 </v>
    <v>       0.83333333       0.33333333       0.50000000 </v>
    <v>       0.33333333       0.33333333       0.50000000 </v>
    <v>       0.83333333       0.83333333       0.50000000 </v>
    <v>       0.33333333       0.83333333       0.50000000 </v>
    <v>       0.00000000       0.00000000       0.59720640 </v>
    <v>       0.50000000       0.00000000       0.59720640 </v>
    <v>       0.00000000       0.50000000       0.59720640 </v>
    <v>       0.50000000       0.50000000       0.59720640 </v>
   </varray>
  </structure>
  <varray name="forces" >
   <v>       0.00000000       0.00000000      -0.02614138 </v>
   <v>       0.00000000       0.00000000      -0.02614138 </v>
   <v>       0.00000000       0.00000000      -0.02614138 </v>
   <v>       0.00000000       0.00000000      -0.02614138 </v>
   <v>       0.00000000      -0.00000000       0.00000000 </v>
   <v>      -0.00000000      -0.00000000       0.00000000 </v>
   <v>      -0.00000000       0.00000000       0.00000000 </v>
   <v>       0.00000000      -0.00000000       0.00000000 </v>
   <v>      -0.00000000       0.00000000       0.02614138 </v>
   <v>      -0.00000000      -0.00000000       0.02614138 </v>
   <v>      -0.00000000      -0.00000000       0.02614138 </v>
   <v>      -0.00000000      -0.00000000       0.02614138 </v>
  </varray>
  <varray name="stress" >
   <v>     -23.08848564      -0.00000002       0.00000000 </v>
   <v>      -0.00000002     -23.08848571       0.00000000 </v>
   <v>       0.00000000       0.00000000       0.77948531 </v>
  </varray>
  <energy>
   <i name="e_fr_energy">    -35.86583502 </i>
   <i name="e_wo_entrp">    -35.86038913 </i>
   <i name="e_0_energy">     -0.01633769 </i>
  </energy>
  <time name="totalsc">   68.21   68.43</time>
  <eigenvalues>
   <array>
    <dimension dim="1">band</dimension>
    <dimension dim="2">kpoint</dimension>
    <dimension dim="3">spin</dimension>
    <field>eigene</field>
    <field>occ</field>
    <set>
     <set comment="spin 1">
      <set comment="kpoint 1">
       <r>   -9.7493    1.0000 </r>
       <r>   -8.2030    1.0000 </r>
       <r>   -7.8231    1.0000 </r>
       <r>   -7.5351    1.0000 </r>
       <r>   -7.5351    1.0000 </r>
       <r>   -7.5351    1.0000 </r>
       <r>   -7.2759    1.0000 </r>
       <r>   -7.2759    1.0000 </r>
       <r>   -7.2759    1.0000 </r>
       <r>   -6.9568    1.0000 </r>
       <r>   -6.9568    1.0000 </r>
       <r>   -6.9568    1.0000 </r>
       <r>   -6.8087    1.0000 </r>
       <r>   -6.8087    1.0000 </r>
       <r>   -6.8087    1.0000 </r>
       <r>   -5.7641    1.0000 </r>
       <r>   -5.7641    1.0000 </r>
       <r>   -5.7641    1.0000 </r>
       <r>   -5.6122    1.0000 </r>
       <r>   -5.6122    1.0000 </r>
       <r>   -5.6122    1.0000 </r>
       <r>   -5.5279    1.0000 </r>
       <r>   -5.4924    1.0000 </r>
       <r>   -5.4924    1.0000 </r>
       <r>   -5.1810    1.0000 </r>
       <r>   -5.1810    1.0000 </r>
       <r>   -5.1167    1.0000 </r>
       <r>   -5.1167    1.0000 </r>
       <r>   -5.1167    1.0000 </r>
       <r>   -5.0792    1.0000 </r>
       <r>   -5.0112    1.0000 </r>
       <r>   -5.0112    1.0000 </r>
       <r>   -4.5418    1.0000 </r>
       <r>   -4.5418    1.0000 </r>
       <r>   -4.5418    1.0000 </r>
       <r>   -4.1009    1.0000 </r>
       <r>   -4.1009    1.0000 </r>
       <r>   -4.0362    1.0000 </r>
       <r>   -4.0362    1.0000 </r>
       <r>   -4.0362    1.0000 </r>
       <r>   -3.8182    1.0000 </r>
       <r>   -3.8182    1.0000 </r>
       <r>   -3.8182    1.0000 </r>
       <r>   -3.6195    1.0000 </r>
       <r>   -3.6195    1.0000 </r>
       <r>   -3.2926    1.0000 </r>
       <r>   -3.2926    1.0000 </r>
       <r>   -3.2926    1.0000 </r>
       <r>   -3.1851    1.0000 </r>
       <r>   -3.1851    1.0000 </r>
       <r>   -3.1810    1.0000 </r>
       <r>   -3.1810    1.0000 </r>
       <r>   -3.1810    1.0000 </r>
       <r>   -3.0687    1.0000 </r>
       <r>   -3.0687    1.0000 </r>
       <r>   -3.0687    1.0000 </r>
       <r>   -2.7407    1.0000 </r>
       <r>   -2.7407    1.0000 </r>
       <r>   -2.7407    1.0000 </r>
       <r>   -2.7190    1.0000 </r>
       <r>   -2.7121    1.0000 </r>
       <r>   -2.7121    1.0000 </r>
       <r>   -2.7121    1.0000 </r>
       <r>   -0.8485   -0.0000 </r>
       <r>   -0.8485   -0.0000 </r>
       <r>   -0.8485   -0.0000 </r>
       <r>   -0.7047   -0.0000 </r>
       <r>    0.0062   -0.0000 </r>
       <r>    0.0062   -0.0000 </r>
       <r>    0.0062   -0.0000 </r>
       <r>    0.2692   -0.0000 </r>
       <r>    0.2692   -0.0000 </r>
       <r>    0.2692   -0.0000 </r>
       <r>    2.1532    0.0000 </r>
       <r>    2.1532    0.0000 </r>
       <r>    2.1532    0.0000 </r>
       <r>    2.8670    0.0000 </r>
       <r>    2.8670    0.0000 </r>
       <r>    2.8670    0.0000 </r>
       <r>    3.4399    0.0000 </r>
       <r>    3.6320    0.0000 </r>
       <r>    3.6320    0.0000 </r>
       <r>    3.6320    0.0000 </r>
       <r>    3.9468    0.0000 </r>
       <r>    4.1100    0.0000 </r>
       <r>    5.2682    0.0000 </r>
       <r>    5.4288    0.0000 </r>
       <r>    6.9612    0.0000 </r>
       <r>    6.9612    0.0000 </r>
       <r>    6.9612    0.0000 </r>
       <r>    7.1521    0.0000 </r>
       <r>    7.4309    0.0000 </r>
       <r>    7.5473    0.0000 </r>
       <r>    7.5473    0.0000 </r>
       <r>    7.5473    0.0000 </r>
       <r>    8.7545    0.0000 </r>
      </set>
      <set comment="kpoint 2">
       <r>   -9.6587    1.0000 </r>
       <r>   -8.1124    1.0000 </r>
       <r>   -7.7425    1.0000 </r>
       <r>   -7.5306    1.0000 </r>
       <r>   -7.4713    1.0000 </r>
       <r>   -7.4713    1.0000 </r>
       <r>   -7.2482    1.0000 </r>
       <r>   -7.2204    1.0000 </r>
       <r>   -7.2204    1.0000 </r>
       <r>   -6.9422    1.0000 </r>
       <r>   -6.9265    1.0000 </r>
       <r>   -6.9265    1.0000 </r>
       <r>   -6.7697    1.0000 </r>
       <r>   -6.7323    1.0000 </r>
       <r>   -6.7323    1.0000 </r>
       <r>   -5.7643    1.0000 </r>
       <r>   -5.7643    1.0000 </r>
       <r>   -5.7517    1.0000 </r>
       <r>   -5.5790    1.0000 </r>
       <r>   -5.5790    1.0000 </r>
       <r>   -5.5765    1.0000 </r>
       <r>   -5.5508    1.0000 </r>
       <r>   -5.5227    1.0000 </r>
       <r>   -5.4382    1.0000 </r>
       <r>   -5.2917    1.0000 </r>
       <r>   -5.1634    1.0000 </r>
       <r>   -5.1634    1.0000 </r>
       <r>   -5.1389    1.0000 </r>
       <r>   -5.1003    1.0000 </r>
       <r>   -5.0361    1.0000 </r>
       <r>   -5.0263    1.0000 </r>
       <r>   -4.9553    1.0000 </r>
       <r>   -4.6075    1.0000 </r>
       <r>   -4.5787    1.0000 </r>
       <r>   -4.5787    1.0000 </r>
       <r>   -4.1214    1.0000 </r>
       <r>   -4.1191    1.0000 </r>
       <r>   -4.0944    1.0000 </r>
       <r>   -4.0944    1.0000 </r>
       <r>   -4.0335    1.0000 </r>
       <r>   -3.8780    1.0000 </r>
       <r>   -3.8525    1.0000 </r>
       <r>   -3.8525    1.0000 </r>
       <r>   -3.7487    1.0000 </r>
       <r>   -3.6211    1.0000 </r>
       <r>   -3.3479    1.0000 </r>
       <r>   -3.3479    1.0000 </r>
       <r>   -3.3148    1.0000 </r>
       <r>   -3.3026    1.0000 </r>
       <r>   -3.2485    1.0000 </r>
       <r>   -3.2104    1.0000 </r>
       <r>   -3.2104    1.0000 </r>
       <r>   -3.1832    1.0000 </r>
       <r>   -3.1754    1.0000 </r>
       <r>   -3.1754    1.0000 </r>
       <r>   -3.1288    1.0000 </r>
       <r>   -2.9042    1.0000 </r>
       <r>   -2.9042    1.0000 </r>
       <r>   -2.8317    1.0000 </r>
       <r>   -2.8317    1.0000 </r>
       <r>   -2.8189    1.0000 </r>
       <r>   -2.7933    1.0000 </r>
       <r>   -2.5499    1.0000 </r>
       <r>   -1.8073    1.0000 </r>
       <r>   -0.9949   -0.0052 </r>
       <r>   -0.9949   -0.0052 </r>
       <r>   -0.8375   -0.0000 </r>
       <r>   -0.4701   -0.0000 </r>
       <r>   -0.0944   -0.0000 </r>
       <r>   -0.0944   -0.0000 </r>
       <r>    0.7867   -0.0000 </r>
       <r>    0.7867   -0.0000 </r>
       <r>    1.1505   -0.0000 </r>
       <r>    2.1329    0.0000 </r>
       <r>    2.3790    0.0000 </r>
       <r>    2.3790    0.0000 </r>
       <r>    2.6435    0.0000 </r>
       <r>    2.6435    0.0000 </r>
       <r>    3.1200    0.0000 </r>
       <r>    3.4977    0.0000 </r>
       <r>    4.0213    0.0000 </r>
       <r>    4.1034    0.0000 </r>
       <r>    4.1034    0.0000 </r>
       <r>    4.1775    0.0000 </r>
       <r>    4.6481    0.0000 </r>
       <r>    5.3406    0.0000 </r>
       <r>    5.4902    0.0000 </r>
       <r>    6.5983    0.0000 </r>
       <r>    6.8749    0.0000 </r>
       <r>    6.8749    0.0000 </r>
       <r>    7.2216    0.0000 </r>
       <r>    7.2464    0.0000 </r>
       <r>    7.4998    0.0000 </r>
       <r>    7.5262    0.0000 </r>
       <r>    7.5262    0.0000 </r>
       <r>    8.4104    0.0000 </r>
      </set>
      <set comment="kpoint 3">
       <r>   -9.3943    1.0000 </r>
       <r>   -7.8532    1.0000 </r>
       <r>   -7.5449    1.0000 </r>
       <r>   -7.5141    1.0000 </r>
       <r>   -7.2879    1.0000 </r>
       <r>   -7.2879    1.0000 </r>
       <r>   -7.1720    1.0000 </r>
       <r>   -7.0691    1.0000 </r>
       <r>   -7.0691    1.0000 </r>
       <r>   -6.8970    1.0000 </r>
       <r>   -6.8315    1.0000 </r>
       <r>   -6.8315    1.0000 </r>
       <r>   -6.6596    1.0000 </r>
       <r>   -6.5143    1.0000 </r>
       <r>   -6.5143    1.0000 </r>
       <r>   -5.7807    1.0000 </r>
       <r>   -5.7807    1.0000 </r>
       <r>   -5.7112    1.0000 </r>
       <r>   -5.7046    1.0000 </r>
       <r>   -5.5410    1.0000 </r>
       <r>   -5.4895    1.0000 </r>
       <r>   -5.4792    1.0000 </r>
       <r>   -5.4792    1.0000 </r>
       <r>   -5.4459    1.0000 </r>
       <r>   -5.2904    1.0000 </r>
       <r>   -5.2904    1.0000 </r>
       <r>   -5.2811    1.0000 </r>
       <r>   -5.0859    1.0000 </r>
       <r>   -5.0537    1.0000 </r>
       <r>   -5.0250    1.0000 </r>
       <r>   -5.0203    1.0000 </r>
       <r>   -4.7944    1.0000 </r>
       <r>   -4.7913    1.0000 </r>
       <r>   -4.7073    1.0000 </r>
       <r>   -4.7073    1.0000 </r>
       <r>   -4.2286    1.0000 </r>
       <r>   -4.2286    1.0000 </r>
       <r>   -4.2233    1.0000 </r>
       <r>   -4.1626    1.0000 </r>
       <r>   -4.0601    1.0000 </r>
       <r>   -4.0366    1.0000 </r>
       <r>   -3.9921    1.0000 </r>
       <r>   -3.9921    1.0000 </r>
       <r>   -3.9579    1.0000 </r>
       <r>   -3.6306    1.0000 </r>
       <r>   -3.6297    1.0000 </r>
       <r>   -3.6297    1.0000 </r>
       <r>   -3.4931    1.0000 </r>
       <r>   -3.4871    1.0000 </r>
       <r>   -3.4860    1.0000 </r>
       <r>   -3.4860    1.0000 </r>
       <r>   -3.4388    1.0000 </r>
       <r>   -3.3514    1.0000 </r>
       <r>   -3.3514    1.0000 </r>
       <r>   -3.2437    1.0000 </r>
       <r>   -3.1779    1.0000 </r>
       <r>   -3.1596    1.0000 </r>
       <r>   -3.1596    1.0000 </r>
       <r>   -3.0517    1.0000 </r>
       <r>   -2.9800    1.0000 </r>
       <r>   -2.9529    1.0000 </r>
       <r>   -2.9529    1.0000 </r>
       <r>   -2.9473    1.0000 </r>
       <r>   -2.1994    1.0000 </r>
       <r>   -1.9906    1.0000 </r>
       <r>   -1.1367    0.0379 </r>
       <r>   -1.1367    0.0379 </r>
       <r>   -0.1268   -0.0000 </r>
       <r>   -0.1268   -0.0000 </r>
       <r>    0.1117   -0.0000 </r>
       <r>    0.5201   -0.0000 </r>
       <r>    1.6494    0.0000 </r>
       <r>    1.6494    0.0000 </r>
       <r>    2.2210    0.0000 </r>
       <r>    2.2210    0.0000 </r>
       <r>    3.2526    0.0000 </r>
       <r>    3.2526    0.0000 </r>
       <r>    3.3090    0.0000 </r>
       <r>    3.6709    0.0000 </r>
       <r>    4.2446    0.0000 </r>
       <r>    4.2894    0.0000 </r>
       <r>    4.3813    0.0000 </r>
       <r>    4.8847    0.0000 </r>
       <r>    4.8847    0.0000 </r>
       <r>    5.3872    0.0000 </r>
       <r>    5.5576    0.0000 </r>
       <r>    5.6759    0.0000 </r>
       <r>    6.4199    0.0000 </r>
       <r>    6.6546    0.0000 </r>
       <r>    6.6546    0.0000 </r>
       <r>    7.1674    0.0000 </r>
       <r>    7.4152    0.0000 </r>
       <r>    7.4152    0.0000 </r>
       <r>    7.4290    0.0000 </r>
       <r>    7.5284    0.0000 </r>
       <r>    7.7057    0.0000 </r>
      </set>
      <set comment="kpoint 4">
       <r>   -8.9813    1.0000 </r>
       <r>   -7.6662    1.0000 </r>
       <r>   -7.4775    1.0000 </r>
       <r>   -7.1882    1.0000 </r>
       <r>   -7.0733    1.0000 </r>
       <r>   -7.0190    1.0000 </r>
       <r>   -7.0190    1.0000 </r>
       <r>   -6.8787    1.0000 </r>
       <r>   -6.8787    1.0000 </r>
       <r>   -6.8243    1.0000 </r>
       <r>   -6.6645    1.0000 </r>
       <r>   -6.6645    1.0000 </r>
       <r>   -6.4925    1.0000 </r>
       <r>   -6.1905    1.0000 </r>
       <r>   -6.1905    1.0000 </r>
       <r>   -5.8986    1.0000 </r>
       <r>   -5.8263    1.0000 </r>
       <r>   -5.8263    1.0000 </r>
       <r>   -5.7064    1.0000 </r>
       <r>   -5.6592    1.0000 </r>
       <r>   -5.5032    1.0000 </r>
       <r>   -5.5032    1.0000 </r>
       <r>   -5.4703    1.0000 </r>
       <r>   -5.4412    1.0000 </r>
       <r>   -5.3135    1.0000 </r>
       <r>   -5.3135    1.0000 </r>
       <r>   -5.1594    1.0000 </r>
       <r>   -5.0461    1.0000 </r>
       <r>   -5.0176    1.0000 </r>
       <r>   -4.9954    1.0000 </r>
       <r>   -4.9854    1.0000 </r>
       <r>   -4.9131    1.0000 </r>
       <r>   -4.9131    1.0000 </r>
       <r>   -4.8805    1.0000 </r>
       <r>   -4.5303    1.0000 </r>
       <r>   -4.4223    1.0000 </r>
       <r>   -4.4050    1.0000 </r>
       <r>   -4.4050    1.0000 </r>
       <r>   -4.3434    1.0000 </r>
       <r>   -4.2263    1.0000 </r>
       <r>   -4.2263    1.0000 </r>
       <r>   -4.1843    1.0000 </r>
       <r>   -4.1843    1.0000 </r>
       <r>   -4.1648    1.0000 </r>
       <r>   -4.1621    1.0000 </r>
       <r>   -4.1045    1.0000 </r>
       <r>   -4.0500    1.0000 </r>
       <r>   -3.8206    1.0000 </r>
       <r>   -3.8206    1.0000 </r>
       <r>   -3.7248    1.0000 </r>
       <r>   -3.6525    1.0000 </r>
       <r>   -3.6522    1.0000 </r>
       <r>   -3.5539    1.0000 </r>
       <r>   -3.5539    1.0000 </r>
       <r>   -3.5137    1.0000 </r>
       <r>   -3.4390    1.0000 </r>
       <r>   -3.3823    1.0000 </r>
       <r>   -3.2001    1.0000 </r>
       <r>   -3.2001    1.0000 </r>
       <r>   -3.1707    1.0000 </r>
       <r>   -3.1172    1.0000 </r>
       <r>   -2.9715    1.0000 </r>
       <r>   -2.9715    1.0000 </r>
       <r>   -2.7879    1.0000 </r>
       <r>   -1.7973    1.0000 </r>
       <r>   -1.1769    0.2546 </r>
       <r>   -1.1769    0.2546 </r>
       <r>   -0.2775   -0.0000 </r>
       <r>   -0.1349   -0.0000 </r>
       <r>   -0.1349   -0.0000 </r>
       <r>    0.8758   -0.0000 </r>
       <r>    1.8732    0.0000 </r>
       <r>    1.8732    0.0000 </r>
       <r>    2.8288    0.0000 </r>
       <r>    2.8288    0.0000 </r>
       <r>    3.4659    0.0000 </r>
       <r>    3.9599    0.0000 </r>
       <r>    4.1678    0.0000 </r>
       <r>    4.1678    0.0000 </r>
       <r>    4.6159    0.0000 </r>
       <r>    4.7238    0.0000 </r>
       <r>    5.2654    0.0000 </r>
       <r>    5.5635    0.0000 </r>
       <r>    5.5635    0.0000 </r>
       <r>    5.8083    0.0000 </r>
       <r>    5.9175    0.0000 </r>
       <r>    5.9905    0.0000 </r>
       <r>    6.1776    0.0000 </r>
       <r>    6.1776    0.0000 </r>
       <r>    6.4823    0.0000 </r>
       <r>    6.6291    0.0000 </r>
       <r>    7.0872    0.0000 </r>
       <r>    7.3958    0.0000 </r>
       <r>    7.3958    0.0000 </r>
       <r>    7.7690    0.0000 </r>
       <r>    7.7702    0.0000 </r>
      </set>
      <set comment="kpoint 5">
       <r>   -8.4763    1.0000 </r>
       <r>   -7.9901    1.0000 </r>
       <r>   -7.1341    1.0000 </r>
       <r>   -7.0167    1.0000 </r>
       <r>   -6.8804    1.0000 </r>
       <r>   -6.7810    1.0000 </r>
       <r>   -6.7810    1.0000 </r>
       <r>   -6.7682    1.0000 </r>
       <r>   -6.7450    1.0000 </r>
       <r>   -6.7450    1.0000 </r>
       <r>   -6.4391    1.0000 </r>
       <r>   -6.4391    1.0000 </r>
       <r>   -6.2880    1.0000 </r>
       <r>   -6.0841    1.0000 </r>
       <r>   -5.9985    1.0000 </r>
       <r>   -5.9985    1.0000 </r>
       <r>   -5.8511    1.0000 </r>
       <r>   -5.8211    1.0000 </r>
       <r>   -5.8211    1.0000 </r>
       <r>   -5.7519    1.0000 </r>
       <r>   -5.6838    1.0000 </r>
       <r>   -5.6838    1.0000 </r>
       <r>   -5.4586    1.0000 </r>
       <r>   -5.4099    1.0000 </r>
       <r>   -5.1974    1.0000 </r>
       <r>   -5.1247    1.0000 </r>
       <r>   -5.1247    1.0000 </r>
       <r>   -5.0367    1.0000 </r>
       <r>   -5.0367    1.0000 </r>
       <r>   -4.9845    1.0000 </r>
       <r>   -4.9154    1.0000 </r>
       <r>   -4.9148    1.0000 </r>
       <r>   -4.8909    1.0000 </r>
       <r>   -4.7654    1.0000 </r>
       <r>   -4.7654    1.0000 </r>
       <r>   -4.6815    1.0000 </r>
       <r>   -4.6815    1.0000 </r>
       <r>   -4.6796    1.0000 </r>
       <r>   -4.6659    1.0000 </r>
       <r>   -4.6634    1.0000 </r>
       <r>   -4.6430    1.0000 </r>
       <r>   -4.3422    1.0000 </r>
       <r>   -4.2723    1.0000 </r>
       <r>   -4.2516    1.0000 </r>
       <r>   -4.2516    1.0000 </r>
       <r>   -4.1930    1.0000 </r>
       <r>   -4.1533    1.0000 </r>
       <r>   -4.0735    1.0000 </r>
       <r>   -4.0735    1.0000 </r>
       <r>   -4.0333    1.0000 </r>
       <r>   -3.8318    1.0000 </r>
       <r>   -3.7882    1.0000 </r>
       <r>   -3.6742    1.0000 </r>
       <r>   -3.6359    1.0000 </r>
       <r>   -3.6359    1.0000 </r>
       <r>   -3.6347    1.0000 </r>
       <r>   -3.3855    1.0000 </r>
       <r>   -3.2034    1.0000 </r>
       <r>   -3.2034    1.0000 </r>
       <r>   -3.1686    1.0000 </r>
       <r>   -3.1630    1.0000 </r>
       <r>   -3.1522    1.0000 </r>
       <r>   -2.9676    1.0000 </r>
       <r>   -2.9676    1.0000 </r>
       <r>   -1.3673    1.0231 </r>
       <r>   -1.1809    0.2846 </r>
       <r>   -1.1809    0.2846 </r>
       <r>   -0.8831   -0.0000 </r>
       <r>   -0.1372   -0.0000 </r>
       <r>   -0.1372   -0.0000 </r>
       <r>    1.7331    0.0000 </r>
       <r>    1.7936    0.0000 </r>
       <r>    1.7936    0.0000 </r>
       <r>    2.6284    0.0000 </r>
       <r>    3.8390    0.0000 </r>
       <r>    3.8390    0.0000 </r>
       <r>    4.3670    0.0000 </r>
       <r>    4.7770    0.0000 </r>
       <r>    4.7770    0.0000 </r>
       <r>    4.8919    0.0000 </r>
       <r>    5.1313    0.0000 </r>
       <r>    5.2088    0.0000 </r>
       <r>    5.4472    0.0000 </r>
       <r>    5.4472    0.0000 </r>
       <r>    5.7765    0.0000 </r>
       <r>    5.8402    0.0000 </r>
       <r>    6.0553    0.0000 </r>
       <r>    6.0553    0.0000 </r>
       <r>    6.4040    0.0000 </r>
       <r>    6.4471    0.0000 </r>
       <r>    6.8985    0.0000 </r>
       <r>    7.0595    0.0000 </r>
       <r>    7.3602    0.0000 </r>
       <r>    7.3602    0.0000 </r>
       <r>    7.6046    0.0000 </r>
       <r>    7.7258    0.0000 </r>
      </set>
      <set comment="kpoint 6">
       <r>   -9.4811    1.0000 </r>
       <r>   -7.9368    1.0000 </r>
       <r>   -7.5873    1.0000 </r>
       <r>   -7.4679    1.0000 </r>
       <r>   -7.4679    1.0000 </r>
       <r>   -7.2944    1.0000 </r>
       <r>   -7.1657    1.0000 </r>
       <r>   -7.1657    1.0000 </r>
       <r>   -7.0974    1.0000 </r>
       <r>   -6.8945    1.0000 </r>
       <r>   -6.8945    1.0000 </r>
       <r>   -6.8476    1.0000 </r>
       <r>   -6.6607    1.0000 </r>
       <r>   -6.6607    1.0000 </r>
       <r>   -6.5473    1.0000 </r>
       <r>   -5.7865    1.0000 </r>
       <r>   -5.7425    1.0000 </r>
       <r>   -5.7425    1.0000 </r>
       <r>   -5.6588    1.0000 </r>
       <r>   -5.5217    1.0000 </r>
       <r>   -5.5178    1.0000 </r>
       <r>   -5.5122    1.0000 </r>
       <r>   -5.5122    1.0000 </r>
       <r>   -5.4187    1.0000 </r>
       <r>   -5.3293    1.0000 </r>
       <r>   -5.2826    1.0000 </r>
       <r>   -5.1466    1.0000 </r>
       <r>   -5.1466    1.0000 </r>
       <r>   -5.0863    1.0000 </r>
       <r>   -5.0442    1.0000 </r>
       <r>   -5.0229    1.0000 </r>
       <r>   -4.8409    1.0000 </r>
       <r>   -4.7013    1.0000 </r>
       <r>   -4.7013    1.0000 </r>
       <r>   -4.6465    1.0000 </r>
       <r>   -4.2330    1.0000 </r>
       <r>   -4.1935    1.0000 </r>
       <r>   -4.1442    1.0000 </r>
       <r>   -4.0927    1.0000 </r>
       <r>   -4.0927    1.0000 </r>
       <r>   -3.9847    1.0000 </r>
       <r>   -3.9847    1.0000 </r>
       <r>   -3.9154    1.0000 </r>
       <r>   -3.8711    1.0000 </r>
       <r>   -3.6888    1.0000 </r>
       <r>   -3.5357    1.0000 </r>
       <r>   -3.4395    1.0000 </r>
       <r>   -3.4395    1.0000 </r>
       <r>   -3.4147    1.0000 </r>
       <r>   -3.4147    1.0000 </r>
       <r>   -3.3991    1.0000 </r>
       <r>   -3.3531    1.0000 </r>
       <r>   -3.2879    1.0000 </r>
       <r>   -3.2879    1.0000 </r>
       <r>   -3.2176    1.0000 </r>
       <r>   -3.1999    1.0000 </r>
       <r>   -3.1906    1.0000 </r>
       <r>   -3.0416    1.0000 </r>
       <r>   -3.0416    1.0000 </r>
       <r>   -2.9685    1.0000 </r>
       <r>   -2.9685    1.0000 </r>
       <r>   -2.9531    1.0000 </r>
       <r>   -2.3000    1.0000 </r>
       <r>   -2.1228    1.0000 </r>
       <r>   -2.1228    1.0000 </r>
       <r>   -1.2061    0.4890 </r>
       <r>   -1.2061    0.4890 </r>
       <r>   -0.1199   -0.0000 </r>
       <r>   -0.0670   -0.0000 </r>
       <r>    0.3875   -0.0000 </r>
       <r>    0.8822   -0.0000 </r>
       <r>    1.0852   -0.0000 </r>
       <r>    1.0852   -0.0000 </r>
       <r>    2.2193    0.0000 </r>
       <r>    2.6029    0.0000 </r>
       <r>    2.6029    0.0000 </r>
       <r>    3.1102    0.0000 </r>
       <r>    3.6132    0.0000 </r>
       <r>    3.8545    0.0000 </r>
       <r>    3.8545    0.0000 </r>
       <r>    3.8545    0.0000 </r>
       <r>    4.1703    0.0000 </r>
       <r>    4.3132    0.0000 </r>
       <r>    5.1191    0.0000 </r>
       <r>    5.1191    0.0000 </r>
       <r>    5.4854    0.0000 </r>
       <r>    5.6137    0.0000 </r>
       <r>    6.6888    0.0000 </r>
       <r>    6.6888    0.0000 </r>
       <r>    6.9029    0.0000 </r>
       <r>    6.9029    0.0000 </r>
       <r>    7.3350    0.0000 </r>
       <r>    7.3387    0.0000 </r>
       <r>    7.3601    0.0000 </r>
       <r>    7.6372    0.0000 </r>
       <r>    8.0475    0.0000 </r>
      </set>
      <set comment="kpoint 7">
       <r>   -9.1404    1.0000 </r>
       <r>   -7.6125    1.0000 </r>
       <r>   -7.5199    1.0000 </r>
       <r>   -7.3040    1.0000 </r>
       <r>   -7.2974    1.0000 </r>
       <r>   -7.0708    1.0000 </r>
       <r>   -7.0236    1.0000 </r>
       <r>   -6.9897    1.0000 </r>
       <r>   -6.9231    1.0000 </r>
       <r>   -6.8309    1.0000 </r>
       <r>   -6.7834    1.0000 </r>
       <r>   -6.6929    1.0000 </r>
       <r>   -6.5266    1.0000 </r>
       <r>   -6.4190    1.0000 </r>
       <r>   -6.2477    1.0000 </r>
       <r>   -5.8505    1.0000 </r>
       <r>   -5.8366    1.0000 </r>
       <r>   -5.7567    1.0000 </r>
       <r>   -5.6979    1.0000 </r>
       <r>   -5.6131    1.0000 </r>
       <r>   -5.5155    1.0000 </r>
       <r>   -5.4359    1.0000 </r>
       <r>   -5.4203    1.0000 </r>
       <r>   -5.4144    1.0000 </r>
       <r>   -5.3879    1.0000 </r>
       <r>   -5.3160    1.0000 </r>
       <r>   -5.1490    1.0000 </r>
       <r>   -5.1445    1.0000 </r>
       <r>   -5.1080    1.0000 </r>
       <r>   -5.0677    1.0000 </r>
       <r>   -4.9222    1.0000 </r>
       <r>   -4.8779    1.0000 </r>
       <r>   -4.8594    1.0000 </r>
       <r>   -4.8116    1.0000 </r>
       <r>   -4.6151    1.0000 </r>
       <r>   -4.3859    1.0000 </r>
       <r>   -4.3217    1.0000 </r>
       <r>   -4.2837    1.0000 </r>
       <r>   -4.2525    1.0000 </r>
       <r>   -4.2244    1.0000 </r>
       <r>   -4.1270    1.0000 </r>
       <r>   -4.0995    1.0000 </r>
       <r>   -4.0850    1.0000 </r>
       <r>   -4.0297    1.0000 </r>
       <r>   -3.9921    1.0000 </r>
       <r>   -3.9387    1.0000 </r>
       <r>   -3.9264    1.0000 </r>
       <r>   -3.7730    1.0000 </r>
       <r>   -3.7643    1.0000 </r>
       <r>   -3.6949    1.0000 </r>
       <r>   -3.6270    1.0000 </r>
       <r>   -3.4907    1.0000 </r>
       <r>   -3.4876    1.0000 </r>
       <r>   -3.4264    1.0000 </r>
       <r>   -3.3974    1.0000 </r>
       <r>   -3.2664    1.0000 </r>
       <r>   -3.2297    1.0000 </r>
       <r>   -3.2085    1.0000 </r>
       <r>   -3.1758    1.0000 </r>
       <r>   -3.1564    1.0000 </r>
       <r>   -3.0299    1.0000 </r>
       <r>   -3.0284    1.0000 </r>
       <r>   -2.8855    1.0000 </r>
       <r>   -2.2245    1.0000 </r>
       <r>   -2.1028    1.0000 </r>
       <r>   -1.9401    1.0000 </r>
       <r>   -1.2633    0.9006 </r>
       <r>   -0.0821   -0.0000 </r>
       <r>    0.1865   -0.0000 </r>
       <r>    0.5933   -0.0000 </r>
       <r>    0.9123   -0.0000 </r>
       <r>    1.0547   -0.0000 </r>
       <r>    1.3249   -0.0000 </r>
       <r>    2.7227    0.0000 </r>
       <r>    3.0734    0.0000 </r>
       <r>    3.4623    0.0000 </r>
       <r>    3.7718    0.0000 </r>
       <r>    3.8442    0.0000 </r>
       <r>    4.4677    0.0000 </r>
       <r>    4.5002    0.0000 </r>
       <r>    4.5183    0.0000 </r>
       <r>    4.5863    0.0000 </r>
       <r>    4.6619    0.0000 </r>
       <r>    5.5255    0.0000 </r>
       <r>    5.7744    0.0000 </r>
       <r>    5.8638    0.0000 </r>
       <r>    6.0743    0.0000 </r>
       <r>    6.0883    0.0000 </r>
       <r>    6.5788    0.0000 </r>
       <r>    6.5806    0.0000 </r>
       <r>    7.0809    0.0000 </r>
       <r>    7.1339    0.0000 </r>
       <r>    7.1539    0.0000 </r>
       <r>    7.6347    0.0000 </r>
       <r>    7.6828    0.0000 </r>
       <r>    7.7485    0.0000 </r>
      </set>
      <set comment="kpoint 8">
       <r>   -8.6740    1.0000 </r>
       <r>   -7.7376    1.0000 </r>
       <r>   -7.2267    1.0000 </r>
       <r>   -7.0766    1.0000 </r>
       <r>   -6.9766    1.0000 </r>
       <r>   -6.9665    1.0000 </r>
       <r>   -6.8040    1.0000 </r>
       <r>   -6.7629    1.0000 </r>
       <r>   -6.7469    1.0000 </r>
       <r>   -6.7248    1.0000 </r>
       <r>   -6.5948    1.0000 </r>
       <r>   -6.4745    1.0000 </r>
       <r>   -6.3464    1.0000 </r>
       <r>   -6.0960    1.0000 </r>
       <r>   -6.0458    1.0000 </r>
       <r>   -6.0163    1.0000 </r>
       <r>   -5.8131    1.0000 </r>
       <r>   -5.8119    1.0000 </r>
       <r>   -5.8010    1.0000 </r>
       <r>   -5.7207    1.0000 </r>
       <r>   -5.6526    1.0000 </r>
       <r>   -5.5945    1.0000 </r>
       <r>   -5.4865    1.0000 </r>
       <r>   -5.4799    1.0000 </r>
       <r>   -5.2314    1.0000 </r>
       <r>   -5.2189    1.0000 </r>
       <r>   -5.1980    1.0000 </r>
       <r>   -5.1025    1.0000 </r>
       <r>   -5.0843    1.0000 </r>
       <r>   -5.0391    1.0000 </r>
       <r>   -4.9752    1.0000 </r>
       <r>   -4.9393    1.0000 </r>
       <r>   -4.8848    1.0000 </r>
       <r>   -4.7843    1.0000 </r>
       <r>   -4.7071    1.0000 </r>
       <r>   -4.5754    1.0000 </r>
       <r>   -4.5628    1.0000 </r>
       <r>   -4.5545    1.0000 </r>
       <r>   -4.5342    1.0000 </r>
       <r>   -4.4962    1.0000 </r>
       <r>   -4.4374    1.0000 </r>
       <r>   -4.2969    1.0000 </r>
       <r>   -4.2805    1.0000 </r>
       <r>   -4.2635    1.0000 </r>
       <r>   -4.2270    1.0000 </r>
       <r>   -4.1823    1.0000 </r>
       <r>   -4.0639    1.0000 </r>
       <r>   -4.0358    1.0000 </r>
       <r>   -4.0231    1.0000 </r>
       <r>   -3.9259    1.0000 </r>
       <r>   -3.7419    1.0000 </r>
       <r>   -3.7182    1.0000 </r>
       <r>   -3.6189    1.0000 </r>
       <r>   -3.5379    1.0000 </r>
       <r>   -3.4938    1.0000 </r>
       <r>   -3.4047    1.0000 </r>
       <r>   -3.3893    1.0000 </r>
       <r>   -3.2697    1.0000 </r>
       <r>   -3.1968    1.0000 </r>
       <r>   -3.1960    1.0000 </r>
       <r>   -3.1728    1.0000 </r>
       <r>   -3.0395    1.0000 </r>
       <r>   -3.0281    1.0000 </r>
       <r>   -2.8818    1.0000 </r>
       <r>   -2.0506    1.0000 </r>
       <r>   -1.5346    1.0000 </r>
       <r>   -1.2407    0.7656 </r>
       <r>   -0.5336   -0.0000 </r>
       <r>   -0.1861   -0.0000 </r>
       <r>    0.8162   -0.0000 </r>
       <r>    1.0531   -0.0000 </r>
       <r>    1.3937   -0.0000 </r>
       <r>    2.2685    0.0000 </r>
       <r>    2.9431    0.0000 </r>
       <r>    3.1520    0.0000 </r>
       <r>    3.7519    0.0000 </r>
       <r>    4.1924    0.0000 </r>
       <r>    4.3141    0.0000 </r>
       <r>    4.8403    0.0000 </r>
       <r>    4.9121    0.0000 </r>
       <r>    4.9999    0.0000 </r>
       <r>    5.0219    0.0000 </r>
       <r>    5.2235    0.0000 </r>
       <r>    5.9173    0.0000 </r>
       <r>    5.9919    0.0000 </r>
       <r>    6.1689    0.0000 </r>
       <r>    6.2031    0.0000 </r>
       <r>    6.2460    0.0000 </r>
       <r>    6.2497    0.0000 </r>
       <r>    6.5182    0.0000 </r>
       <r>    6.5209    0.0000 </r>
       <r>    7.2032    0.0000 </r>
       <r>    7.3934    0.0000 </r>
       <r>    7.5342    0.0000 </r>
       <r>    7.5562    0.0000 </r>
       <r>    7.5640    0.0000 </r>
      </set>
      <set comment="kpoint 9">
       <r>   -8.1610    1.0000 </r>
       <r>   -8.1610    1.0000 </r>
       <r>   -6.9832    1.0000 </r>
       <r>   -6.9832    1.0000 </r>
       <r>   -6.9595    1.0000 </r>
       <r>   -6.7372    1.0000 </r>
       <r>   -6.7372    1.0000 </r>
       <r>   -6.7320    1.0000 </r>
       <r>   -6.6734    1.0000 </r>
       <r>   -6.6042    1.0000 </r>
       <r>   -6.3950    1.0000 </r>
       <r>   -6.2980    1.0000 </r>
       <r>   -6.1576    1.0000 </r>
       <r>   -6.1576    1.0000 </r>
       <r>   -6.1091    1.0000 </r>
       <r>   -6.0838    1.0000 </r>
       <r>   -5.8989    1.0000 </r>
       <r>   -5.8989    1.0000 </r>
       <r>   -5.8459    1.0000 </r>
       <r>   -5.7557    1.0000 </r>
       <r>   -5.6744    1.0000 </r>
       <r>   -5.5215    1.0000 </r>
       <r>   -5.4261    1.0000 </r>
       <r>   -5.4261    1.0000 </r>
       <r>   -5.2487    1.0000 </r>
       <r>   -5.1767    1.0000 </r>
       <r>   -5.1767    1.0000 </r>
       <r>   -5.0857    1.0000 </r>
       <r>   -5.0540    1.0000 </r>
       <r>   -5.0441    1.0000 </r>
       <r>   -5.0441    1.0000 </r>
       <r>   -4.9963    1.0000 </r>
       <r>   -4.9434    1.0000 </r>
       <r>   -4.8567    1.0000 </r>
       <r>   -4.8364    1.0000 </r>
       <r>   -4.8364    1.0000 </r>
       <r>   -4.7585    1.0000 </r>
       <r>   -4.7309    1.0000 </r>
       <r>   -4.6650    1.0000 </r>
       <r>   -4.6650    1.0000 </r>
       <r>   -4.4927    1.0000 </r>
       <r>   -4.4927    1.0000 </r>
       <r>   -4.2734    1.0000 </r>
       <r>   -4.2088    1.0000 </r>
       <r>   -4.2088    1.0000 </r>
       <r>   -4.1702    1.0000 </r>
       <r>   -4.1596    1.0000 </r>
       <r>   -4.1058    1.0000 </r>
       <r>   -3.9240    1.0000 </r>
       <r>   -3.9240    1.0000 </r>
       <r>   -3.8463    1.0000 </r>
       <r>   -3.8463    1.0000 </r>
       <r>   -3.6734    1.0000 </r>
       <r>   -3.6639    1.0000 </r>
       <r>   -3.6639    1.0000 </r>
       <r>   -3.5804    1.0000 </r>
       <r>   -3.2717    1.0000 </r>
       <r>   -3.2717    1.0000 </r>
       <r>   -3.2657    1.0000 </r>
       <r>   -3.1998    1.0000 </r>
       <r>   -3.1500    1.0000 </r>
       <r>   -3.1500    1.0000 </r>
       <r>   -3.0403    1.0000 </r>
       <r>   -3.0235    1.0000 </r>
       <r>   -2.0299    1.0000 </r>
       <r>   -1.2273    0.6652 </r>
       <r>   -1.0819   -0.0353 </r>
       <r>   -1.0819   -0.0353 </r>
       <r>   -0.2204   -0.0000 </r>
       <r>    0.7876   -0.0000 </r>
       <r>    1.0211   -0.0000 </r>
       <r>    2.2669    0.0000 </r>
       <r>    2.2669    0.0000 </r>
       <r>    2.5432    0.0000 </r>
       <r>    3.5649    0.0000 </r>
       <r>    3.7161    0.0000 </r>
       <r>    4.6156    0.0000 </r>
       <r>    4.6601    0.0000 </r>
       <r>    4.6601    0.0000 </r>
       <r>    5.1703    0.0000 </r>
       <r>    5.2549    0.0000 </r>
       <r>    5.4964    0.0000 </r>
       <r>    5.4964    0.0000 </r>
       <r>    5.5577    0.0000 </r>
       <r>    5.5577    0.0000 </r>
       <r>    5.5693    0.0000 </r>
       <r>    5.9341    0.0000 </r>
       <r>    6.5897    0.0000 </r>
       <r>    6.7235    0.0000 </r>
       <r>    6.7235    0.0000 </r>
       <r>    6.7896    0.0000 </r>
       <r>    6.7896    0.0000 </r>
       <r>    7.1668    0.0000 </r>
       <r>    7.2806    0.0000 </r>
       <r>    7.4163    0.0000 </r>
       <r>    7.4877    0.0000 </r>
      </set>
      <set comment="kpoint 10">
       <r>   -8.7412    1.0000 </r>
       <r>   -7.4201    1.0000 </r>
       <r>   -7.4201    1.0000 </r>
       <r>   -7.2571    1.0000 </r>
       <r>   -6.9927    1.0000 </r>
       <r>   -6.8822    1.0000 </r>
       <r>   -6.8822    1.0000 </r>
       <r>   -6.7664    1.0000 </r>
       <r>   -6.7192    1.0000 </r>
       <r>   -6.6992    1.0000 </r>
       <r>   -6.6992    1.0000 </r>
       <r>   -6.4833    1.0000 </r>
       <r>   -6.2723    1.0000 </r>
       <r>   -6.2723    1.0000 </r>
       <r>   -6.0773    1.0000 </r>
       <r>   -6.0132    1.0000 </r>
       <r>   -5.8247    1.0000 </r>
       <r>   -5.7669    1.0000 </r>
       <r>   -5.7669    1.0000 </r>
       <r>   -5.7356    1.0000 </r>
       <r>   -5.5951    1.0000 </r>
       <r>   -5.5245    1.0000 </r>
       <r>   -5.5245    1.0000 </r>
       <r>   -5.5230    1.0000 </r>
       <r>   -5.2497    1.0000 </r>
       <r>   -5.2284    1.0000 </r>
       <r>   -5.2284    1.0000 </r>
       <r>   -5.2021    1.0000 </r>
       <r>   -5.1840    1.0000 </r>
       <r>   -4.9895    1.0000 </r>
       <r>   -4.9895    1.0000 </r>
       <r>   -4.9372    1.0000 </r>
       <r>   -4.8950    1.0000 </r>
       <r>   -4.8249    1.0000 </r>
       <r>   -4.6141    1.0000 </r>
       <r>   -4.6141    1.0000 </r>
       <r>   -4.5352    1.0000 </r>
       <r>   -4.5059    1.0000 </r>
       <r>   -4.5059    1.0000 </r>
       <r>   -4.4211    1.0000 </r>
       <r>   -4.3109    1.0000 </r>
       <r>   -4.3017    1.0000 </r>
       <r>   -4.2798    1.0000 </r>
       <r>   -4.2595    1.0000 </r>
       <r>   -4.1672    1.0000 </r>
       <r>   -4.1672    1.0000 </r>
       <r>   -4.0432    1.0000 </r>
       <r>   -4.0432    1.0000 </r>
       <r>   -3.9091    1.0000 </r>
       <r>   -3.8941    1.0000 </r>
       <r>   -3.8422    1.0000 </r>
       <r>   -3.5960    1.0000 </r>
       <r>   -3.5960    1.0000 </r>
       <r>   -3.3939    1.0000 </r>
       <r>   -3.3649    1.0000 </r>
       <r>   -3.3145    1.0000 </r>
       <r>   -3.2658    1.0000 </r>
       <r>   -3.2658    1.0000 </r>
       <r>   -3.2634    1.0000 </r>
       <r>   -3.1847    1.0000 </r>
       <r>   -3.1847    1.0000 </r>
       <r>   -3.1294    1.0000 </r>
       <r>   -2.7938    1.0000 </r>
       <r>   -2.7938    1.0000 </r>
       <r>   -2.2036    1.0000 </r>
       <r>   -2.2036    1.0000 </r>
       <r>   -1.5899    1.0000 </r>
       <r>    0.0224   -0.0000 </r>
       <r>    0.0224   -0.0000 </r>
       <r>    0.9437   -0.0000 </r>
       <r>    1.0001   -0.0000 </r>
       <r>    1.2771   -0.0000 </r>
       <r>    2.2415    0.0000 </r>
       <r>    2.3892    0.0000 </r>
       <r>    3.7955    0.0000 </r>
       <r>    3.7955    0.0000 </r>
       <r>    3.9668    0.0000 </r>
       <r>    4.1344    0.0000 </r>
       <r>    4.3676    0.0000 </r>
       <r>    4.8390    0.0000 </r>
       <r>    4.9305    0.0000 </r>
       <r>    5.3278    0.0000 </r>
       <r>    5.3278    0.0000 </r>
       <r>    5.8160    0.0000 </r>
       <r>    5.9866    0.0000 </r>
       <r>    5.9866    0.0000 </r>
       <r>    6.1350    0.0000 </r>
       <r>    6.1800    0.0000 </r>
       <r>    6.6697    0.0000 </r>
       <r>    6.6697    0.0000 </r>
       <r>    6.8418    0.0000 </r>
       <r>    6.8418    0.0000 </r>
       <r>    7.1513    0.0000 </r>
       <r>    7.1513    0.0000 </r>
       <r>    7.2330    0.0000 </r>
       <r>    7.9714    0.0000 </r>
      </set>
      <set comment="kpoint 11">
       <r>   -8.2461    1.0000 </r>
       <r>   -7.7560    1.0000 </r>
       <r>   -7.3194    1.0000 </r>
       <r>   -6.9184    1.0000 </r>
       <r>   -6.8102    1.0000 </r>
       <r>   -6.7264    1.0000 </r>
       <r>   -6.6750    1.0000 </r>
       <r>   -6.6054    1.0000 </r>
       <r>   -6.5981    1.0000 </r>
       <r>   -6.5274    1.0000 </r>
       <r>   -6.4699    1.0000 </r>
       <r>   -6.2300    1.0000 </r>
       <r>   -6.2119    1.0000 </r>
       <r>   -6.1488    1.0000 </r>
       <r>   -6.1153    1.0000 </r>
       <r>   -6.0992    1.0000 </r>
       <r>   -5.9971    1.0000 </r>
       <r>   -5.8955    1.0000 </r>
       <r>   -5.8479    1.0000 </r>
       <r>   -5.7828    1.0000 </r>
       <r>   -5.6067    1.0000 </r>
       <r>   -5.5580    1.0000 </r>
       <r>   -5.4824    1.0000 </r>
       <r>   -5.4346    1.0000 </r>
       <r>   -5.3383    1.0000 </r>
       <r>   -5.3207    1.0000 </r>
       <r>   -5.2450    1.0000 </r>
       <r>   -5.2393    1.0000 </r>
       <r>   -5.2169    1.0000 </r>
       <r>   -5.2051    1.0000 </r>
       <r>   -5.0684    1.0000 </r>
       <r>   -4.9803    1.0000 </r>
       <r>   -4.9667    1.0000 </r>
       <r>   -4.9109    1.0000 </r>
       <r>   -4.8697    1.0000 </r>
       <r>   -4.7740    1.0000 </r>
       <r>   -4.7254    1.0000 </r>
       <r>   -4.6833    1.0000 </r>
       <r>   -4.6783    1.0000 </r>
       <r>   -4.6176    1.0000 </r>
       <r>   -4.5608    1.0000 </r>
       <r>   -4.3497    1.0000 </r>
       <r>   -4.2857    1.0000 </r>
       <r>   -4.2327    1.0000 </r>
       <r>   -4.1263    1.0000 </r>
       <r>   -4.0947    1.0000 </r>
       <r>   -4.0661    1.0000 </r>
       <r>   -4.0649    1.0000 </r>
       <r>   -3.9845    1.0000 </r>
       <r>   -3.8373    1.0000 </r>
       <r>   -3.7908    1.0000 </r>
       <r>   -3.6981    1.0000 </r>
       <r>   -3.6869    1.0000 </r>
       <r>   -3.4789    1.0000 </r>
       <r>   -3.4696    1.0000 </r>
       <r>   -3.3641    1.0000 </r>
       <r>   -3.3529    1.0000 </r>
       <r>   -3.2970    1.0000 </r>
       <r>   -3.2714    1.0000 </r>
       <r>   -3.2336    1.0000 </r>
       <r>   -3.1897    1.0000 </r>
       <r>   -3.1838    1.0000 </r>
       <r>   -3.1665    1.0000 </r>
       <r>   -2.8589    1.0000 </r>
       <r>   -2.7429    1.0000 </r>
       <r>   -2.1687    1.0000 </r>
       <r>   -1.1711    0.2141 </r>
       <r>   -0.6549   -0.0000 </r>
       <r>   -0.0415   -0.0000 </r>
       <r>    0.8112   -0.0000 </r>
       <r>    1.7968    0.0000 </r>
       <r>    2.0840    0.0000 </r>
       <r>    2.1708    0.0000 </r>
       <r>    2.9558    0.0000 </r>
       <r>    3.1347    0.0000 </r>
       <r>    3.7569    0.0000 </r>
       <r>    4.2045    0.0000 </r>
       <r>    4.4927    0.0000 </r>
       <r>    4.5440    0.0000 </r>
       <r>    5.0681    0.0000 </r>
       <r>    5.3557    0.0000 </r>
       <r>    5.4161    0.0000 </r>
       <r>    5.4807    0.0000 </r>
       <r>    5.5174    0.0000 </r>
       <r>    6.0036    0.0000 </r>
       <r>    6.0452    0.0000 </r>
       <r>    6.4658    0.0000 </r>
       <r>    6.4874    0.0000 </r>
       <r>    6.6174    0.0000 </r>
       <r>    6.6412    0.0000 </r>
       <r>    6.6487    0.0000 </r>
       <r>    6.7730    0.0000 </r>
       <r>    7.0528    0.0000 </r>
       <r>    7.2664    0.0000 </r>
       <r>    7.4182    0.0000 </r>
       <r>    7.7114    0.0000 </r>
      </set>
      <set comment="kpoint 12">
       <r>   -7.7560    1.0000 </r>
       <r>   -7.7560    1.0000 </r>
       <r>   -7.7560    1.0000 </r>
       <r>   -6.7175    1.0000 </r>
       <r>   -6.7175    1.0000 </r>
       <r>   -6.7175    1.0000 </r>
       <r>   -6.4665    1.0000 </r>
       <r>   -6.4162    1.0000 </r>
       <r>   -6.4162    1.0000 </r>
       <r>   -6.3923    1.0000 </r>
       <r>   -6.3923    1.0000 </r>
       <r>   -6.3923    1.0000 </r>
       <r>   -6.2868    1.0000 </r>
       <r>   -6.2868    1.0000 </r>
       <r>   -6.2868    1.0000 </r>
       <r>   -5.9707    1.0000 </r>
       <r>   -5.9707    1.0000 </r>
       <r>   -5.8038    1.0000 </r>
       <r>   -5.8038    1.0000 </r>
       <r>   -5.8038    1.0000 </r>
       <r>   -5.6242    1.0000 </r>
       <r>   -5.6242    1.0000 </r>
       <r>   -5.6242    1.0000 </r>
       <r>   -5.4461    1.0000 </r>
       <r>   -5.4461    1.0000 </r>
       <r>   -5.4461    1.0000 </r>
       <r>   -5.3674    1.0000 </r>
       <r>   -5.3674    1.0000 </r>
       <r>   -5.3674    1.0000 </r>
       <r>   -5.2524    1.0000 </r>
       <r>   -4.9128    1.0000 </r>
       <r>   -4.9128    1.0000 </r>
       <r>   -4.9050    1.0000 </r>
       <r>   -4.8932    1.0000 </r>
       <r>   -4.8722    1.0000 </r>
       <r>   -4.8722    1.0000 </r>
       <r>   -4.8722    1.0000 </r>
       <r>   -4.7822    1.0000 </r>
       <r>   -4.7822    1.0000 </r>
       <r>   -4.7822    1.0000 </r>
       <r>   -4.3612    1.0000 </r>
       <r>   -4.3612    1.0000 </r>
       <r>   -4.3612    1.0000 </r>
       <r>   -4.1954    1.0000 </r>
       <r>   -4.1954    1.0000 </r>
       <r>   -4.0300    1.0000 </r>
       <r>   -4.0300    1.0000 </r>
       <r>   -4.0300    1.0000 </r>
       <r>   -3.8518    1.0000 </r>
       <r>   -3.8518    1.0000 </r>
       <r>   -3.8518    1.0000 </r>
       <r>   -3.4685    1.0000 </r>
       <r>   -3.4685    1.0000 </r>
       <r>   -3.4685    1.0000 </r>
       <r>   -3.4005    1.0000 </r>
       <r>   -3.4005    1.0000 </r>
       <r>   -3.3538    1.0000 </r>
       <r>   -3.3538    1.0000 </r>
       <r>   -3.3538    1.0000 </r>
       <r>   -3.2878    1.0000 </r>
       <r>   -3.2522    1.0000 </r>
       <r>   -3.2522    1.0000 </r>
       <r>   -3.2522    1.0000 </r>
       <r>   -2.8454    1.0000 </r>
       <r>   -2.8454    1.0000 </r>
       <r>   -2.8454    1.0000 </r>
       <r>   -0.6900   -0.0000 </r>
       <r>   -0.6900   -0.0000 </r>
       <r>   -0.6900   -0.0000 </r>
       <r>    1.5870    0.0000 </r>
       <r>    1.8156    0.0000 </r>
       <r>    1.8156    0.0000 </r>
       <r>    2.8905    0.0000 </r>
       <r>    2.8905    0.0000 </r>
       <r>    2.8905    0.0000 </r>
       <r>    3.9742    0.0000 </r>
       <r>    4.0055    0.0000 </r>
       <r>    4.0055    0.0000 </r>
       <r>    5.0127    0.0000 </r>
       <r>    5.0127    0.0000 </r>
       <r>    5.0127    0.0000 </r>
       <r>    5.9427    0.0000 </r>
       <r>    5.9427    0.0000 </r>
       <r>    5.9427    0.0000 </r>
       <r>    5.9710    0.0000 </r>
       <r>    5.9710    0.0000 </r>
       <r>    5.9710    0.0000 </r>
       <r>    6.0020    0.0000 </r>
       <r>    6.0020    0.0000 </r>
       <r>    6.5503    0.0000 </r>
       <r>    7.0838    0.0000 </r>
       <r>    7.0838    0.0000 </r>
       <r>    7.0838    0.0000 </r>
       <r>    7.2033    0.0000 </r>
       <r>    7.2033    0.0000 </r>
       <r>    7.2033    0.0000 </r>
      </set>
     </set>
    </set>
   </array>
  </eigenvalues>
  <separator name="orbital magnetization" >
   <v name="MAGDIPOLOUT">      0.00000000      0.00000000      0.00000000</v>
  </separator>
  <dos>
   <i name="efermi">     -1.20739125 </i>
   <total>
    <array>
     <dimension dim="1">gridpoints</dimension>
     <dimension dim="2">spin</dimension>
     <field>energy</field>
     <field>total</field>
     <field>integrated</field>
     <set>
      <set comment="spin 1">
       <r>   -10.7493     0.0000     0.0000 </r>
       <r>   -10.6809     0.0000     0.0000 </r>
       <r>   -10.6126    -0.0000    -0.0000 </r>
       <r>   -10.5442    -0.0000    -0.0000 </r>
       <r>   -10.4759    -0.0000    -0.0000 </r>
       <r>   -10.4076    -0.0000    -0.0000 </r>
       <r>   -10.3392    -0.0000    -0.0000 </r>
       <r>   -10.2709    -0.0000    -0.0000 </r>
       <r>   -10.2025    -0.0000    -0.0000 </r>
       <r>   -10.1342    -0.0000    -0.0000 </r>
       <r>   -10.0658    -0.0000    -0.0000 </r>
       <r>    -9.9975    -0.0005    -0.0000 </r>
       <r>    -9.9291    -0.0057    -0.0004 </r>
       <r>    -9.8608    -0.0221    -0.0019 </r>
       <r>    -9.7924     0.0162    -0.0008 </r>
       <r>    -9.7241     0.3881     0.0257 </r>
       <r>    -9.6557     1.0928     0.1004 </r>
       <r>    -9.5874     0.9034     0.1621 </r>
       <r>    -9.5191     0.5896     0.2024 </r>
       <r>    -9.4507     1.4034     0.2983 </r>
       <r>    -9.3824     1.6779     0.4130 </r>
       <r>    -9.3140     0.7705     0.4657 </r>
       <r>    -9.2457    -0.0139     0.4647 </r>
       <r>    -9.1773     0.9640     0.5306 </r>
       <r>    -9.1090     2.2841     0.6867 </r>
       <r>    -9.0406     1.4386     0.7851 </r>
       <r>    -8.9723     1.0385     0.8560 </r>
       <r>    -8.9039     0.7549     0.9076 </r>
       <r>    -8.8356     0.0149     0.9086 </r>
       <r>    -8.7673     0.6339     0.9520 </r>
       <r>    -8.6989     2.5045     1.1231 </r>
       <r>    -8.6306     2.7248     1.3094 </r>
       <r>    -8.5622     0.8811     1.3696 </r>
       <r>    -8.4939     0.6576     1.4145 </r>
       <r>    -8.4255     1.0067     1.4833 </r>
       <r>    -8.3572     0.2157     1.4981 </r>
       <r>    -8.2888     0.7038     1.5462 </r>
       <r>    -8.2205     2.9005     1.7444 </r>
       <r>    -8.1521     4.0890     2.0239 </r>
       <r>    -8.0838     2.9687     2.2268 </r>
       <r>    -8.0154     1.4532     2.3261 </r>
       <r>    -7.9471     1.8037     2.4494 </r>
       <r>    -7.8788     1.8352     2.5748 </r>
       <r>    -7.8104     2.8385     2.7688 </r>
       <r>    -7.7421     6.5661     3.2176 </r>
       <r>    -7.6737     6.5098     3.6625 </r>
       <r>    -7.6054     4.9121     3.9982 </r>
       <r>    -7.5370     8.4027     4.5725 </r>
       <r>    -7.4687    11.7095     5.3728 </r>
       <r>    -7.4003     8.1280     5.9283 </r>
       <r>    -7.3320     7.3112     6.4280 </r>
       <r>    -7.2636    14.0926     7.3912 </r>
       <r>    -7.1953    14.1496     8.3582 </r>
       <r>    -7.1270    10.4656     9.0735 </r>
       <r>    -7.0586    13.7155    10.0109 </r>
       <r>    -6.9903    21.3015    11.4668 </r>
       <r>    -6.9219    25.1723    13.1872 </r>
       <r>    -6.8536    24.5575    14.8656 </r>
       <r>    -6.7852    29.0722    16.8526 </r>
       <r>    -6.7169    36.4305    19.3424 </r>
       <r>    -6.6485    29.5498    21.3621 </r>
       <r>    -6.5802    17.5845    22.5639 </r>
       <r>    -6.5118    15.6415    23.6329 </r>
       <r>    -6.4435    16.7808    24.7798 </r>
       <r>    -6.3751    12.1392    25.6095 </r>
       <r>    -6.3068     8.7874    26.2101 </r>
       <r>    -6.2385    11.8415    27.0194 </r>
       <r>    -6.1701    14.5466    28.0136 </r>
       <r>    -6.1018    17.0241    29.1771 </r>
       <r>    -6.0334    17.2514    30.3562 </r>
       <r>    -5.9651    11.8650    31.1671 </r>
       <r>    -5.8967    11.0720    31.9238 </r>
       <r>    -5.8284    26.3652    33.7258 </r>
       <r>    -5.7600    39.1262    36.3999 </r>
       <r>    -5.6917    32.1965    38.6004 </r>
       <r>    -5.6233    22.4371    40.1339 </r>
       <r>    -5.5550    26.1052    41.9180 </r>
       <r>    -5.4867    37.8294    44.5035 </r>
       <r>    -5.4183    37.9148    47.0948 </r>
       <r>    -5.3500    24.9494    48.8000 </r>
       <r>    -5.2816    22.6710    50.3495 </r>
       <r>    -5.2133    31.7451    52.5192 </r>
       <r>    -5.1449    36.2139    54.9942 </r>
       <r>    -5.0766    37.7342    57.5732 </r>
       <r>    -5.0082    40.0907    60.3132 </r>
       <r>    -4.9399    38.1365    62.9197 </r>
       <r>    -4.8715    35.4997    65.3460 </r>
       <r>    -4.8032    28.6891    67.3068 </r>
       <r>    -4.7348    24.8873    69.0077 </r>
       <r>    -4.6665    28.6772    70.9677 </r>
       <r>    -4.5982    29.3453    72.9733 </r>
       <r>    -4.5298    26.1393    74.7598 </r>
       <r>    -4.4615    18.1578    76.0008 </r>
       <r>    -4.3931    12.7373    76.8714 </r>
       <r>    -4.3248    19.6006    78.2110 </r>
       <r>    -4.2564    35.9077    80.6651 </r>
       <r>    -4.1881    43.7706    83.6567 </r>
       <r>    -4.1197    42.6318    86.5704 </r>
       <r>    -4.0514    45.3997    89.6733 </r>
       <r>    -3.9830    38.1404    92.2800 </r>
       <r>    -3.9147    25.7825    94.0421 </r>
       <r>    -3.8464    22.6424    95.5896 </r>
       <r>    -3.7780    22.3411    97.1166 </r>
       <r>    -3.7097    24.0358    98.7593 </r>
       <r>    -3.6413    28.9518   100.7380 </r>
       <r>    -3.5730    25.1849   102.4593 </r>
       <r>    -3.5046    23.0469   104.0345 </r>
       <r>    -3.4363    31.3111   106.1745 </r>
       <r>    -3.3679    34.8159   108.5540 </r>
       <r>    -3.2996    34.9148   110.9403 </r>
       <r>    -3.2312    48.2940   114.2410 </r>
       <r>    -3.1629    60.0141   118.3427 </r>
       <r>    -3.0945    37.6118   120.9133 </r>
       <r>    -3.0262    19.9419   122.2763 </r>
       <r>    -2.9579    21.7385   123.7620 </r>
       <r>    -2.8895    19.0184   125.0618 </r>
       <r>    -2.8212    15.8430   126.1446 </r>
       <r>    -2.7528    11.9046   126.9582 </r>
       <r>    -2.6845     5.2368   127.3162 </r>
       <r>    -2.6161     0.7844   127.3698 </r>
       <r>    -2.5478     0.6824   127.4164 </r>
       <r>    -2.4794     0.8376   127.4737 </r>
       <r>    -2.4111     0.0139   127.4746 </r>
       <r>    -2.3427     0.0320   127.4768 </r>
       <r>    -2.2744     2.0428   127.6164 </r>
       <r>    -2.2060     6.7304   128.0764 </r>
       <r>    -2.1377     9.6229   128.7341 </r>
       <r>    -2.0694     8.4155   129.3092 </r>
       <r>    -2.0010     6.2277   129.7349 </r>
       <r>    -1.9327     4.1471   130.0183 </r>
       <r>    -1.8643     2.3044   130.1758 </r>
       <r>    -1.7960     2.1377   130.3219 </r>
       <r>    -1.7276     1.5907   130.4306 </r>
       <r>    -1.6593     0.2730   130.4493 </r>
       <r>    -1.5909     1.4311   130.5471 </r>
       <r>    -1.5226     3.1047   130.7593 </r>
       <r>    -1.4542     1.8329   130.8846 </r>
       <r>    -1.3859     0.4718   130.9168 </r>
       <r>    -1.3176     1.3937   131.0121 </r>
       <r>    -1.2492     6.5781   131.4617 </r>
       <r>    -1.1809    13.5774   132.3896 </r>
       <r>    -1.1125    11.9391   133.2056 </r>
       <r>    -1.0442     5.4330   133.5769 </r>
       <r>    -0.9758     2.7480   133.7647 </r>
       <r>    -0.9075     2.2075   133.9156 </r>
       <r>    -0.8391     2.5444   134.0895 </r>
       <r>    -0.7708     1.7763   134.2109 </r>
       <r>    -0.7024     1.8822   134.3396 </r>
       <r>    -0.6341     3.3641   134.5695 </r>
       <r>    -0.5657     2.9269   134.7695 </r>
       <r>    -0.4974     2.9848   134.9735 </r>
       <r>    -0.4291     2.0404   135.1130 </r>
       <r>    -0.3607     0.2971   135.1333 </r>
       <r>    -0.2924     0.4164   135.1617 </r>
       <r>    -0.2240     2.8169   135.3543 </r>
       <r>    -0.1557     9.0511   135.9729 </r>
       <r>    -0.0873    14.8587   136.9884 </r>
       <r>    -0.0190    11.4540   137.7712 </r>
       <r>     0.0494     5.1208   138.1212 </r>
       <r>     0.1177     2.4389   138.2879 </r>
       <r>     0.1861     2.6934   138.4720 </r>
       <r>     0.2544     2.3320   138.6314 </r>
       <r>     0.3227     1.0220   138.7012 </r>
       <r>     0.3911     0.9668   138.7673 </r>
       <r>     0.4594     1.0177   138.8369 </r>
       <r>     0.5278     1.5718   138.9443 </r>
       <r>     0.5961     2.7661   139.1333 </r>
       <r>     0.6645     1.6129   139.2436 </r>
       <r>     0.7328     1.3071   139.3329 </r>
       <r>     0.8012     6.5805   139.7827 </r>
       <r>     0.8695     9.3467   140.4215 </r>
       <r>     0.9379     6.7469   140.8826 </r>
       <r>     1.0062     6.0522   141.2962 </r>
       <r>     1.0746     8.4469   141.8735 </r>
       <r>     1.1429     6.1380   142.2930 </r>
       <r>     1.2112     1.6409   142.4052 </r>
       <r>     1.2796     1.6605   142.5187 </r>
       <r>     1.3479     3.9581   142.7892 </r>
       <r>     1.4163     3.8177   143.0501 </r>
       <r>     1.4846     1.3107   143.1397 </r>
       <r>     1.5530     0.0859   143.1456 </r>
       <r>     1.6213     1.3710   143.2393 </r>
       <r>     1.6897     2.7461   143.4270 </r>
       <r>     1.7580     4.2617   143.7182 </r>
       <r>     1.8264     6.8021   144.1831 </r>
       <r>     1.8947     5.1500   144.5351 </r>
       <r>     1.9630     1.2286   144.6191 </r>
       <r>     2.0314     0.2676   144.6374 </r>
       <r>     2.0997     2.7799   144.8274 </r>
       <r>     2.1681     6.2691   145.2558 </r>
       <r>     2.2364     9.5879   145.9111 </r>
       <r>     2.3048     8.7196   146.5071 </r>
       <r>     2.3731     4.8494   146.8385 </r>
       <r>     2.4415     2.6877   147.0222 </r>
       <r>     2.5098     1.0121   147.0914 </r>
       <r>     2.5782     2.9932   147.2960 </r>
       <r>     2.6465     6.1264   147.7147 </r>
       <r>     2.7149     5.1423   148.0661 </r>
       <r>     2.7832     2.9977   148.2710 </r>
       <r>     2.8515     3.4397   148.5061 </r>
       <r>     2.9199     5.2960   148.8681 </r>
       <r>     2.9882     5.2517   149.2270 </r>
       <r>     3.0566     4.1256   149.5090 </r>
       <r>     3.1249     7.1186   149.9955 </r>
       <r>     3.1933     7.2333   150.4899 </r>
       <r>     3.2616     4.0016   150.7633 </r>
       <r>     3.3300     2.3508   150.9240 </r>
       <r>     3.3983     1.4236   151.0213 </r>
       <r>     3.4667     3.6542   151.2711 </r>
       <r>     3.5350     4.6422   151.5883 </r>
       <r>     3.6033     3.0984   151.8001 </r>
       <r>     3.6717     3.2802   152.0243 </r>
       <r>     3.7400     7.3434   152.5262 </r>
       <r>     3.8084    13.0657   153.4192 </r>
       <r>     3.8767    12.0524   154.2429 </r>
       <r>     3.9451     6.1543   154.6635 </r>
       <r>     4.0134     3.8516   154.9268 </r>
       <r>     4.0818     4.0123   155.2010 </r>
       <r>     4.1501     8.0296   155.7498 </r>
       <r>     4.2185    11.2957   156.5218 </r>
       <r>     4.2868     8.5648   157.1072 </r>
       <r>     4.3552     6.7221   157.5666 </r>
       <r>     4.4235     5.7468   157.9594 </r>
       <r>     4.4918     8.5296   158.5423 </r>
       <r>     4.5602    11.6328   159.3374 </r>
       <r>     4.6285    10.7500   160.0721 </r>
       <r>     4.6969     8.6942   160.6663 </r>
       <r>     4.7652     5.2510   161.0252 </r>
       <r>     4.8336     6.0248   161.4370 </r>
       <r>     4.9019     8.9183   162.0465 </r>
       <r>     4.9703     8.4608   162.6248 </r>
       <r>     5.0386     8.0031   163.1717 </r>
       <r>     5.1070     7.5698   163.6891 </r>
       <r>     5.1753     6.5389   164.1360 </r>
       <r>     5.2437     6.6627   164.5914 </r>
       <r>     5.3120     7.1297   165.0787 </r>
       <r>     5.3803     8.2209   165.6405 </r>
       <r>     5.4487    11.0092   166.3930 </r>
       <r>     5.5170    16.4797   167.5193 </r>
       <r>     5.5854    15.4372   168.5744 </r>
       <r>     5.6537     6.3625   169.0092 </r>
       <r>     5.7221     2.0221   169.1474 </r>
       <r>     5.7904     4.9980   169.4890 </r>
       <r>     5.8588     7.9568   170.0328 </r>
       <r>     5.9271    10.1281   170.7250 </r>
       <r>     5.9955    14.9766   171.7486 </r>
       <r>     6.0638    15.9390   172.8380 </r>
       <r>     6.1321    12.0614   173.6623 </r>
       <r>     6.2005    11.4130   174.4424 </r>
       <r>     6.2688     9.4019   175.0849 </r>
[...]
        <r>  0.0013  0.0004  0.0489 </r>
        <r>  0.0013  0.0004  0.0489 </r>
        <r>  0.0004  0.0011  0.0925 </r>
        <r>  0.0004  0.0011  0.0925 </r>
        <r>  0.0004  0.0011  0.0925 </r>
        <r>  0.0004  0.0011  0.0925 </r>
       </set>
       <set comment="band 63">
        <r>  0.0004  0.0011  0.0925 </r>
        <r>  0.0004  0.0011  0.0925 </r>
        <r>  0.0004  0.0011  0.0925 </r>
        <r>  0.0004  0.0011  0.0925 </r>
        <r>  0.0013  0.0004  0.0489 </r>
        <r>  0.0013  0.0004  0.0489 </r>
        <r>  0.0013  0.0004  0.0489 </r>
        <r>  0.0013  0.0004  0.0489 </r>
        <r>  0.0004  0.0011  0.0925 </r>
        <r>  0.0004  0.0011  0.0925 </r>
        <r>  0.0004  0.0011  0.0925 </r>
        <r>  0.0004  0.0011  0.0925 </r>
       </set>
       <set comment="band 64">
        <r>  0.0180  0.0050  0.0482 </r>
        <r>  0.0180  0.0050  0.0482 </r>
        <r>  0.0180  0.0050  0.0482 </r>
        <r>  0.0180  0.0050  0.0482 </r>
        <r>  0.0000  0.0023  0.0584 </r>
        <r>  0.0000  0.0023  0.0584 </r>
        <r>  0.0000  0.0023  0.0584 </r>
        <r>  0.0000  0.0023  0.0584 </r>
        <r>  0.0180  0.0050  0.0482 </r>
        <r>  0.0180  0.0050  0.0482 </r>
        <r>  0.0180  0.0050  0.0482 </r>
        <r>  0.0180  0.0050  0.0482 </r>
       </set>
       <set comment="band 65">
        <r>  0.0180  0.0050  0.0482 </r>
        <r>  0.0180  0.0050  0.0482 </r>
        <r>  0.0180  0.0050  0.0482 </r>
        <r>  0.0180  0.0050  0.0482 </r>
        <r>  0.0000  0.0023  0.0584 </r>
        <r>  0.0000  0.0023  0.0584 </r>
        <r>  0.0000  0.0023  0.0584 </r>
        <r>  0.0000  0.0023  0.0584 </r>
        <r>  0.0180  0.0050  0.0482 </r>
        <r>  0.0180  0.0050  0.0482 </r>
        <r>  0.0180  0.0050  0.0482 </r>
        <r>  0.0180  0.0050  0.0482 </r>
       </set>
       <set comment="band 66">
        <r>  0.0180  0.0050  0.0482 </r>
        <r>  0.0180  0.0050  0.0482 </r>
        <r>  0.0180  0.0050  0.0482 </r>
        <r>  0.0180  0.0050  0.0482 </r>
        <r>  0.0000  0.0023  0.0584 </r>
        <r>  0.0000  0.0023  0.0584 </r>
        <r>  0.0000  0.0023  0.0584 </r>
        <r>  0.0000  0.0023  0.0584 </r>
        <r>  0.0180  0.0050  0.0482 </r>
        <r>  0.0180  0.0050  0.0482 </r>
        <r>  0.0180  0.0050  0.0482 </r>
        <r>  0.0180  0.0050  0.0482 </r>
       </set>
       <set comment="band 67">
        <r>  0.0189  0.0085  0.0282 </r>
        <r>  0.0189  0.0085  0.0282 </r>
        <r>  0.0189  0.0085  0.0282 </r>
        <r>  0.0189  0.0085  0.0282 </r>
        <r>  0.0317  0.0057  0.0234 </r>
        <r>  0.0317  0.0057  0.0234 </r>
        <r>  0.0317  0.0057  0.0234 </r>
        <r>  0.0317  0.0057  0.0234 </r>
        <r>  0.0189  0.0085  0.0282 </r>
        <r>  0.0189  0.0085  0.0282 </r>
        <r>  0.0189  0.0085  0.0282 </r>
        <r>  0.0189  0.0085  0.0282 </r>
       </set>
       <set comment="band 68">
        <r>  0.0189  0.0085  0.0282 </r>
        <r>  0.0189  0.0086  0.0282 </r>
        <r>  0.0189  0.0086  0.0282 </r>
        <r>  0.0189  0.0085  0.0282 </r>
        <r>  0.0317  0.0057  0.0234 </r>
        <r>  0.0317  0.0057  0.0234 </r>
        <r>  0.0317  0.0057  0.0234 </r>
        <r>  0.0317  0.0057  0.0234 </r>
        <r>  0.0189  0.0086  0.0282 </r>
        <r>  0.0189  0.0085  0.0282 </r>
        <r>  0.0189  0.0085  0.0282 </r>
        <r>  0.0189  0.0086  0.0282 </r>
       </set>
       <set comment="band 69">
        <r>  0.0189  0.0086  0.0282 </r>
        <r>  0.0189  0.0085  0.0282 </r>
        <r>  0.0189  0.0085  0.0282 </r>
        <r>  0.0189  0.0086  0.0282 </r>
        <r>  0.0317  0.0057  0.0234 </r>
        <r>  0.0317  0.0057  0.0234 </r>
        <r>  0.0317  0.0057  0.0234 </r>
        <r>  0.0317  0.0057  0.0234 </r>
        <r>  0.0189  0.0085  0.0282 </r>
        <r>  0.0189  0.0086  0.0282 </r>
        <r>  0.0189  0.0086  0.0282 </r>
        <r>  0.0189  0.0085  0.0282 </r>
       </set>
       <set comment="band 70">
        <r>  0.0000  0.0085  0.0192 </r>
        <r>  0.0000  0.0085  0.0192 </r>
        <r>  0.0000  0.0085  0.0192 </r>
        <r>  0.0000  0.0085  0.0192 </r>
        <r>  0.1200  0.0000  0.0110 </r>
        <r>  0.1200  0.0000  0.0110 </r>
        <r>  0.1200  0.0000  0.0110 </r>
        <r>  0.1200  0.0000  0.0110 </r>
        <r>  0.0000  0.0085  0.0192 </r>
        <r>  0.0000  0.0085  0.0192 </r>
        <r>  0.0000  0.0085  0.0192 </r>
        <r>  0.0000  0.0085  0.0192 </r>
       </set>
       <set comment="band 71">
        <r>  0.0591  0.0018  0.0091 </r>
        <r>  0.0591  0.0018  0.0091 </r>
        <r>  0.0591  0.0018  0.0091 </r>
        <r>  0.0591  0.0018  0.0091 </r>
        <r>  0.0000  0.0165  0.0236 </r>
        <r>  0.0000  0.0165  0.0236 </r>
        <r>  0.0000  0.0165  0.0236 </r>
        <r>  0.0000  0.0165  0.0236 </r>
        <r>  0.0589  0.0018  0.0091 </r>
        <r>  0.0589  0.0018  0.0091 </r>
        <r>  0.0589  0.0018  0.0091 </r>
        <r>  0.0589  0.0018  0.0091 </r>
       </set>
       <set comment="band 72">
        <r>  0.0589  0.0018  0.0091 </r>
        <r>  0.0589  0.0018  0.0091 </r>
        <r>  0.0589  0.0018  0.0091 </r>
        <r>  0.0589  0.0018  0.0091 </r>
        <r>  0.0000  0.0165  0.0236 </r>
        <r>  0.0000  0.0165  0.0236 </r>
        <r>  0.0000  0.0165  0.0236 </r>
        <r>  0.0000  0.0165  0.0236 </r>
        <r>  0.0591  0.0018  0.0091 </r>
        <r>  0.0591  0.0018  0.0091 </r>
        <r>  0.0591  0.0018  0.0091 </r>
        <r>  0.0591  0.0018  0.0091 </r>
       </set>
       <set comment="band 73">
        <r>  0.0000  0.0222  0.0126 </r>
        <r>  0.0000  0.0223  0.0126 </r>
        <r>  0.0000  0.0223  0.0126 </r>
        <r>  0.0000  0.0222  0.0126 </r>
        <r>  0.0000  0.0221  0.0144 </r>
        <r>  0.0000  0.0222  0.0144 </r>
        <r>  0.0000  0.0222  0.0144 </r>
        <r>  0.0000  0.0221  0.0144 </r>
        <r>  0.0000  0.0223  0.0126 </r>
        <r>  0.0000  0.0223  0.0126 </r>
        <r>  0.0000  0.0223  0.0126 </r>
        <r>  0.0000  0.0223  0.0126 </r>
       </set>
       <set comment="band 74">
        <r>  0.0000  0.0223  0.0126 </r>
        <r>  0.0000  0.0222  0.0126 </r>
        <r>  0.0000  0.0222  0.0126 </r>
        <r>  0.0000  0.0223  0.0126 </r>
        <r>  0.0000  0.0222  0.0144 </r>
        <r>  0.0000  0.0221  0.0144 </r>
        <r>  0.0000  0.0221  0.0144 </r>
        <r>  0.0000  0.0222  0.0144 </r>
        <r>  0.0000  0.0223  0.0126 </r>
        <r>  0.0000  0.0223  0.0126 </r>
        <r>  0.0000  0.0223  0.0126 </r>
        <r>  0.0000  0.0223  0.0126 </r>
       </set>
       <set comment="band 75">
        <r>  0.0000  0.0223  0.0126 </r>
        <r>  0.0000  0.0223  0.0126 </r>
        <r>  0.0000  0.0223  0.0126 </r>
        <r>  0.0000  0.0223  0.0126 </r>
        <r>  0.0000  0.0222  0.0144 </r>
        <r>  0.0000  0.0222  0.0144 </r>
        <r>  0.0000  0.0222  0.0144 </r>
        <r>  0.0000  0.0222  0.0144 </r>
        <r>  0.0000  0.0223  0.0126 </r>
        <r>  0.0000  0.0223  0.0126 </r>
        <r>  0.0000  0.0223  0.0126 </r>
        <r>  0.0000  0.0223  0.0126 </r>
       </set>
       <set comment="band 76">
        <r>  0.0000  0.0378  0.0277 </r>
        <r>  0.0000  0.0378  0.0277 </r>
        <r>  0.0000  0.0378  0.0277 </r>
        <r>  0.0000  0.0378  0.0277 </r>
        <r>  0.0000  0.0255  0.0000 </r>
        <r>  0.0000  0.0255  0.0000 </r>
        <r>  0.0000  0.0255  0.0000 </r>
        <r>  0.0000  0.0255  0.0000 </r>
        <r>  0.0000  0.0378  0.0277 </r>
        <r>  0.0000  0.0378  0.0277 </r>
        <r>  0.0000  0.0378  0.0277 </r>
        <r>  0.0000  0.0378  0.0277 </r>
       </set>
       <set comment="band 77">
        <r>  0.0147  0.0243  0.0137 </r>
        <r>  0.0147  0.0243  0.0137 </r>
        <r>  0.0147  0.0243  0.0137 </r>
        <r>  0.0147  0.0243  0.0137 </r>
        <r>  0.0000  0.0263  0.0215 </r>
        <r>  0.0000  0.0263  0.0215 </r>
        <r>  0.0000  0.0263  0.0215 </r>
        <r>  0.0000  0.0263  0.0215 </r>
        <r>  0.0149  0.0241  0.0136 </r>
        <r>  0.0149  0.0241  0.0136 </r>
        <r>  0.0149  0.0241  0.0136 </r>
        <r>  0.0149  0.0241  0.0136 </r>
       </set>
       <set comment="band 78">
        <r>  0.0149  0.0241  0.0136 </r>
        <r>  0.0149  0.0241  0.0136 </r>
        <r>  0.0149  0.0241  0.0136 </r>
        <r>  0.0149  0.0241  0.0136 </r>
        <r>  0.0000  0.0263  0.0215 </r>
        <r>  0.0000  0.0263  0.0215 </r>
        <r>  0.0000  0.0263  0.0215 </r>
        <r>  0.0000  0.0263  0.0215 </r>
        <r>  0.0147  0.0243  0.0137 </r>
        <r>  0.0147  0.0243  0.0137 </r>
        <r>  0.0147  0.0243  0.0137 </r>
        <r>  0.0147  0.0243  0.0137 </r>
       </set>
       <set comment="band 79">
        <r>  0.0068  0.0050  0.0039 </r>
        <r>  0.0069  0.0050  0.0040 </r>
        <r>  0.0069  0.0050  0.0040 </r>
        <r>  0.0068  0.0050  0.0039 </r>
        <r>  0.0119  0.0001  0.0036 </r>
        <r>  0.0120  0.0001  0.0036 </r>
        <r>  0.0120  0.0001  0.0036 </r>
        <r>  0.0119  0.0001  0.0036 </r>
        <r>  0.0068  0.0050  0.0040 </r>
        <r>  0.0068  0.0050  0.0039 </r>
        <r>  0.0068  0.0050  0.0039 </r>
        <r>  0.0068  0.0050  0.0040 </r>
       </set>
       <set comment="band 80">
        <r>  0.0069  0.0050  0.0040 </r>
        <r>  0.0068  0.0050  0.0039 </r>
        <r>  0.0068  0.0050  0.0039 </r>
        <r>  0.0068  0.0050  0.0040 </r>
        <r>  0.0120  0.0001  0.0036 </r>
        <r>  0.0119  0.0001  0.0036 </r>
        <r>  0.0119  0.0001  0.0036 </r>
        <r>  0.0120  0.0001  0.0036 </r>
        <r>  0.0068  0.0050  0.0039 </r>
        <r>  0.0068  0.0050  0.0040 </r>
        <r>  0.0068  0.0050  0.0040 </r>
        <r>  0.0068  0.0050  0.0039 </r>
       </set>
       <set comment="band 81">
        <r>  0.0068  0.0050  0.0040 </r>
        <r>  0.0068  0.0050  0.0040 </r>
        <r>  0.0068  0.0050  0.0040 </r>
        <r>  0.0068  0.0050  0.0040 </r>
        <r>  0.0120  0.0001  0.0036 </r>
        <r>  0.0120  0.0001  0.0036 </r>
        <r>  0.0120  0.0001  0.0036 </r>
        <r>  0.0120  0.0001  0.0036 </r>
        <r>  0.0068  0.0050  0.0039 </r>
        <r>  0.0068  0.0050  0.0040 </r>
        <r>  0.0068  0.0050  0.0040 </r>
        <r>  0.0068  0.0050  0.0040 </r>
       </set>
       <set comment="band 82">
        <r>  0.0014  0.0030  0.0015 </r>
        <r>  0.0014  0.0030  0.0015 </r>
        <r>  0.0014  0.0030  0.0015 </r>
        <r>  0.0014  0.0030  0.0015 </r>
        <r>  0.0000  0.0055  0.0010 </r>
        <r>  0.0000  0.0055  0.0010 </r>
        <r>  0.0000  0.0054  0.0010 </r>
        <r>  0.0000  0.0055  0.0010 </r>
        <r>  0.0014  0.0030  0.0015 </r>
        <r>  0.0014  0.0030  0.0015 </r>
        <r>  0.0014  0.0030  0.0015 </r>
        <r>  0.0014  0.0030  0.0015 </r>
       </set>
       <set comment="band 83">
        <r>  0.0013  0.0029  0.0015 </r>
        <r>  0.0015  0.0032  0.0015 </r>
        <r>  0.0015  0.0032  0.0016 </r>
        <r>  0.0013  0.0029  0.0015 </r>
        <r>  0.0000  0.0052  0.0010 </r>
        <r>  0.0000  0.0057  0.0010 </r>
        <r>  0.0000  0.0058  0.0009 </r>
        <r>  0.0000  0.0053  0.0010 </r>
        <r>  0.0014  0.0031  0.0015 </r>
        <r>  0.0014  0.0030  0.0016 </r>
        <r>  0.0014  0.0030  0.0015 </r>
        <r>  0.0014  0.0030  0.0015 </r>
       </set>
       <set comment="band 84">
        <r>  0.0015  0.0032  0.0015 </r>
        <r>  0.0013  0.0029  0.0015 </r>
        <r>  0.0013  0.0029  0.0015 </r>
        <r>  0.0015  0.0032  0.0016 </r>
        <r>  0.0000  0.0057  0.0010 </r>
        <r>  0.0000  0.0052  0.0010 </r>
        <r>  0.0000  0.0053  0.0010 </r>
        <r>  0.0000  0.0057  0.0010 </r>
        <r>  0.0014  0.0030  0.0015 </r>
        <r>  0.0014  0.0030  0.0015 </r>
        <r>  0.0014  0.0031  0.0015 </r>
        <r>  0.0014  0.0030  0.0015 </r>
       </set>
       <set comment="band 85">
        <r>  0.0006  0.0008  0.0004 </r>
        <r>  0.0010  0.0014  0.0005 </r>
        <r>  0.0011  0.0015  0.0005 </r>
        <r>  0.0006  0.0009  0.0004 </r>
        <r>  0.0018  0.0000  0.0004 </r>
        <r>  0.0017  0.0000  0.0004 </r>
        <r>  0.0022  0.0000  0.0005 </r>
        <r>  0.0022  0.0000  0.0005 </r>
        <r>  0.0011  0.0015  0.0005 </r>
        <r>  0.0007  0.0009  0.0004 </r>
        <r>  0.0006  0.0008  0.0004 </r>
        <r>  0.0009  0.0013  0.0005 </r>
       </set>
       <set comment="band 86">
        <r>  0.0010  0.0014  0.0005 </r>
        <r>  0.0006  0.0009  0.0004 </r>
        <r>  0.0006  0.0008  0.0004 </r>
        <r>  0.0011  0.0015  0.0005 </r>
        <r>  0.0020  0.0000  0.0005 </r>
        <r>  0.0019  0.0000  0.0004 </r>
        <r>  0.0020  0.0000  0.0005 </r>
        <r>  0.0020  0.0000  0.0004 </r>
        <r>  0.0006  0.0008  0.0004 </r>
        <r>  0.0010  0.0015  0.0005 </r>
        <r>  0.0010  0.0014  0.0005 </r>
        <r>  0.0006  0.0009  0.0004 </r>
       </set>
       <set comment="band 87">
        <r>  0.0009  0.0012  0.0004 </r>
        <r>  0.0008  0.0012  0.0004 </r>
        <r>  0.0008  0.0011  0.0005 </r>
        <r>  0.0007  0.0010  0.0004 </r>
        <r>  0.0022  0.0000  0.0005 </r>
        <r>  0.0023  0.0000  0.0005 </r>
        <r>  0.0017  0.0000  0.0004 </r>
        <r>  0.0018  0.0000  0.0004 </r>
        <r>  0.0008  0.0011  0.0004 </r>
        <r>  0.0007  0.0010  0.0004 </r>
        <r>  0.0009  0.0012  0.0005 </r>
        <r>  0.0009  0.0012  0.0004 </r>
       </set>
       <set comment="band 88">
        <r>  0.0016  0.0338  0.0131 </r>
        <r>  0.0016  0.0338  0.0131 </r>
        <r>  0.0016  0.0338  0.0131 </r>
        <r>  0.0016  0.0338  0.0131 </r>
        <r>  0.0000  0.0300  0.0206 </r>
        <r>  0.0000  0.0300  0.0206 </r>
        <r>  0.0000  0.0300  0.0206 </r>
        <r>  0.0000  0.0300  0.0206 </r>
        <r>  0.0019  0.0322  0.0112 </r>
        <r>  0.0019  0.0322  0.0112 </r>
        <r>  0.0019  0.0322  0.0112 </r>
        <r>  0.0019  0.0322  0.0112 </r>
       </set>
       <set comment="band 89">
        <r>  0.0019  0.0322  0.0112 </r>
        <r>  0.0019  0.0322  0.0112 </r>
        <r>  0.0019  0.0322  0.0112 </r>
        <r>  0.0019  0.0322  0.0112 </r>
        <r>  0.0000  0.0300  0.0206 </r>
        <r>  0.0000  0.0300  0.0206 </r>
        <r>  0.0000  0.0300  0.0206 </r>
        <r>  0.0000  0.0300  0.0206 </r>
        <r>  0.0016  0.0338  0.0131 </r>
        <r>  0.0016  0.0338  0.0131 </r>
        <r>  0.0016  0.0338  0.0131 </r>
        <r>  0.0016  0.0338  0.0131 </r>
       </set>
       <set comment="band 90">
        <r>  0.0000  0.0346  0.0207 </r>
        <r>  0.0000  0.0346  0.0207 </r>
        <r>  0.0000  0.0346  0.0207 </r>
        <r>  0.0000  0.0346  0.0207 </r>
        <r>  0.0355  0.0000  0.0014 </r>
        <r>  0.0355  0.0000  0.0014 </r>
        <r>  0.0355  0.0000  0.0014 </r>
        <r>  0.0355  0.0000  0.0014 </r>
        <r>  0.0000  0.0346  0.0207 </r>
        <r>  0.0000  0.0346  0.0207 </r>
        <r>  0.0000  0.0346  0.0207 </r>
        <r>  0.0000  0.0346  0.0207 </r>
       </set>
       <set comment="band 91">
        <r>  0.0028  0.0080  0.0014 </r>
        <r>  0.0030  0.0086  0.0014 </r>
        <r>  0.0030  0.0086  0.0014 </r>
        <r>  0.0028  0.0080  0.0014 </r>
        <r>  0.0122  0.0018  0.0015 </r>
        <r>  0.0122  0.0018  0.0015 </r>
        <r>  0.0123  0.0018  0.0015 </r>
        <r>  0.0122  0.0018  0.0015 </r>
        <r>  0.0030  0.0086  0.0014 </r>
        <r>  0.0028  0.0080  0.0014 </r>
        <r>  0.0028  0.0080  0.0014 </r>
        <r>  0.0030  0.0086  0.0014 </r>
       </set>
       <set comment="band 92">
        <r>  0.0030  0.0086  0.0014 </r>
        <r>  0.0028  0.0080  0.0014 </r>
        <r>  0.0028  0.0080  0.0014 </r>
        <r>  0.0030  0.0086  0.0014 </r>
        <r>  0.0123  0.0018  0.0015 </r>
        <r>  0.0122  0.0018  0.0015 </r>
        <r>  0.0122  0.0018  0.0015 </r>
        <r>  0.0123  0.0018  0.0015 </r>
        <r>  0.0028  0.0080  0.0014 </r>
        <r>  0.0030  0.0086  0.0014 </r>
        <r>  0.0030  0.0086  0.0014 </r>
        <r>  0.0028  0.0080  0.0014 </r>
       </set>
       <set comment="band 93">
        <r>  0.0029  0.0083  0.0014 </r>
        <r>  0.0029  0.0083  0.0014 </r>
        <r>  0.0029  0.0083  0.0014 </r>
        <r>  0.0029  0.0083  0.0014 </r>
        <r>  0.0122  0.0018  0.0015 </r>
        <r>  0.0122  0.0018  0.0015 </r>
        <r>  0.0122  0.0018  0.0015 </r>
        <r>  0.0122  0.0018  0.0015 </r>
        <r>  0.0029  0.0083  0.0014 </r>
        <r>  0.0029  0.0083  0.0014 </r>
        <r>  0.0029  0.0083  0.0014 </r>
        <r>  0.0029  0.0083  0.0014 </r>
       </set>
       <set comment="band 94">
        <r>  0.0030  0.0022  0.0016 </r>
        <r>  0.0014  0.0011  0.0012 </r>
        <r>  0.0015  0.0011  0.0012 </r>
        <r>  0.0031  0.0023  0.0016 </r>
        <r>  0.0000  0.0075  0.0005 </r>
        <r>  0.0000  0.0040  0.0007 </r>
        <r>  0.0000  0.0040  0.0007 </r>
        <r>  0.0000  0.0076  0.0005 </r>
        <r>  0.0021  0.0016  0.0014 </r>
        <r>  0.0023  0.0018  0.0014 </r>
        <r>  0.0024  0.0018  0.0014 </r>
        <r>  0.0022  0.0016  0.0014 </r>
       </set>
       <set comment="band 95">
        <r>  0.0014  0.0011  0.0012 </r>
        <r>  0.0031  0.0023  0.0016 </r>
        <r>  0.0030  0.0022  0.0016 </r>
        <r>  0.0015  0.0011  0.0012 </r>
        <r>  0.0000  0.0041  0.0007 </r>
        <r>  0.0000  0.0075  0.0005 </r>
        <r>  0.0000  0.0077  0.0005 </r>
        <r>  0.0000  0.0039  0.0007 </r>
        <r>  0.0024  0.0018  0.0014 </r>
        <r>  0.0021  0.0016  0.0014 </r>
        <r>  0.0022  0.0016  0.0014 </r>
        <r>  0.0023  0.0017  0.0014 </r>
       </set>
       <set comment="band 96">
        <r>  0.0023  0.0017  0.0014 </r>
        <r>  0.0023  0.0017  0.0014 </r>
        <r>  0.0023  0.0017  0.0014 </r>
        <r>  0.0022  0.0017  0.0014 </r>
        <r>  0.0000  0.0057  0.0006 </r>
        <r>  0.0000  0.0059  0.0006 </r>
        <r>  0.0000  0.0056  0.0006 </r>
        <r>  0.0000  0.0058  0.0006 </r>
        <r>  0.0022  0.0017  0.0014 </r>
        <r>  0.0023  0.0017  0.0014 </r>
        <r>  0.0022  0.0017  0.0014 </r>
        <r>  0.0023  0.0017  0.0014 </r>
       </set>
      </set>
     </set>
    </set>
   </array>
  </projected>
 </calculation>
 <structure name="finalpos" >
  <crystal>
   <varray name="basis" >
    <v>       5.88029999       0.00000000       0.00000000 </v>
    <v>       2.94015000       5.09248918       0.00000000 </v>
    <v>       0.00000000       0.00000000      24.80124484 </v>
   </varray>
   <i name="volume">    742.68230623 </i>
   <varray name="rec_basis" >
    <v>       0.17005935      -0.09818381       0.00000000 </v>
    <v>       0.00000000       0.19636762       0.00000000 </v>
    <v>       0.00000000       0.00000000       0.04032056 </v>
   </varray>
  </crystal>
  <varray name="positions" >
   <v>       0.16666667       0.16666667       0.40279360 </v>
   <v>       0.66666667       0.16666667       0.40279360 </v>
   <v>       0.16666667       0.66666667       0.40279360 </v>
   <v>       0.66666667       0.66666667       0.40279360 </v>
   <v>       0.83333333       0.33333333       0.50000000 </v>
   <v>       0.33333333       0.33333333       0.50000000 </v>
   <v>       0.83333333       0.83333333       0.50000000 </v>
   <v>       0.33333333       0.83333333       0.50000000 </v>
   <v>       0.00000000       0.00000000       0.59720640 </v>
   <v>       0.50000000       0.00000000       0.59720640 </v>
   <v>       0.00000000       0.50000000       0.59720640 </v>
   <v>       0.50000000       0.50000000       0.59720640 </v>
  </varray>
 </structure>
</modeling>
