unknown system                          
           1
     5.880300    0.000000    0.000000
     2.940150    5.092489    0.000000
     0.000000    0.000000   24.801245
   Au
  12
Direct configuration=     1
   0.16666667  0.16666667  0.40279360
   0.66666667  0.16666667  0.40279360
   0.16666667  0.66666667  0.40279360
   0.66666667  0.66666667  0.40279360
   0.83333333  0.33333333  0.50000000
   0.33333333  0.33333333  0.50000000
   0.83333333  0.83333333  0.50000000
   0.33333333  0.83333333  0.50000000
   0.00000000  0.00000000  0.59720640
   0.50000000  0.00000000  0.59720640
   0.00000000  0.50000000  0.59720640
   0.50000000  0.50000000  0.59720640
