   4   4   0   0
  0.1471597E+02  0.3890000E-09  0.3890000E-09  0.3890000E-09  0.5000000E-15
  1.000000000000000E-004
  CAR 
 unknown system                          
     18.50668426      1.80715046  301      9.82265128      1.00000000
      1.807  0.0000E+00  0.0000E+00
      1.863  0.0000E+00  0.0000E+00
      1.918  0.0000E+00  0.0000E+00
      1.974 -0.9655E-30 -0.5375E-31
      2.030 -0.7042E-26 -0.3920E-27
      2.085 -0.2749E-22 -0.1531E-23
      2.141 -0.5741E-19 -0.3197E-20
      2.197 -0.6405E-16 -0.3568E-17
      2.252 -0.3690E-13 -0.2058E-14
      2.308 -0.1160E-10 -0.6476E-12
      2.364 -0.1929E-08 -0.1080E-09
      2.419 -0.1686E-06 -0.9492E-08
      2.475 -0.7659E-05 -0.4359E-06
      2.531 -0.1771E-03 -0.1029E-04
      2.586 -0.1990E-02 -0.1211E-03
      2.642 -0.9481E-02 -0.6488E-03
      2.698 -0.6483E-02 -0.1010E-02
      2.753  0.8006E-01  0.3447E-02
      2.809  0.2281E+00  0.1615E-01
      2.865  0.2202E+00  0.2841E-01
      2.920  0.6854E-01  0.3222E-01
      2.976 -0.2108E-01  0.3105E-01
      3.032 -0.4644E-01  0.2846E-01
      3.087  0.4114E-01  0.3075E-01
      3.143  0.4306E+00  0.5472E-01
      3.199  0.7590E+00  0.9697E-01
      3.254  0.4865E+00  0.1241E+00
      3.310  0.6112E-01  0.1275E+00
      3.366 -0.7432E-01  0.1233E+00
      3.421  0.5789E-02  0.1236E+00
      3.477  0.3766E+00  0.1446E+00
      3.533  0.7498E+00  0.1863E+00
      3.588  0.5341E+00  0.2161E+00
      3.644  0.8089E-01  0.2206E+00
      3.700 -0.7439E-01  0.2164E+00
      3.755  0.1065E+00  0.2224E+00
      3.811  0.6190E+00  0.2568E+00
      3.867  0.9497E+00  0.3097E+00
      3.922  0.5709E+00  0.3415E+00
      3.978  0.2464E-01  0.3428E+00
      4.034 -0.4872E-01  0.3401E+00
      4.089  0.5963E+00  0.3733E+00
      4.145  0.1419E+01  0.4523E+00
      4.201  0.1188E+01  0.5185E+00
      4.256  0.5706E+00  0.5502E+00
      4.312  0.6194E+00  0.5847E+00
      4.368  0.5329E+00  0.6144E+00
      4.423  0.1897E+00  0.6249E+00
      4.479  0.3804E+00  0.6461E+00
      4.535  0.1133E+01  0.7092E+00
      4.590  0.2555E+01  0.8514E+00
      4.646  0.4339E+01  0.1093E+01
      4.702  0.4899E+01  0.1366E+01
      4.757  0.4059E+01  0.1592E+01
      4.813  0.4487E+01  0.1841E+01
      4.869  0.7372E+01  0.2252E+01
      4.924  0.8671E+01  0.2734E+01
      4.980  0.6376E+01  0.3089E+01
      5.036  0.4432E+01  0.3336E+01
      5.091  0.6000E+01  0.3670E+01
      5.147  0.1035E+02  0.4246E+01
      5.203  0.1315E+02  0.4978E+01
      5.258  0.1239E+02  0.5668E+01
      5.314  0.9210E+01  0.6180E+01
      5.370  0.5598E+01  0.6492E+01
      5.425  0.5901E+01  0.6821E+01
      5.481  0.8757E+01  0.7308E+01
      5.537  0.9264E+01  0.7824E+01
      5.592  0.7902E+01  0.8264E+01
      5.648  0.6636E+01  0.8633E+01
      5.704  0.6824E+01  0.9013E+01
      5.759  0.7493E+01  0.9430E+01
      5.815  0.6918E+01  0.9815E+01
      5.871  0.4694E+01  0.1008E+02
      5.926  0.2593E+01  0.1022E+02
      5.982  0.3212E+01  0.1040E+02
      6.038  0.6171E+01  0.1074E+02
      6.093  0.9099E+01  0.1125E+02
      6.149  0.9697E+01  0.1179E+02
      6.205  0.7910E+01  0.1223E+02
      6.260  0.6077E+01  0.1257E+02
      6.316  0.4423E+01  0.1281E+02
      6.372  0.3533E+01  0.1301E+02
      6.427  0.6324E+01  0.1336E+02
      6.483  0.8909E+01  0.1386E+02
      6.539  0.6414E+01  0.1422E+02
      6.594  0.4430E+01  0.1446E+02
      6.650  0.6609E+01  0.1483E+02
      6.706  0.8327E+01  0.1529E+02
      6.761  0.7363E+01  0.1570E+02
      6.817  0.6480E+01  0.1606E+02
      6.873  0.7192E+01  0.1646E+02
      6.928  0.7961E+01  0.1691E+02
      6.984  0.9605E+01  0.1744E+02
      7.040  0.1078E+02  0.1804E+02
      7.095  0.8539E+01  0.1852E+02
      7.151  0.7610E+01  0.1894E+02
      7.207  0.9856E+01  0.1949E+02
      7.262  0.1133E+02  0.2012E+02
      7.318  0.1218E+02  0.2080E+02
      7.374  0.1239E+02  0.2149E+02
      7.429  0.1112E+02  0.2211E+02
      7.485  0.1017E+02  0.2267E+02
      7.541  0.8780E+01  0.2316E+02
      7.596  0.7248E+01  0.2357E+02
      7.652  0.6699E+01  0.2394E+02
      7.708  0.5971E+01  0.2427E+02
      7.763  0.5547E+01  0.2458E+02
      7.819  0.7025E+01  0.2497E+02
      7.875  0.9138E+01  0.2548E+02
      7.930  0.8943E+01  0.2598E+02
      7.986  0.6620E+01  0.2635E+02
      8.042  0.4384E+01  0.2659E+02
      8.097  0.4028E+01  0.2681E+02
      8.153  0.4463E+01  0.2706E+02
      8.209  0.4775E+01  0.2733E+02
      8.264  0.6285E+01  0.2768E+02
      8.320  0.8757E+01  0.2817E+02
      8.376  0.1104E+02  0.2878E+02
      8.431  0.1066E+02  0.2937E+02
      8.487  0.9594E+01  0.2991E+02
      8.543  0.9342E+01  0.3043E+02
      8.598  0.7348E+01  0.3084E+02
      8.654  0.5104E+01  0.3112E+02
      8.710  0.4799E+01  0.3139E+02
      8.765  0.5031E+01  0.3167E+02
      8.821  0.5944E+01  0.3200E+02
      8.877  0.8253E+01  0.3246E+02
      8.932  0.1017E+02  0.3302E+02
      8.988  0.9059E+01  0.3353E+02
      9.044  0.6304E+01  0.3388E+02
      9.099  0.5150E+01  0.3417E+02
      9.155  0.3910E+01  0.3438E+02
      9.211  0.2881E+01  0.3454E+02
      9.266  0.5541E+01  0.3485E+02
      9.322  0.9221E+01  0.3537E+02
      9.378  0.9961E+01  0.3592E+02
      9.433  0.8364E+01  0.3639E+02
      9.489  0.6453E+01  0.3675E+02
      9.545  0.5745E+01  0.3707E+02
      9.600  0.5965E+01  0.3740E+02
      9.656  0.7336E+01  0.3781E+02
      9.712  0.1151E+02  0.3845E+02
      9.767  0.1489E+02  0.3928E+02
      9.823  0.1307E+02  0.4000E+02
      9.879  0.8771E+01  0.4049E+02
      9.934  0.5204E+01  0.4078E+02
      9.990  0.4152E+01  0.4101E+02
     10.046  0.6334E+01  0.4136E+02
     10.101  0.7016E+01  0.4176E+02
     10.157  0.3844E+01  0.4197E+02
     10.213  0.1383E+01  0.4205E+02
     10.268  0.1175E+01  0.4211E+02
     10.324  0.1002E+01  0.4217E+02
     10.380  0.3910E+00  0.4219E+02
     10.435  0.3098E+00  0.4221E+02
     10.491  0.6819E+00  0.4224E+02
     10.547  0.5801E+00  0.4228E+02
     10.602  0.1400E+00  0.4228E+02
     10.658 -0.5023E-01  0.4228E+02
     10.714 -0.5978E-01  0.4228E+02
     10.769  0.6959E-01  0.4228E+02
     10.825  0.4716E+00  0.4231E+02
     10.881  0.6519E+00  0.4234E+02
     10.936  0.3180E+00  0.4236E+02
     10.992  0.8313E+00  0.4241E+02
     11.048  0.2687E+01  0.4256E+02
     11.103  0.3358E+01  0.4275E+02
     11.159  0.1918E+01  0.4285E+02
     11.215  0.8594E+00  0.4290E+02
     11.270  0.1112E+01  0.4296E+02
     11.326  0.1569E+01  0.4305E+02
     11.382  0.1150E+01  0.4311E+02
     11.437  0.4857E+00  0.4314E+02
     11.493  0.5836E+00  0.4317E+02
     11.549  0.6424E+00  0.4321E+02
     11.604  0.2181E+00  0.4322E+02
     11.660 -0.1121E+00  0.4321E+02
     11.716 -0.7214E-01  0.4321E+02
     11.771  0.7880E+00  0.4325E+02
     11.827  0.2140E+01  0.4337E+02
     11.883  0.2236E+01  0.4350E+02
     11.938  0.1201E+01  0.4356E+02
     11.994  0.5495E+00  0.4360E+02
     12.050  0.9087E+00  0.4365E+02
     12.105  0.1623E+01  0.4374E+02
     12.161  0.1860E+01  0.4384E+02
     12.217  0.1609E+01  0.4393E+02
     12.272  0.7539E+00  0.4397E+02
     12.328 -0.6882E-02  0.4397E+02
     12.384 -0.1151E+00  0.4396E+02
     12.439  0.4625E+00  0.4399E+02
     12.495  0.1346E+01  0.4406E+02
     12.551  0.1215E+01  0.4413E+02
     12.606  0.4381E+00  0.4416E+02
     12.662  0.9383E+00  0.4421E+02
     12.718  0.2115E+01  0.4433E+02
     12.773  0.1709E+01  0.4442E+02
     12.829  0.3531E+00  0.4444E+02
     12.885 -0.5312E-01  0.4444E+02
     12.940  0.6873E+00  0.4448E+02
     12.996  0.1467E+01  0.4456E+02
     13.052  0.1254E+01  0.4463E+02
     13.107  0.8187E+00  0.4467E+02
     13.163  0.5554E+00  0.4470E+02
     13.218  0.3241E+00  0.4472E+02
     13.274  0.7120E+00  0.4476E+02
     13.330  0.1289E+01  0.4483E+02
     13.385  0.1480E+01  0.4492E+02
     13.441  0.1896E+01  0.4502E+02
     13.497  0.1951E+01  0.4513E+02
     13.552  0.8343E+00  0.4518E+02
     13.608  0.2868E+00  0.4519E+02
     13.664  0.1869E+01  0.4530E+02
     13.719  0.3562E+01  0.4550E+02
     13.775  0.2576E+01  0.4564E+02
     13.831  0.5695E+00  0.4567E+02
     13.886 -0.1508E+00  0.4566E+02
     13.942 -0.9133E-01  0.4566E+02
     13.998 -0.1738E-01  0.4566E+02
     14.053 -0.1666E-01  0.4566E+02
     14.109 -0.6409E-01  0.4565E+02
     14.165 -0.1114E-01  0.4565E+02
     14.220  0.5909E+00  0.4568E+02
     14.276  0.1408E+01  0.4576E+02
     14.332  0.1148E+01  0.4583E+02
     14.387  0.4772E+00  0.4585E+02
     14.443  0.9311E+00  0.4590E+02
     14.499  0.1438E+01  0.4598E+02
     14.554  0.6990E+00  0.4602E+02
     14.610  0.6079E-01  0.4603E+02
     14.666  0.1144E+01  0.4609E+02
     14.721  0.2851E+01  0.4625E+02
     14.777  0.2351E+01  0.4638E+02
     14.833  0.6321E+00  0.4642E+02
     14.888  0.5482E+00  0.4645E+02
     14.944  0.1384E+01  0.4652E+02
     15.000  0.1106E+01  0.4658E+02
     15.055  0.2260E+00  0.4660E+02
     15.111  0.1218E+00  0.4660E+02
     15.167  0.5900E+00  0.4664E+02
     15.222  0.6511E+00  0.4667E+02
     15.278  0.3653E+00  0.4669E+02
     15.334  0.5220E+00  0.4672E+02
     15.389  0.6545E+00  0.4676E+02
     15.445  0.3278E+00  0.4678E+02
     15.501  0.5252E+00  0.4681E+02
     15.556  0.1315E+01  0.4688E+02
     15.612  0.1557E+01  0.4697E+02
     15.668  0.1562E+01  0.4705E+02
     15.723  0.1381E+01  0.4713E+02
     15.779  0.5277E+00  0.4716E+02
     15.835 -0.8988E-01  0.4715E+02
     15.890  0.1414E+00  0.4716E+02
     15.946  0.1063E+01  0.4722E+02
     16.002  0.1498E+01  0.4730E+02
     16.057  0.7528E+00  0.4735E+02
     16.113  0.3316E-01  0.4735E+02
     16.169 -0.1038E+00  0.4734E+02
     16.224 -0.2673E-01  0.4734E+02
     16.280  0.2939E+00  0.4736E+02
     16.336  0.7188E+00  0.4740E+02
     16.391  0.6106E+00  0.4743E+02
     16.447  0.1373E+00  0.4744E+02
     16.503 -0.1084E+00  0.4743E+02
     16.558  0.3285E-01  0.4744E+02
     16.614  0.7600E+00  0.4748E+02
     16.670  0.1498E+01  0.4756E+02
     16.725  0.1585E+01  0.4765E+02
     16.781  0.1592E+01  0.4774E+02
     16.837  0.1165E+01  0.4780E+02
     16.892  0.3034E+00  0.4782E+02
     16.948 -0.6802E-01  0.4782E+02
     17.004 -0.4680E-01  0.4781E+02
     17.059 -0.8215E-02  0.4781E+02
     17.115 -0.6393E-03  0.4781E+02
     17.171 -0.6026E-04  0.4781E+02
     17.226 -0.8709E-03  0.4781E+02
     17.282 -0.1032E-01  0.4781E+02
     17.338 -0.5277E-01  0.4781E+02
     17.393 -0.5051E-01  0.4781E+02
     17.449  0.4206E+00  0.4783E+02
     17.505  0.1322E+01  0.4790E+02
     17.560  0.1369E+01  0.4798E+02
     17.616  0.4804E+00  0.4801E+02
     17.672 -0.3890E-01  0.4800E+02
     17.727 -0.5689E-01  0.4800E+02
     17.783 -0.1194E-01  0.4800E+02
     17.839 -0.1063E-02  0.4800E+02
     17.894 -0.4596E-04  0.4800E+02
     17.950 -0.1012E-05  0.4800E+02
     18.006 -0.1157E-07  0.4800E+02
     18.061 -0.6958E-10  0.4800E+02
     18.117 -0.2206E-12  0.4800E+02
     18.173 -0.7479E-15  0.4800E+02
     18.228  0.0000E+00  0.4800E+02
     18.284  0.0000E+00  0.4800E+02
     18.340  0.0000E+00  0.4800E+02
     18.395  0.0000E+00  0.4800E+02
     18.451  0.0000E+00  0.4800E+02
     18.507  0.0000E+00  0.4800E+02
