    4    4    1    1
  0.1471597E+02  0.3890000E-09  0.3890000E-09  0.3890000E-09  0.5000000E-15
  1.000000000000000E-004
  CAR 
 unknown system                          
     40     20     24
 
  0.6250000E-01  0.6250000E-01  0.6250000E-01  0.1562500E-01
    1        2.807150   1.000000
    2        4.498516   1.000000
    3        4.498516   1.000000
    4        4.498516   1.000000
    5        4.781406   1.000000
    6        4.781406   1.000000
    7        4.781406   1.000000
    8        6.931795   1.000000
    9        7.031922   1.000000
   10        7.031922   1.000000
   11        8.576876   1.000000
   12        8.576876   1.000000
   13        9.679680   1.030637
   14        9.679680   1.030637
   15        9.679680   1.030637
   16        9.769211   0.888403
   17        9.769211   0.888403
   18        9.769211   0.888403
   19       10.066298  -0.001531
   20       10.066298  -0.001531
   21       10.066298  -0.001531
   22       13.333711   0.000000
   23       13.333711   0.000000
   24       13.333711   0.000000
 
  0.1875000E+00  0.6250000E-01  0.6250000E-01  0.4687500E-01
    1        3.174220   1.000000
    2        4.670672   1.000000
    3        4.719825   1.000000
    4        4.719825   1.000000
    5        4.923293   1.000000
    6        5.009555   1.000000
    7        5.009555   1.000000
    8        6.752727   1.000000
    9        7.183098   1.000000
   10        7.188881   1.000000
   11        8.382017   1.000000
   12        8.670567   1.000000
   13        8.869032   1.000000
   14        8.869032   1.000000
   15        9.381421   1.000000
   16        9.426434   1.000000
   17        9.426434   1.000000
   18        9.458291   1.000002
   19        9.874580   0.119493
   20       10.044653  -0.003687
   21       10.044653  -0.003687
   22       11.920042  -0.000000
   23       14.466273   0.000000
   24       14.466273   0.000000
 
  0.3125000E+00  0.6250000E-01  0.6250000E-01  0.4687500E-01
    1        3.847990   1.000000
    2        4.934477   1.000000
    3        5.104180   1.000000
    4        5.104180   1.000000
    5        5.194497   1.000000
    6        5.444314   1.000000
    7        5.444314   1.000000
    8        6.410191   1.000000
    9        7.466571   1.000000
   10        7.495227   1.000000
   11        7.810805   1.000000
   12        7.810805   1.000000
   13        8.124003   1.000000
   14        8.697855   1.000000
   15        8.846892   1.000000
   16        8.972892   1.000000
   17        8.972892   1.000000
   18        9.011729   1.000000
   19        9.621894   1.007801
   20       10.036666  -0.004953
   21       10.036666  -0.004953
   22       10.290875  -0.000000
   23       15.964485   0.000000
   24       15.964485   0.000000
 
  0.4375000E+00  0.6250000E-01  0.6250000E-01  0.4687500E-01
    1        4.630008   1.000000
    2        5.051254   1.000000
    3        5.473816   1.000000
    4        5.473816   1.000000
    5        5.564564   1.000000
    6        5.989409   1.000000
    7        6.046077   1.000000
    8        6.046077   1.000000
    9        6.849723   1.000000
   10        6.849723   1.000000
   11        7.594368   1.000000
   12        7.928056   1.000000
   13        7.932160   1.000000
   14        8.310082   1.000000
   15        8.461909   1.000000
   16        8.567889   1.000000
   17        8.567889   1.000000
   18        9.064963   1.000000
   19        9.083869   1.000000
   20        9.352236   1.000000
   21       10.034323  -0.005385
   22       10.034323  -0.005385
   23       17.506684   0.000000
   24       17.506684   0.000000
 
  0.1875000E+00  0.1875000E+00  0.6250000E-01  0.4687500E-01
    1        3.514162   1.000000
    2        4.855761   1.000000
    3        4.891201   1.000000
    4        4.891201   1.000000
    5        5.146392   1.000000
    6        5.146392   1.000000
    7        5.280235   1.000000
    8        6.692218   1.000000
    9        7.244690   1.000000
   10        7.270134   1.000000
   11        8.351329   1.000000
   12        8.436839   1.000000
   13        8.436839   1.000000
   14        8.440739   1.000000
   15        8.693265   1.000000
   16        9.144511   1.000000
   17        9.297183   1.000000
   18        9.297183   1.000000
   19        9.843962   0.324118
   20        9.843962   0.324118
   21        9.884863   0.070309
   22       12.976150   0.000000
   23       12.976150   0.000000
   24       15.350621   0.000000
 
  0.3125000E+00  0.1875000E+00  0.6250000E-01  0.9375000E-01
    1        4.134341   1.000000
    2        5.147476   1.000000
    3        5.162518   1.000000
    4        5.280589   1.000000
    5        5.414307   1.000000
    6        5.561767   1.000000
    7        5.703609   1.000000
    8        6.452933   1.000000
    9        7.367476   1.000000
   10        7.458734   1.000000
   11        7.492970   1.000000
   12        7.661140   1.000000
   13        7.829746   1.000000
   14        8.225104   1.000000
   15        8.783183   1.000000
   16        8.882666   1.000000
   17        8.950554   1.000000
   18        8.956280   1.000000
   19        9.551862   1.000435
   20        9.764395   0.912035
   21        9.773145   0.867376
   22       11.315837  -0.000000
   23       14.267017   0.000000
   24       16.647149   0.000000
 
  0.4375000E+00  0.1875000E+00  0.6250000E-01  0.9375000E-01
    1        4.857866   1.000000
    2        5.263663   1.000000
    3        5.586418   1.000000
    4        5.685856   1.000000
    5        5.755593   1.000000
    6        6.055300   1.000000
    7        6.086004   1.000000
    8        6.110913   1.000000
    9        6.688558   1.000000
   10        6.869257   1.000000
   11        7.259999   1.000000
   12        7.311151   1.000000
   13        7.873399   1.000000
   14        8.355305   1.000000
   15        8.476059   1.000000
   16        8.505412   1.000000
   17        8.553234   1.000000
   18        9.094610   1.000000
   19        9.379614   1.000000
   20        9.730384   1.015130
   21        9.730443   1.015037
   22       10.072365  -0.001173
   23       15.549786   0.000000
   24       16.773102   0.000000
 
  0.3125000E+00  0.3125000E+00  0.6250000E-01  0.4687500E-01
    1        4.640471   1.000000
    2        5.353359   1.000000
    3        5.511290   1.000000
    4        5.511290   1.000000
    5        5.830747   1.000000
    6        5.830747   1.000000
    7        6.073267   1.000000
    8        6.440782   1.000000
    9        7.006107   1.000000
   10        7.006107   1.000000
   11        7.299465   1.000000
   12        7.314789   1.000000
   13        7.587918   1.000000
   14        8.137515   1.000000
   15        8.481566   1.000000
   16        8.686647   1.000000
   17        8.686647   1.000000
   18        9.359934   1.000000
   19        9.359934   1.000000
   20        9.411483   1.000000
   21        9.485273   1.000010
   22       12.492250  -0.000000
   23       12.492250  -0.000000
   24       16.326789   0.000000
 
  0.4375000E+00  0.3125000E+00  0.6250000E-01  0.9375000E-01
    1        5.214038   1.000000
    2        5.571540   1.000000
    3        5.693414   1.000000
    4        5.944775   1.000000
    5        6.120708   1.000000
    6        6.149592   1.000000
    7        6.270765   1.000000
    8        6.317632   1.000000
    9        6.558866   1.000000
   10        6.775653   1.000000
   11        6.872779   1.000000
   12        7.059078   1.000000
   13        7.826156   1.000000
   14        8.236168   1.000000
   15        8.251580   1.000000
   16        8.346151   1.000000
   17        8.370456   1.000000
   18        8.862295   1.000000
   19        9.269802   1.000000
   20        9.309799   1.000000
   21       10.108373  -0.000203
   22       11.088775  -0.000000
   23       13.685307   0.000000
   24       14.929853   0.000000
 
  0.4375000E+00  0.4375000E+00  0.6250000E-01  0.4687500E-01
    1        5.543554   1.000000
    2        5.777408   1.000000
    3        5.790135   1.000000
    4        5.790135   1.000000
    5        6.432707   1.000000
    6        6.458370   1.000000
    7        6.458370   1.000000
    8        6.473293   1.000000
    9        6.661304   1.000000
   10        6.661304   1.000000
   11        6.870695   1.000000
   12        6.974062   1.000000
   13        7.764977   1.000000
   14        7.985582   1.000000
   15        8.015924   1.000000
   16        8.015924   1.000000
   17        8.389996   1.000000
   18        8.774928   1.000000
   19        8.774928   1.000000
   20        8.946072   1.000000
   21       11.031626  -0.000000
   22       12.184316  -0.000000
   23       12.184316  -0.000000
   24       13.422753   0.000000
 
  0.1875000E+00  0.1875000E+00  0.1875000E+00  0.1562500E-01
    1        3.800668   1.000000
    2        4.986094   1.000000
    3        4.986094   1.000000
    4        4.986094   1.000000
    5        5.437617   1.000000
    6        5.437617   1.000000
    7        5.437617   1.000000
    8        6.738348   1.000000
    9        7.269955   1.000000
   10        7.269955   1.000000
   11        8.102190   1.000000
   12        8.102190   1.000000
   13        8.102190   1.000000
   14        8.558754   1.000000
   15        8.558754   1.000000
   16        8.795272   1.000000
   17        8.795272   1.000000
   18        8.795272   1.000000
   19        9.939909  -0.035008
   20        9.939909  -0.035008
   21        9.939909  -0.035008
   22       13.685650   0.000000
   23       13.685650   0.000000
   24       13.685650   0.000000
 
  0.3125000E+00  0.1875000E+00  0.1875000E+00  0.4687500E-01
    1        4.305798   1.000000
    2        5.150430   1.000000
    3        5.247543   1.000000
    4        5.247543   1.000000
    5        5.759927   1.000000
    6        5.843066   1.000000
    7        5.843066   1.000000
    8        6.662433   1.000000
    9        7.315503   1.000000
   10        7.373240   1.000000
   11        7.440391   1.000000
   12        7.440391   1.000000
   13        7.579845   1.000000
   14        8.347672   1.000000
   15        8.512290   1.000000
   16        8.512290   1.000000
   17        8.524159   1.000000
   18        8.895919   1.000000
   19        9.824075   0.487957
   20        9.824075   0.487957
   21        9.859676   0.209210
   22       11.821480  -0.000000
   23       14.712208   0.000000
   24       14.712208   0.000000
 
  0.4375000E+00  0.1875000E+00  0.1875000E+00  0.4687500E-01
    1        4.861404   1.000000
    2        5.178296   1.000000
    3        5.645576   1.000000
    4        5.645576   1.000000
    5        6.010871   1.000000
    6        6.010871   1.000000
    7        6.169191   1.000000
    8        6.471343   1.000000
    9        7.001732   1.000000
   10        7.001732   1.000000
   11        7.153457   1.000000
   12        7.161783   1.000000
   13        7.591000   1.000000
   14        7.925559   1.000000
   15        8.267778   1.000000
   16        8.267778   1.000000
   17        9.073676   1.000000
   18        9.276622   1.000000
   19        9.622009   1.007830
   20        9.707262   1.034607
   21        9.707262   1.034607
   22       10.226386  -0.000000
   23       15.677873   0.000000
   24       15.677873   0.000000
 
  0.3125000E+00  0.3125000E+00  0.1875000E+00  0.4687500E-01
    1        4.593135   1.000000
    2        5.286596   1.000000
    3        5.286596   1.000000
    4        5.320432   1.000000
    5        6.148998   1.000000
    6        6.168250   1.000000
    7        6.168250   1.000000
    8        6.927285   1.000000
    9        7.170126   1.000000
   10        7.170126   1.000000
   11        7.283271   1.000000
   12        7.323417   1.000000
   13        7.367805   1.000000
   14        8.105990   1.000000
   15        8.114396   1.000000
   16        8.114396   1.000000
   17        8.592339   1.000000
   18        9.251079   1.000000
   19        9.724871   1.022667
   20        9.763851   0.914556
   21        9.763851   0.914556
   22       12.711715   0.000000
   23       12.711715   0.000000
   24       15.170620   0.000000
 
  0.4375000E+00  0.3125000E+00  0.1875000E+00  0.9375000E-01
    1        4.912624   1.000000
    2        5.171971   1.000000
    3        5.459722   1.000000
    4        5.465421   1.000000
    5        6.235970   1.000000
    6        6.252251   1.000000
    7        6.637296   1.000000
    8        6.982806   1.000000
    9        7.012713   1.000000
   10        7.094332   1.000000
   11        7.186875   1.000000
   12        7.342701   1.000000
   13        7.446233   1.000000
   14        7.728121   1.000000
   15        7.888882   1.000000
   16        7.940114   1.000000
   17        8.942849   1.000000
   18        9.475216   1.000005
   19        9.572828   1.001167
   20        9.583388   1.001846
   21        9.928855  -0.030425
   22       11.049191  -0.000000
   23       13.721121   0.000000
   24       14.710660   0.000000
 
  0.4375000E+00  0.4375000E+00  0.1875000E+00  0.4687500E-01
    1        5.032586   1.000000
    2        5.223584   1.000000
    3        5.223584   1.000000
    4        5.314074   1.000000
    5        6.471800   1.000000
    6        6.614800   1.000000
    7        6.614800   1.000000
    8        6.882440   1.000000
    9        7.367377   1.000000
   10        7.367377   1.000000
   11        7.369208   1.000000
   12        7.535510   1.000000
   13        7.592464   1.000000
   14        7.602824   1.000000
   15        7.651764   1.000000
   16        7.651764   1.000000
   17        8.902129   1.000000
   18        9.264260   1.000000
   19        9.264260   1.000000
   20        9.336021   1.000000
   21       10.848731  -0.000000
   22       12.075420  -0.000000
   23       12.075420  -0.000000
   24       13.284799   0.000000
 
  0.3125000E+00  0.3125000E+00  0.3125000E+00  0.1562500E-01
    1        4.601937   1.000000
    2        5.155015   1.000000
    3        5.155015   1.000000
    4        5.155015   1.000000
    5        6.401416   1.000000
    6        6.401416   1.000000
    7        6.401416   1.000000
    8        7.179354   1.000000
    9        7.179354   1.000000
   10        7.499531   1.000000
   11        7.499531   1.000000
   12        7.499531   1.000000
   13        7.694861   1.000000
   14        7.694861   1.000000
   15        7.694861   1.000000
   16        7.722710   1.000000
   17        9.084224   1.000000
   18        9.084224   1.000000
   19        9.862389   0.191341
   20        9.862389   0.191341
   21        9.862389   0.191341
   22       13.110454   0.000000
   23       13.110454   0.000000
   24       13.110454   0.000000
 
  0.4375000E+00  0.3125000E+00  0.3125000E+00  0.4687500E-01
    1        4.714159   1.000000
    2        4.917905   1.000000
    3        5.101186   1.000000
    4        5.101186   1.000000
    5        6.467016   1.000000
    6        6.467016   1.000000
    7        6.745035   1.000000
    8        7.023045   1.000000
    9        7.195773   1.000000
   10        7.374487   1.000000
   11        7.495314   1.000000
   12        7.495314   1.000000
   13        7.729891   1.000000
   14        7.859148   1.000000
   15        7.859148   1.000000
   16        7.988583   1.000000
   17        9.511094   1.000048
   18        9.695905   1.035193
   19        9.745663   0.981936
   20        9.745663   0.981936
   21        9.789950   0.761017
   22       11.211497  -0.000000
   23       13.469986   0.000000
   24       13.469986   0.000000
 
  0.4375000E+00  0.4375000E+00  0.3125000E+00  0.4687500E-01
    1        4.683614   1.000000
    2        4.820641   1.000000
    3        4.820641   1.000000
    4        4.882541   1.000000
    5        6.665008   1.000000
    6        6.753524   1.000000
    7        6.753524   1.000000
    8        6.969026   1.000000
    9        7.086863   1.000000
   10        7.210382   1.000000
   11        7.210382   1.000000
   12        7.246600   1.000000
   13        8.362365   1.000000
   14        8.362365   1.000000
   15        8.372580   1.000000
   16        8.663271   1.000000
   17        9.379865   1.000000
   18        9.672680   1.027664
   19        9.672680   1.027664
   20        9.674366   1.028409
   21       10.479251  -0.000000
   22       11.819711  -0.000000
   23       11.819711  -0.000000
   24       12.690786   0.000000
 
  0.4375000E+00  0.4375000E+00  0.4375000E+00  0.1562500E-01
    1        4.542636   1.000000
    2        4.613279   1.000000
    3        4.613279   1.000000
    4        4.613279   1.000000
    5        6.857973   1.000000
    6        6.857973   1.000000
    7        6.857973   1.000000
    8        6.967112   1.000000
    9        6.967112   1.000000
   10        7.023030   1.000000
   11        7.023030   1.000000
   12        7.023030   1.000000
   13        9.138884   1.000000
   14        9.138884   1.000000
   15        9.138884   1.000000
   16        9.709045   1.034095
   17        9.709045   1.034095
   18        9.814904   0.565350
   19        9.814904   0.565350
   20        9.814904   0.565350
   21       10.209558  -0.000000
   22       11.495706  -0.000000
   23       11.495706  -0.000000
   24       11.495706  -0.000000
