       N       E                     dE             d eps       ncg     rms          rms(c)
DAV:   1     0.145481998161E+03    0.14548E+03   -0.18717E+04   960   0.132E+03
DAV:   2    -0.210609258253E+02   -0.16654E+03   -0.16622E+03  1440   0.246E+02
DAV:   3    -0.219021451940E+02   -0.84122E+00   -0.83745E+00   960   0.269E+01
DAV:   4    -0.219063797555E+02   -0.42346E-02   -0.42341E-02  1128   0.143E+00
DAV:   5    -0.219064147435E+02   -0.34988E-04   -0.34987E-04  1008   0.121E-01    0.156E+01
DAV:   6    -0.208624269350E+02    0.10440E+01   -0.51757E+00   960   0.154E+01    0.765E+00
DAV:   7    -0.208174851768E+02    0.44942E-01   -0.43611E-02   984   0.115E+00    0.376E+00
DAV:   8    -0.208045318005E+02    0.12953E-01   -0.38833E-03   960   0.397E-01    0.134E-01
DAV:   9    -0.208045324870E+02   -0.68651E-06   -0.28435E-05   552   0.391E-02
   1 F= -.20804532E+02 E0= -.20803614E+02  d E =-.275421E-02
