 vasp.5.4.1 05Feb16 (build Feb 08 2018 09:21:51) complex                        
  
 executed on             LinuxIFC date 2019.11.20  21:32:48
 running on   24 total cores
 distrk:  each k-point on   24 cores,    1 groups
 distr:  one band on NCORES_PER_BAND=   1 cores,   24 groups


--------------------------------------------------------------------------------------------------------


 INCAR:
 POTCAR:    PAW_PBE Pd 04Jan2005                  

 ----------------------------------------------------------------------------- 
|                                                                             |
|           W    W    AA    RRRRR   N    N  II  N    N   GGGG   !!!           |
|           W    W   A  A   R    R  NN   N  II  NN   N  G    G  !!!           |
|           W    W  A    A  R    R  N N  N  II  N N  N  G       !!!           |
|           W WW W  AAAAAA  RRRRR   N  N N  II  N  N N  G  GGG   !            |
|           WW  WW  A    A  R   R   N   NN  II  N   NN  G    G                |
|           W    W  A    A  R    R  N    N  II  N    N   GGGG   !!!           |
|                                                                             |
|      For optimal performance we recommend to set                            |
|        NCORE= 4 - approx SQRT( number of cores)                             |
|      NCORE specifies how many cores store one orbital (NPAR=cpu/NCORE).     |
|      This setting can  greatly improve the performance of VASP for DFT.     |
|      The default, NPAR=number of cores might be grossly inefficient         |
|      on modern multi-core architectures or massively parallel machines.     |
|      Do your own testing !!!!                                               |
|      Unfortunately you need to use the default for GW and RPA calculations. |
|      (for HF NCORE is supported but not extensively tested yet)             |
|                                                                             |
 ----------------------------------------------------------------------------- 

 POTCAR:    PAW_PBE Pd 04Jan2005                  
   VRHFIN =Pd : s1 d9                                                           
   LEXCH  = PE                                                                  
   EATOM  =   809.7530 eV,   59.5152 Ry                                         
                                                                                
   TITEL  = PAW_PBE Pd 04Jan2005                                                
   LULTRA =        F    use ultrasoft PP ?                                      
   IUNSCR =        1    unscreen: 0-lin 1-nonlin 2-no                           
   RPACOR =    2.000    partial core radius                                     
   POMASS =  106.420; ZVAL   =   10.000    mass and valenz                      
   RCORE  =    2.600    outmost cutoff radius                                   
   RWIGS  =    2.710; RWIGS  =    1.434    wigner-seitz radius (au A)           
   ENMAX  =  250.925; ENMIN  =  188.194 eV                                      
   ICORE  =        3    local potential                                         
   LCOR   =        T    correct aug charges                                     
   LPAW   =        T    paw PP                                                  
   EAUG   =  416.230                                                            
   DEXC   =    0.000                                                            
   RMAX   =    2.653    core radius for proj-oper                               
   RAUG   =    1.300    factor for augmentation sphere                          
   RDEP   =    2.734    radius for radial grids                                 
   RDEPT  =    2.103    core radius for aug-charge                              
                                                                                
   Atomic configuration                                                         
   12 entries                                                                   
     n  l   j            E        occ.                                          
     1  0  0.50    -24164.6631   2.0000                                         
     2  0  0.50     -3530.9218   2.0000                                         
     2  1  1.50     -3165.6822   6.0000                                         
     3  0  0.50      -639.4577   2.0000                                         
     3  1  1.50      -519.4532   6.0000                                         
     3  2  2.50      -328.9757  10.0000                                         
     4  0  0.50       -88.7014   2.0000                                         
     4  1  1.50       -54.4540   6.0000                                         
     4  2  2.50        -6.6878   9.0000                                         
     5  0  0.50        -4.3543   1.0000                                         
     5  1  0.50        -1.3606   0.0000                                         
     4  3  2.50        -1.3606   0.0000                                         
   Description                                                                  
     l       E           TYP  RCUT    TYP  RCUT                                 
     2     -6.6878251     23  2.400                                             
     2     -8.0484077     23  2.400                                             
     0     -4.3542939     23  2.400                                             
     0      4.3406793     23  2.400                                             
     1     -4.0817478     23  2.600                                             
     1     15.8380318     23  2.600                                             
     3     -4.0817478     23  2.400                                             
  local pseudopotential read in
  partial core-charges read in
  partial kinetic energy density read in
  atomic valenz-charges read in
  non local Contribution for L=           2  read in
    real space projection operators read in
  non local Contribution for L=           2  read in
    real space projection operators read in
  non local Contribution for L=           0  read in
    real space projection operators read in
  non local Contribution for L=           0  read in
    real space projection operators read in
  non local Contribution for L=           1  read in
    real space projection operators read in
  non local Contribution for L=           1  read in
    real space projection operators read in
    PAW grid and wavefunctions read in
 
   number of l-projection  operators is LMAX  =           6
   number of lm-projection operators is LMMAX =          18
 
  PAW_PBE Pd 04Jan2005                  :
 energy of atom  1       EATOM= -809.7530
 kinetic energy error for atom=    0.0091 (will be added to EATOM!!)
 
 
 POSCAR: Pd                                      
  positions in cartesian coordinates
  No initial velocities read in
 exchange correlation table for  LEXCH =        8
   RHO(1)=    0.500       N(1)  =     2000
   RHO(2)=  100.500       N(2)  =     4000
 


--------------------------------------------------------------------------------------------------------


 ion  position               nearest neighbor table
   1  0.000  0.000  0.000-   2 2.75   3 2.75   4 2.75   2 2.75   3 2.75   2 2.75   4 2.75   2 2.75
                             3 2.75   4 2.75   3 2.75   4 2.75
   2  0.000  0.500  0.500-   1 2.75   3 2.75   4 2.75   1 2.75   4 2.75   1 2.75   3 2.75   1 2.75
                             3 2.75   4 2.75   4 2.75   3 2.75
   3  0.500  0.000  0.500-   1 2.75   2 2.75   4 2.75   1 2.75   4 2.75   2 2.75   4 2.75   4 2.75
                             1 2.75   2 2.75   1 2.75   2 2.75
   4  0.500  0.500  0.000-   1 2.75   2 2.75   3 2.75   2 2.75   3 2.75   1 2.75   3 2.75   3 2.75
                             1 2.75   2 2.75   2 2.75   1 2.75
 
  LATTYP: Found a simple cubic cell.
 ALAT       =     3.8900000000
  
  Lattice vectors:
  
 A1 = (   3.8900000000,   0.0000000000,   0.0000000000)
 A2 = (   0.0000000000,   3.8900000000,   0.0000000000)
 A3 = (   0.0000000000,   0.0000000000,   3.8900000000)


Analysis of symmetry for initial positions (statically):
=====================================================================
 Subroutine PRICEL returns following result:
 
  LATTYP: Found a face centered cubic cell.
 ALAT       =     3.8900000000
  
  Lattice vectors:
  
 A1 = (   1.9450000000,   1.9450000000,   0.0000000000)
 A2 = (   1.9450000000,   0.0000000000,  -1.9450000000)
 A3 = (   0.0000000000,   1.9450000000,  -1.9450000000)
 
   4 primitive cells build up your supercell.
 

 Routine SETGRP: Setting up the symmetry group for a 
 simple cubic supercell.


 Subroutine GETGRP returns: Found 48 space group operations
 (whereof 48 operations were pure point group operations)
 out of a pool of 48 trial point group operations.


The static configuration has the point symmetry O_h .


Analysis of symmetry for dynamics (positions and initial velocities):
=====================================================================
 Subroutine PRICEL returns following result:
 
  LATTYP: Found a face centered cubic cell.
 ALAT       =     3.8900000000
  
  Lattice vectors:
  
 A1 = (   1.9450000000,   1.9450000000,   0.0000000000)
 A2 = (   1.9450000000,   0.0000000000,  -1.9450000000)
 A3 = (   0.0000000000,   1.9450000000,  -1.9450000000)
 
   4 primitive cells build up your supercell.
 

 Routine SETGRP: Setting up the symmetry group for a 
 simple cubic supercell.


 Subroutine GETGRP returns: Found 48 space group operations
 (whereof 48 operations were pure point group operations)
 out of a pool of 48 trial point group operations.


The dynamic configuration has the point symmetry O_h .


 Subroutine INISYM returns: Found 48 space group operations
 (whereof 48 operations are pure point group operations),
 and found     4 'primitive' translations

 
 
 KPOINTS: KPOINTS created by Atomic Simulation Env

Automatic generation of k-mesh.
Space group operators:
 irot       det(A)        alpha          n_x          n_y          n_z        tau_x        tau_y        tau_z
    1     1.000000     0.000000     1.000000     0.000000     0.000000     0.000000     0.000000     0.000000
    2    -1.000000     0.000000     1.000000     0.000000     0.000000     0.000000     0.000000     0.000000
    3     1.000000   120.000000    -0.577350    -0.577350    -0.577350     0.000000     0.000000     0.000000
    4    -1.000000   120.000000    -0.577350    -0.577350    -0.577350     0.000000     0.000000     0.000000
    5     1.000000   120.000000     0.577350     0.577350     0.577350     0.000000     0.000000     0.000000
    6    -1.000000   120.000000     0.577350     0.577350     0.577350     0.000000     0.000000     0.000000
    7     1.000000    90.000000     0.000000     0.000000    -1.000000     0.000000     0.000000     0.000000
    8    -1.000000    90.000000     0.000000     0.000000    -1.000000     0.000000     0.000000     0.000000
    9     1.000000   180.000000     0.000000     0.707107     0.707107     0.000000     0.000000     0.000000
   10    -1.000000   180.000000     0.000000     0.707107     0.707107     0.000000     0.000000     0.000000
   11     1.000000    90.000000     0.000000     1.000000     0.000000     0.000000     0.000000     0.000000
   12    -1.000000    90.000000     0.000000     1.000000     0.000000     0.000000     0.000000     0.000000
   13     1.000000   180.000000     0.000000     0.000000     1.000000     0.000000     0.000000     0.000000
   14    -1.000000   180.000000     0.000000     0.000000     1.000000     0.000000     0.000000     0.000000
   15     1.000000   120.000000    -0.577350     0.577350     0.577350     0.000000     0.000000     0.000000
   16    -1.000000   120.000000    -0.577350     0.577350     0.577350     0.000000     0.000000     0.000000
   17     1.000000   120.000000    -0.577350     0.577350    -0.577350     0.000000     0.000000     0.000000
   18    -1.000000   120.000000    -0.577350     0.577350    -0.577350     0.000000     0.000000     0.000000
   19     1.000000    90.000000     0.000000     0.000000     1.000000     0.000000     0.000000     0.000000
   20    -1.000000    90.000000     0.000000     0.000000     1.000000     0.000000     0.000000     0.000000
   21     1.000000    90.000000    -1.000000     0.000000     0.000000     0.000000     0.000000     0.000000
   22    -1.000000    90.000000    -1.000000     0.000000     0.000000     0.000000     0.000000     0.000000
   23     1.000000   180.000000     0.707107     0.000000     0.707107     0.000000     0.000000     0.000000
   24    -1.000000   180.000000     0.707107     0.000000     0.707107     0.000000     0.000000     0.000000
   25     1.000000   120.000000     0.577350    -0.577350     0.577350     0.000000     0.000000     0.000000
   26    -1.000000   120.000000     0.577350    -0.577350     0.577350     0.000000     0.000000     0.000000
   27     1.000000   120.000000    -0.577350    -0.577350     0.577350     0.000000     0.000000     0.000000
   28    -1.000000   120.000000    -0.577350    -0.577350     0.577350     0.000000     0.000000     0.000000
   29     1.000000   180.000000     1.000000     0.000000     0.000000     0.000000     0.000000     0.000000
   30    -1.000000   180.000000     1.000000     0.000000     0.000000     0.000000     0.000000     0.000000
   31     1.000000    90.000000     0.000000    -1.000000     0.000000     0.000000     0.000000     0.000000
   32    -1.000000    90.000000     0.000000    -1.000000     0.000000     0.000000     0.000000     0.000000
   33     1.000000   180.000000     0.707107     0.707107     0.000000     0.000000     0.000000     0.000000
   34    -1.000000   180.000000     0.707107     0.707107     0.000000     0.000000     0.000000     0.000000
   35     1.000000    90.000000     1.000000     0.000000     0.000000     0.000000     0.000000     0.000000
   36    -1.000000    90.000000     1.000000     0.000000     0.000000     0.000000     0.000000     0.000000
   37     1.000000   120.000000     0.577350    -0.577350    -0.577350     0.000000     0.000000     0.000000
   38    -1.000000   120.000000     0.577350    -0.577350    -0.577350     0.000000     0.000000     0.000000
   39     1.000000   180.000000     0.000000     1.000000     0.000000     0.000000     0.000000     0.000000
   40    -1.000000   180.000000     0.000000     1.000000     0.000000     0.000000     0.000000     0.000000
   41     1.000000   120.000000     0.577350     0.577350    -0.577350     0.000000     0.000000     0.000000
   42    -1.000000   120.000000     0.577350     0.577350    -0.577350     0.000000     0.000000     0.000000
   43     1.000000   180.000000     0.000000    -0.707107     0.707107     0.000000     0.000000     0.000000
   44    -1.000000   180.000000     0.000000    -0.707107     0.707107     0.000000     0.000000     0.000000
   45     1.000000   180.000000     0.707107    -0.707107     0.000000     0.000000     0.000000     0.000000
   46    -1.000000   180.000000     0.707107    -0.707107     0.000000     0.000000     0.000000     0.000000
   47     1.000000   180.000000     0.707107     0.000000    -0.707107     0.000000     0.000000     0.000000
   48    -1.000000   180.000000     0.707107     0.000000    -0.707107     0.000000     0.000000     0.000000
 
 Subroutine IBZKPT returns following result:
 ===========================================
 
 Found     20 irreducible k-points:
 
 Following reciprocal coordinates:
            Coordinates               Weight
  0.062500  0.062500  0.062500      8.000000
  0.187500  0.062500  0.062500     24.000000
  0.312500  0.062500  0.062500     24.000000
  0.437500  0.062500  0.062500     24.000000
  0.187500  0.187500  0.062500     24.000000
  0.312500  0.187500  0.062500     48.000000
  0.437500  0.187500  0.062500     48.000000
  0.312500  0.312500  0.062500     24.000000
  0.437500  0.312500  0.062500     48.000000
  0.437500  0.437500  0.062500     24.000000
  0.187500  0.187500  0.187500      8.000000
  0.312500  0.187500  0.187500     24.000000
  0.437500  0.187500  0.187500     24.000000
  0.312500  0.312500  0.187500     24.000000
  0.437500  0.312500  0.187500     48.000000
  0.437500  0.437500  0.187500     24.000000
  0.312500  0.312500  0.312500      8.000000
  0.437500  0.312500  0.312500     24.000000
  0.437500  0.437500  0.312500     24.000000
  0.437500  0.437500  0.437500      8.000000
 
 Following cartesian coordinates:
            Coordinates               Weight
  0.016067  0.016067  0.016067      8.000000
  0.048201  0.016067  0.016067     24.000000
  0.080334  0.016067  0.016067     24.000000
  0.112468  0.016067  0.016067     24.000000
  0.048201  0.048201  0.016067     24.000000
  0.080334  0.048201  0.016067     48.000000
  0.112468  0.048201  0.016067     48.000000
  0.080334  0.080334  0.016067     24.000000
  0.112468  0.080334  0.016067     48.000000
  0.112468  0.112468  0.016067     24.000000
  0.048201  0.048201  0.048201      8.000000
  0.080334  0.048201  0.048201     24.000000
  0.112468  0.048201  0.048201     24.000000
  0.080334  0.080334  0.048201     24.000000
  0.112468  0.080334  0.048201     48.000000
  0.112468  0.112468  0.048201     24.000000
  0.080334  0.080334  0.080334      8.000000
  0.112468  0.080334  0.080334     24.000000
  0.112468  0.112468  0.080334     24.000000
  0.112468  0.112468  0.112468      8.000000
 


--------------------------------------------------------------------------------------------------------




 Dimension of arrays:
   k-points           NKPTS =     20   k-points in BZ     NKDIM =     20   number of bands    NBANDS=     24
   number of dos      NEDOS =    301   number of ions     NIONS =      4
   non local maximal  LDIM  =      6   non local SUM 2l+1 LMDIM =     18
   total plane-waves  NPLWV =   8000
   max r-space proj   IRMAX =      1   max aug-charges    IRDMAX=   6791
   dimension x,y,z NGX =    20 NGY =   20 NGZ =   20
   dimension x,y,z NGXF=    40 NGYF=   40 NGZF=   40
   support grid    NGXF=    40 NGYF=   40 NGZF=   40
   ions per type =               4
 NGX,Y,Z   is equivalent  to a cutoff of   8.55,  8.55,  8.55 a.u.
 NGXF,Y,Z  is equivalent  to a cutoff of  17.09, 17.09, 17.09 a.u.


 I would recommend the setting:
   dimension x,y,z NGX =    19 NGY =   19 NGZ =   19
 SYSTEM =  unknown system                          
 POSCAR =  Pd                                      

 Startparameter for this run:
   NWRITE =      2    write-flag & timer
   PREC   = normal    normal or accurate (medium, high low for compatibility)
   ISTART =      0    job   : 0-new  1-cont  2-samecut
   ICHARG =      2    charge: 1-file 2-atom 10-const
   ISPIN  =      1    spin polarized calculation?
   LNONCOLLINEAR =      F non collinear calculations
   LSORBIT =      F    spin-orbit coupling
   INIWAV =      1    electr: 0-lowe 1-rand  2-diag
   LASPH  =      F    aspherical Exc in radial PAW
   METAGGA=      F    non-selfconsistent MetaGGA calc.

 Electronic Relaxation 1
   ENCUT  =  400.0 eV  29.40 Ry    5.42 a.u.   6.34  6.34  6.34*2*pi/ulx,y,z
   ENINI  =  400.0     initial cutoff
   ENAUG  =  416.2 eV  augmentation charge cutoff
   NELM   =     60;   NELMIN=  2; NELMDL= -5     # of ELM steps 
   EDIFF  = 0.1E-03   stopping-criterion for ELM
   LREAL  =      F    real-space projection
   NLSPLINE    = F    spline interpolate recip. space projectors
   LCOMPAT=      F    compatible to vasp.4.4
   GGA_COMPAT  = T    GGA compatible to vasp.4.4-vasp.4.6
   LMAXPAW     = -100 max onsite density
   LMAXMIX     =    2 max onsite mixed and CHGCAR
   VOSKOWN=      0    Vosko Wilk Nusair interpolation
   ROPT   =    0.00000
 Ionic relaxation
   EDIFFG = 0.1E-02   stopping-criterion for IOM
   NSW    =      0    number of steps for IOM
   NBLOCK =      1;   KBLOCK =      1    inner block; outer block 
   IBRION =     -1    ionic relax: 0-MD 1-quasi-New 2-CG
   NFREE  =      0    steps in history (QN), initial steepest desc. (CG)
   ISIF   =      2    stress and relaxation
   IWAVPR =     10    prediction:  0-non 1-charg 2-wave 3-comb
   ISYM   =      2    0-nonsym 1-usesym 2-fastsym
   LCORR  =      T    Harris-Foulkes like correction to forces

   POTIM  = 0.5000    time-step for ionic-motion
   TEIN   =    0.0    initial temperature
   TEBEG  =    0.0;   TEEND  =   0.0 temperature during run
   SMASS  =  -3.00    Nose mass-parameter (am)
   estimated Nose-frequenzy (Omega)   =  0.10E-29 period in steps =****** mass=  -0.346E-27a.u.
   SCALEE = 1.0000    scale energy and forces
   NPACO  =    256;   APACO  = 16.0  distance and # of slots for P.C.
   PSTRESS=    0.0 pullay stress

  Mass of Ions in am
   POMASS = 106.42
  Ionic Valenz
   ZVAL   =  10.00
  Atomic Wigner-Seitz radii
   RWIGS  =  -1.00
  virtual crystal weights 
   VCA    =   1.00
   NELECT =      40.0000    total number of electrons
   NUPDOWN=      -1.0000    fix difference up-down

 DOS related values:
   EMIN   =  10.00;   EMAX   =-10.00  energy-range for DOS
   EFERMI =   0.00
   ISMEAR =     1;   SIGMA  =   0.10  broadening in eV -4-tet -1-fermi 0-gaus

 Electronic relaxation 2 (details)
   IALGO  =     38    algorithm
   LDIAG  =      T    sub-space diagonalisation (order eigenvalues)
   LSUBROT=      F    optimize rotation matrix (better conditioning)
   TURBO    =      0    0=normal 1=particle mesh
   IRESTART =      0    0=no restart 2=restart with 2 vectors
   NREBOOT  =      0    no. of reboots
   NMIN     =      0    reboot dimension
   EREF     =   0.00    reference energy to select bands
   IMIX   =      4    mixing-type and parameters
     AMIX     =   0.40;   BMIX     =  1.00
     AMIX_MAG =   1.60;   BMIX_MAG =  1.00
     AMIN     =   0.10
     WC   =   100.;   INIMIX=   1;  MIXPRE=   1;  MAXMIX= -45

 Intra band minimization:
   WEIMIN = 0.0000     energy-eigenvalue tresh-hold
   EBREAK =  0.10E-05  absolut break condition
   DEPER  =   0.30     relativ break condition  

   TIME   =   0.40     timestep for ELM

  volume/ion in A,a.u.               =      14.72        99.31
  Fermi-wavevector in a.u.,A,eV,Ry     =   1.439280  2.719844 28.184827  2.071526
  Thomas-Fermi vector in A             =   2.558153
 
 Write flags
   LWAVE  =      F    write WAVECAR
   LCHARG =      F    write CHGCAR
   LVTOT  =      F    write LOCPOT, total local potential
   LVHAR  =      F    write LOCPOT, Hartree potential only
   LELF   =      F    write electronic localiz. function (ELF)
   LORBIT =      0    0 simple, 1 ext, 2 COOP (PROOUT)


 Dipole corrections
   LMONO  =      F    monopole corrections only (constant potential shift)
   LDIPOL =      F    correct potential (dipole corrections)
   IDIPOL =      0    1-x, 2-y, 3-z, 4-all directions 
   EPSILON=  1.0000000 bulk dielectric constant

 Exchange correlation treatment:
   GGA     =    --    GGA type
   LEXCH   =     8    internal setting for exchange type
   VOSKOWN=      0    Vosko Wilk Nusair interpolation
   LHFCALC =     F    Hartree Fock is set to
   LHFONE  =     F    Hartree Fock one center treatment
   AEXX    =    0.0000 exact exchange contribution

 Linear response parameters
   LEPSILON=     F    determine dielectric tensor
   LRPA    =     F    only Hartree local field effects (RPA)
   LNABLA  =     F    use nabla operator in PAW spheres
   LVEL    =     F    velocity operator in full k-point grid
   LINTERFAST=   F  fast interpolation
   KINTER  =     0    interpolate to denser k-point grid
   CSHIFT  =0.1000    complex shift for real part using Kramers Kronig
   OMEGAMAX=  -1.0    maximum frequency
   DEG_THRESHOLD= 0.2000000E-02 threshold for treating states as degnerate
   RTIME   =    0.100 relaxation time in fs

 Orbital magnetization related:
   ORBITALMAG=     F  switch on orbital magnetization
   LCHIMAG   =     F  perturbation theory with respect to B field
   DQ        =  0.001000  dq finite difference perturbation B field



--------------------------------------------------------------------------------------------------------


 Static calculation
 charge density and potential will be updated during run
 non-spin polarized calculation
 Variant of blocked Davidson
 Davidson routine will perform the subspace rotation
 perform sub-space diagonalisation
    after iterative eigenvector-optimisation
 modified Broyden-mixing scheme, WC =      100.0
 initial mixing is a Kerker type mixing with AMIX =  0.4000 and BMIX =      1.0000
 Hartree-type preconditioning will be used
 using additional bands            4
 reciprocal scheme for non local part
 use partial core corrections
 calculate Harris-corrections to forces 
   (improved forces if not selfconsistent)
 use gradient corrections 
 use of overlap-Matrix (Vanderbilt PP)
 Methfessel and Paxton  Order N= 1 SIGMA  =   0.10


--------------------------------------------------------------------------------------------------------


  energy-cutoff  :      400.00
  volume of cell :       58.86
      direct lattice vectors                 reciprocal lattice vectors
     3.890000000  0.000000000  0.000000000     0.257069409  0.000000000  0.000000000
     0.000000000  3.890000000  0.000000000     0.000000000  0.257069409  0.000000000
     0.000000000  0.000000000  3.890000000     0.000000000  0.000000000  0.257069409

  length of vectors
     3.890000000  3.890000000  3.890000000     0.257069409  0.257069409  0.257069409


 
 k-points in units of 2pi/SCALE and weight: KPOINTS created by Atomic Simulation Env
   0.01606684  0.01606684  0.01606684       0.016
   0.04820051  0.01606684  0.01606684       0.047
   0.08033419  0.01606684  0.01606684       0.047
   0.11246787  0.01606684  0.01606684       0.047
   0.04820051  0.04820051  0.01606684       0.047
   0.08033419  0.04820051  0.01606684       0.094
   0.11246787  0.04820051  0.01606684       0.094
   0.08033419  0.08033419  0.01606684       0.047
   0.11246787  0.08033419  0.01606684       0.094
   0.11246787  0.11246787  0.01606684       0.047
   0.04820051  0.04820051  0.04820051       0.016
   0.08033419  0.04820051  0.04820051       0.047
   0.11246787  0.04820051  0.04820051       0.047
   0.08033419  0.08033419  0.04820051       0.047
   0.11246787  0.08033419  0.04820051       0.094
   0.11246787  0.11246787  0.04820051       0.047
   0.08033419  0.08033419  0.08033419       0.016
   0.11246787  0.08033419  0.08033419       0.047
   0.11246787  0.11246787  0.08033419       0.047
   0.11246787  0.11246787  0.11246787       0.016
 
 k-points in reciprocal lattice and weights: KPOINTS created by Atomic Simulation Env
   0.06250000  0.06250000  0.06250000       0.016
   0.18750000  0.06250000  0.06250000       0.047
   0.31250000  0.06250000  0.06250000       0.047
   0.43750000  0.06250000  0.06250000       0.047
   0.18750000  0.18750000  0.06250000       0.047
   0.31250000  0.18750000  0.06250000       0.094
   0.43750000  0.18750000  0.06250000       0.094
   0.31250000  0.31250000  0.06250000       0.047
   0.43750000  0.31250000  0.06250000       0.094
   0.43750000  0.43750000  0.06250000       0.047
   0.18750000  0.18750000  0.18750000       0.016
   0.31250000  0.18750000  0.18750000       0.047
   0.43750000  0.18750000  0.18750000       0.047
   0.31250000  0.31250000  0.18750000       0.047
   0.43750000  0.31250000  0.18750000       0.094
   0.43750000  0.43750000  0.18750000       0.047
   0.31250000  0.31250000  0.31250000       0.016
   0.43750000  0.31250000  0.31250000       0.047
   0.43750000  0.43750000  0.31250000       0.047
   0.43750000  0.43750000  0.43750000       0.016
 
 position of ions in fractional coordinates (direct lattice) 
   0.00000000  0.00000000  0.00000000
   0.00000000  0.50000000  0.50000000
   0.50000000  0.00000000  0.50000000
   0.50000000  0.50000000  0.00000000
 
 position of ions in cartesian coordinates  (Angst):
   0.00000000  0.00000000  0.00000000
   0.00000000  1.94500000  1.94500000
   1.94500000  0.00000000  1.94500000
   1.94500000  1.94500000  0.00000000
 


--------------------------------------------------------------------------------------------------------


 k-point  1 :   0.0625 0.0625 0.0625  plane waves:    1054
 k-point  2 :   0.1875 0.0625 0.0625  plane waves:    1073
 k-point  3 :   0.3125 0.0625 0.0625  plane waves:    1069
 k-point  4 :   0.4375 0.0625 0.0625  plane waves:    1078
 k-point  5 :   0.1875 0.1875 0.0625  plane waves:    1072
 k-point  6 :   0.3125 0.1875 0.0625  plane waves:    1068
 k-point  7 :   0.4375 0.1875 0.0625  plane waves:    1078
 k-point  8 :   0.3125 0.3125 0.0625  plane waves:    1071
 k-point  9 :   0.4375 0.3125 0.0625  plane waves:    1075
 k-point 10 :   0.4375 0.4375 0.0625  plane waves:    1065
 k-point 11 :   0.1875 0.1875 0.1875  plane waves:    1069
 k-point 12 :   0.3125 0.1875 0.1875  plane waves:    1070
 k-point 13 :   0.4375 0.1875 0.1875  plane waves:    1070
 k-point 14 :   0.3125 0.3125 0.1875  plane waves:    1068
 k-point 15 :   0.4375 0.3125 0.1875  plane waves:    1067
 k-point 16 :   0.4375 0.4375 0.1875  plane waves:    1060
 k-point 17 :   0.3125 0.3125 0.3125  plane waves:    1063
 k-point 18 :   0.4375 0.3125 0.3125  plane waves:    1066
 k-point 19 :   0.4375 0.4375 0.3125  plane waves:    1054
 k-point 20 :   0.4375 0.4375 0.4375  plane waves:    1070

 maximum and minimum number of plane-waves per node :      1078     1054

 maximum number of plane-waves:      1078
 maximum index in each direction: 
   IXMAX=    6   IYMAX=    6   IZMAX=    6
   IXMIN=   -6   IYMIN=   -6   IZMIN=   -6

 WARNING: aliasing errors must be expected set NGX to  26 to avoid them
 WARNING: aliasing errors must be expected set NGY to  26 to avoid them
 WARNING: aliasing errors must be expected set NGZ to  26 to avoid them
 aliasing errors are usually negligible using standard VASP settings
 and one can safely disregard these warnings

 serial   3D FFT for wavefunctions
 parallel 3D FFT for charge:
    minimum data exchange during FFTs selected (reduces bandwidth)


 total amount of memory used by VASP on root node    34241. kBytes
========================================================================

   base      :      30000. kBytes
   nonl-proj :       3179. kBytes
   fftplans  :        147. kBytes
   grid      :        485. kBytes
   one-center:         62. kBytes
   wavefun   :        368. kBytes
 
     INWAV:  cpu time    0.0001: real time    0.0001
 Broyden mixing: mesh for mixing (old mesh)
   NGX = 13   NGY = 13   NGZ = 13
  (NGX  = 40   NGY  = 40   NGZ  = 40)
  gives a total of   2197 points

 initial charge density was supplied:
 charge density of overlapping atoms calculated
 number of electron      40.0000000 magnetization 
 keeping initial charge density in first step


--------------------------------------------------------------------------------------------------------


 Maximum index for augmentation-charges          421 (set IRDMAX)


--------------------------------------------------------------------------------------------------------


 First call to EWALD:  gamma=   0.456
 Maximum number of real-space cells 3x 3x 3
 Maximum number of reciprocal cells 3x 3x 3

 FEWALD executed in parallel
    FEWALD:  cpu time    0.0623: real time    0.0629


----------------------------------------- Iteration    1(   1)  ---------------------------------------


    POTLOK:  cpu time    0.6553: real time    0.8524
    SETDIJ:  cpu time    0.1450: real time    0.1850
     EDDAV:  cpu time    0.6131: real time    0.6132
       DOS:  cpu time    0.0005: real time    0.0005
    --------------------------------------------
      LOOP:  cpu time    1.4151: real time    1.6539

 eigenvalue-minimisations  :   960
 total energy-change (2. order) : 0.1454820E+03  (-0.1871733E+04)
 number of electron      40.0000000 magnetization 
 augmentation part       40.0000000 magnetization 

 Free energy of the ion-electron system (eV)
  ---------------------------------------------------
  alpha Z        PSCENC =       177.15512380
  Ewald energy   TEWEN  =     -3394.39787954
  -Hartree energ DENC   =      -490.86475040
  -exchange      EXHF   =         0.00000000
  -V(xc)+E(xc)   XCENC  =      -116.42890961
  PAW double counting   =      3226.95325816    -2978.06409795
  entropy T*S    EENTRO =        -0.00124948
  eigenvalues    EBANDS =       482.15493287
  atomic energy  EATOM  =      3238.97557032
  Solvation  Ediel_sol  =         0.00000000
  ---------------------------------------------------
  free energy    TOTEN  =       145.48199816 eV

  energy without entropy =      145.48324764  energy(sigma->0) =      145.48241465


--------------------------------------------------------------------------------------------------------




----------------------------------------- Iteration    1(   2)  ---------------------------------------


     EDDAV:  cpu time    0.2004: real time    0.2008
       DOS:  cpu time    0.0006: real time    0.0006
    --------------------------------------------
      LOOP:  cpu time    0.2024: real time    0.2042

 eigenvalue-minimisations  :  1440
 total energy-change (2. order) :-0.1665429E+03  (-0.1662162E+03)
 number of electron      40.0000000 magnetization 
 augmentation part       40.0000000 magnetization 

 Free energy of the ion-electron system (eV)
  ---------------------------------------------------
  alpha Z        PSCENC =       177.15512380
  Ewald energy   TEWEN  =     -3394.39787954
  -Hartree energ DENC   =      -490.86475040
  -exchange      EXHF   =         0.00000000
  -V(xc)+E(xc)   XCENC  =      -116.42890961
  PAW double counting   =      3226.95325816    -2978.06409795
  entropy T*S    EENTRO =        -0.00275159
  eigenvalues    EBANDS =       315.61351099
  atomic energy  EATOM  =      3238.97557032
  Solvation  Ediel_sol  =         0.00000000
  ---------------------------------------------------
  free energy    TOTEN  =       -21.06092583 eV

  energy without entropy =      -21.05817424  energy(sigma->0) =      -21.06000863


--------------------------------------------------------------------------------------------------------




----------------------------------------- Iteration    1(   3)  ---------------------------------------


     EDDAV:  cpu time    0.1141: real time    0.1144
       DOS:  cpu time    0.0004: real time    0.0004
    --------------------------------------------
      LOOP:  cpu time    0.1154: real time    0.1172

 eigenvalue-minimisations  :   960
 total energy-change (2. order) :-0.8412194E+00  (-0.8374516E+00)
 number of electron      40.0000000 magnetization 
 augmentation part       40.0000000 magnetization 

 Free energy of the ion-electron system (eV)
  ---------------------------------------------------
  alpha Z        PSCENC =       177.15512380
  Ewald energy   TEWEN  =     -3394.39787954
  -Hartree energ DENC   =      -490.86475040
  -exchange      EXHF   =         0.00000000
  -V(xc)+E(xc)   XCENC  =      -116.42890961
  PAW double counting   =      3226.95325816    -2978.06409795
  entropy T*S    EENTRO =        -0.00545257
  eigenvalues    EBANDS =       314.77499260
  atomic energy  EATOM  =      3238.97557032
  Solvation  Ediel_sol  =         0.00000000
  ---------------------------------------------------
  free energy    TOTEN  =       -21.90214519 eV

  energy without entropy =      -21.89669263  energy(sigma->0) =      -21.90032767


--------------------------------------------------------------------------------------------------------




----------------------------------------- Iteration    1(   4)  ---------------------------------------


     EDDAV:  cpu time    0.1421: real time    0.1423
       DOS:  cpu time    0.0004: real time    0.0004
    --------------------------------------------
      LOOP:  cpu time    0.1434: real time    0.1450

 eigenvalue-minimisations  :  1128
 total energy-change (2. order) :-0.4234562E-02  (-0.4234093E-02)
 number of electron      40.0000000 magnetization 
 augmentation part       40.0000000 magnetization 

 Free energy of the ion-electron system (eV)
  ---------------------------------------------------
  alpha Z        PSCENC =       177.15512380
  Ewald energy   TEWEN  =     -3394.39787954
  -Hartree energ DENC   =      -490.86475040
  -exchange      EXHF   =         0.00000000
  -V(xc)+E(xc)   XCENC  =      -116.42890961
  PAW double counting   =      3226.95325816    -2978.06409795
  entropy T*S    EENTRO =        -0.00544804
  eigenvalues    EBANDS =       314.77075351
  atomic energy  EATOM  =      3238.97557032
  Solvation  Ediel_sol  =         0.00000000
  ---------------------------------------------------
  free energy    TOTEN  =       -21.90637976 eV

  energy without entropy =      -21.90093172  energy(sigma->0) =      -21.90456374


--------------------------------------------------------------------------------------------------------




----------------------------------------- Iteration    1(   5)  ---------------------------------------


     EDDAV:  cpu time    0.1228: real time    0.1229
       DOS:  cpu time    0.0005: real time    0.0005
    CHARGE:  cpu time    0.0069: real time    0.0069
    MIXING:  cpu time    0.0005: real time    0.0006
    --------------------------------------------
      LOOP:  cpu time    0.1317: real time    0.1334

 eigenvalue-minimisations  :  1008
 total energy-change (2. order) :-0.3498793E-04  (-0.3498719E-04)
 number of electron      40.0000031 magnetization 
 augmentation part       15.9625518 magnetization 

 Broyden mixing:
  rms(total) = 0.15611E+01    rms(broyden)= 0.15610E+01
  rms(prec ) = 0.21991E+01
  weight for this iteration     100.00

 Free energy of the ion-electron system (eV)
  ---------------------------------------------------
  alpha Z        PSCENC =       177.15512380
  Ewald energy   TEWEN  =     -3394.39787954
  -Hartree energ DENC   =      -490.86475040
  -exchange      EXHF   =         0.00000000
  -V(xc)+E(xc)   XCENC  =      -116.42890961
  PAW double counting   =      3226.95325816    -2978.06409795
  entropy T*S    EENTRO =        -0.00544816
  eigenvalues    EBANDS =       314.77071864
  atomic energy  EATOM  =      3238.97557032
  Solvation  Ediel_sol  =         0.00000000
  ---------------------------------------------------
  free energy    TOTEN  =       -21.90641474 eV

  energy without entropy =      -21.90096658  energy(sigma->0) =      -21.90459869


--------------------------------------------------------------------------------------------------------




----------------------------------------- Iteration    1(   6)  ---------------------------------------


    POTLOK:  cpu time    0.0040: real time    0.0040
    SETDIJ:  cpu time    0.0021: real time    0.0021
     EDDAV:  cpu time    0.1160: real time    0.1160
       DOS:  cpu time    0.0005: real time    0.0005
    CHARGE:  cpu time    0.0069: real time    0.0069
    MIXING:  cpu time    0.0004: real time    0.0004
    --------------------------------------------
      LOOP:  cpu time    0.1309: real time    0.1324

 eigenvalue-minimisations  :   960
 total energy-change (2. order) : 0.1043988E+01  (-0.5175731E+00)
 number of electron      40.0000034 magnetization 
 augmentation part       16.6968266 magnetization 

 Broyden mixing:
  rms(total) = 0.76473E+00    rms(broyden)= 0.76472E+00
  rms(prec ) = 0.79157E+00
  weight for this iteration     100.00

 eigenvalues of (default mixing * dielectric matrix)
  average eigenvalue GAMMA=   1.6167
  1.6167

 Free energy of the ion-electron system (eV)
  ---------------------------------------------------
  alpha Z        PSCENC =       177.15512380
  Ewald energy   TEWEN  =     -3394.39787954
  -Hartree energ DENC   =      -458.30050928
  -exchange      EXHF   =         0.00000000
  -V(xc)+E(xc)   XCENC  =      -117.34412731
  PAW double counting   =      3488.61535294    -3245.67244648
  entropy T*S    EENTRO =        -0.00264631
  eigenvalues    EBANDS =       290.10913492
  atomic energy  EATOM  =      3238.97557032
  Solvation  Ediel_sol  =         0.00000000
  ---------------------------------------------------
  free energy    TOTEN  =       -20.86242694 eV

  energy without entropy =      -20.85978063  energy(sigma->0) =      -20.86154483


--------------------------------------------------------------------------------------------------------




----------------------------------------- Iteration    1(   7)  ---------------------------------------


    POTLOK:  cpu time    0.0037: real time    0.0037
    SETDIJ:  cpu time    0.0020: real time    0.0020
     EDDAV:  cpu time    0.1217: real time    0.1217
       DOS:  cpu time    0.0004: real time    0.0004
    CHARGE:  cpu time    0.0070: real time    0.0070
    MIXING:  cpu time    0.0003: real time    0.0003
    --------------------------------------------
      LOOP:  cpu time    0.1362: real time    0.1376

 eigenvalue-minimisations  :   984
 total energy-change (2. order) : 0.4494176E-01  (-0.4361114E-02)
 number of electron      40.0000034 magnetization 
 augmentation part       16.7547361 magnetization 

 Broyden mixing:
  rms(total) = 0.37587E+00    rms(broyden)= 0.37587E+00
  rms(prec ) = 0.38031E+00
  weight for this iteration     100.00

 eigenvalues of (default mixing * dielectric matrix)
  average eigenvalue GAMMA=   1.8094
  1.0570  2.5618

 Free energy of the ion-electron system (eV)
  ---------------------------------------------------
  alpha Z        PSCENC =       177.15512380
  Ewald energy   TEWEN  =     -3394.39787954
  -Hartree energ DENC   =      -453.34749157
  -exchange      EXHF   =         0.00000000
  -V(xc)+E(xc)   XCENC  =      -117.48306437
  PAW double counting   =      3700.32933098    -3460.28994412
  entropy T*S    EENTRO =        -0.00275372
  eigenvalues    EBANDS =       288.24362305
  atomic energy  EATOM  =      3238.97557032
  Solvation  Ediel_sol  =         0.00000000
  ---------------------------------------------------
  free energy    TOTEN  =       -20.81748518 eV

  energy without entropy =      -20.81473145  energy(sigma->0) =      -20.81656727


--------------------------------------------------------------------------------------------------------




----------------------------------------- Iteration    1(   8)  ---------------------------------------


    POTLOK:  cpu time    0.0030: real time    0.0030
    SETDIJ:  cpu time    0.0021: real time    0.0021
     EDDAV:  cpu time    0.1179: real time    0.1179
       DOS:  cpu time    0.0004: real time    0.0004
    CHARGE:  cpu time    0.0074: real time    0.0074
    MIXING:  cpu time    0.0002: real time    0.0002
    --------------------------------------------
      LOOP:  cpu time    0.1320: real time    0.1338

 eigenvalue-minimisations  :   960
 total energy-change (2. order) : 0.1295338E-01  (-0.3883314E-03)
 number of electron      40.0000034 magnetization 
 augmentation part       16.7551013 magnetization 

 Broyden mixing:
  rms(total) = 0.13380E-01    rms(broyden)= 0.13379E-01
  rms(prec ) = 0.14096E-01
  weight for this iteration     100.00

 eigenvalues of (default mixing * dielectric matrix)
  average eigenvalue GAMMA=   1.5111
  2.4934  0.9745  1.0653

 Free energy of the ion-electron system (eV)
  ---------------------------------------------------
  alpha Z        PSCENC =       177.15512380
  Ewald energy   TEWEN  =     -3394.39787954
  -Hartree energ DENC   =      -450.83680597
  -exchange      EXHF   =         0.00000000
  -V(xc)+E(xc)   XCENC  =      -117.55330735
  PAW double counting   =      3907.44285990    -3669.99509628
  entropy T*S    EENTRO =        -0.00275545
  eigenvalues    EBANDS =       288.40775877
  atomic energy  EATOM  =      3238.97557032
  Solvation  Ediel_sol  =         0.00000000
  ---------------------------------------------------
  free energy    TOTEN  =       -20.80453180 eV

  energy without entropy =      -20.80177635  energy(sigma->0) =      -20.80361332


--------------------------------------------------------------------------------------------------------




----------------------------------------- Iteration    1(   9)  ---------------------------------------


    POTLOK:  cpu time    0.0037: real time    0.0037
    SETDIJ:  cpu time    0.0020: real time    0.0020
     EDDAV:  cpu time    0.0702: real time    0.0702
       DOS:  cpu time    0.0004: real time    0.0004
    --------------------------------------------
      LOOP:  cpu time    0.0773: real time    0.0787

 eigenvalue-minimisations  :   552
 total energy-change (2. order) :-0.6865130E-06  (-0.2843490E-05)
 number of electron      40.0000034 magnetization 
 augmentation part       16.7551013 magnetization 

 Free energy of the ion-electron system (eV)
  ---------------------------------------------------
  alpha Z        PSCENC =       177.15512380
  Ewald energy   TEWEN  =     -3394.39787954
  -Hartree energ DENC   =      -450.96622633
  -exchange      EXHF   =         0.00000000
  -V(xc)+E(xc)   XCENC  =      -117.54978984
  PAW double counting   =      3902.51600247    -3664.93185387
  entropy T*S    EENTRO =        -0.00275421
  eigenvalues    EBANDS =       288.39727472
  atomic energy  EATOM  =      3238.97557032
  Solvation  Ediel_sol  =         0.00000000
  ---------------------------------------------------
  free energy    TOTEN  =       -20.80453249 eV

  energy without entropy =      -20.80177828  energy(sigma->0) =      -20.80361442


--------------------------------------------------------------------------------------------------------




 average (electrostatic) potential at core
  the test charge radii are     1.1199
  (the norm of the test charge is              1.0000)
       1 -70.4613       2 -70.4613       3 -70.4613       4 -70.4613
 
 
 
 E-fermi :   9.8227     XC(G=0): -13.1975     alpha+bet :-16.7333


 k-point     1 :       0.0625    0.0625    0.0625
  band No.  band energies     occupation 
      1       2.8072      2.00000
      2       4.4985      2.00000
      3       4.4985      2.00000
      4       4.4985      2.00000
      5       4.7814      2.00000
      6       4.7814      2.00000
      7       4.7814      2.00000
      8       6.9318      2.00000
      9       7.0319      2.00000
     10       7.0319      2.00000
     11       8.5769      2.00000
     12       8.5769      2.00000
     13       9.6797      2.06127
     14       9.6797      2.06127
     15       9.6797      2.06127
     16       9.7692      1.77681
     17       9.7692      1.77681
     18       9.7692      1.77681
     19      10.0663     -0.00306
     20      10.0663     -0.00306
     21      10.0663     -0.00306
     22      13.3337      0.00000
     23      13.3337      0.00000
     24      13.3337      0.00000

 k-point     2 :       0.1875    0.0625    0.0625
  band No.  band energies     occupation 
      1       3.1742      2.00000
      2       4.6707      2.00000
      3       4.7198      2.00000
      4       4.7198      2.00000
      5       4.9233      2.00000
      6       5.0096      2.00000
      7       5.0096      2.00000
      8       6.7527      2.00000
      9       7.1831      2.00000
     10       7.1889      2.00000
     11       8.3820      2.00000
     12       8.6706      2.00000
     13       8.8690      2.00000
     14       8.8690      2.00000
     15       9.3814      2.00000
     16       9.4264      2.00000
     17       9.4264      2.00000
     18       9.4583      2.00000
     19       9.8746      0.23899
     20      10.0447     -0.00737
     21      10.0447     -0.00737
     22      11.9200     -0.00000
     23      14.4663      0.00000
     24      14.4663      0.00000

 k-point     3 :       0.3125    0.0625    0.0625
  band No.  band energies     occupation 
      1       3.8480      2.00000
      2       4.9345      2.00000
      3       5.1042      2.00000
      4       5.1042      2.00000
      5       5.1945      2.00000
      6       5.4443      2.00000
      7       5.4443      2.00000
      8       6.4102      2.00000
      9       7.4666      2.00000
     10       7.4952      2.00000
     11       7.8108      2.00000
     12       7.8108      2.00000
     13       8.1240      2.00000
     14       8.6979      2.00000
     15       8.8469      2.00000
     16       8.9729      2.00000
     17       8.9729      2.00000
     18       9.0117      2.00000
     19       9.6219      2.01560
     20      10.0367     -0.00991
     21      10.0367     -0.00991
     22      10.2909     -0.00000
     23      15.9645      0.00000
     24      15.9645      0.00000

 k-point     4 :       0.4375    0.0625    0.0625
  band No.  band energies     occupation 
      1       4.6300      2.00000
      2       5.0513      2.00000
      3       5.4738      2.00000
      4       5.4738      2.00000
      5       5.5646      2.00000
      6       5.9894      2.00000
      7       6.0461      2.00000
      8       6.0461      2.00000
      9       6.8497      2.00000
     10       6.8497      2.00000
     11       7.5944      2.00000
     12       7.9281      2.00000
     13       7.9322      2.00000
     14       8.3101      2.00000
     15       8.4619      2.00000
     16       8.5679      2.00000
     17       8.5679      2.00000
     18       9.0650      2.00000
     19       9.0839      2.00000
     20       9.3522      2.00000
     21      10.0343     -0.01077
     22      10.0343     -0.01077
     23      17.5067      0.00000
     24      17.5067      0.00000

 k-point     5 :       0.1875    0.1875    0.0625
  band No.  band energies     occupation 
      1       3.5142      2.00000
      2       4.8558      2.00000
      3       4.8912      2.00000
      4       4.8912      2.00000
      5       5.1464      2.00000
      6       5.1464      2.00000
      7       5.2802      2.00000
      8       6.6922      2.00000
      9       7.2447      2.00000
     10       7.2701      2.00000
     11       8.3513      2.00000
     12       8.4368      2.00000
     13       8.4368      2.00000
     14       8.4407      2.00000
     15       8.6933      2.00000
     16       9.1445      2.00000
     17       9.2972      2.00000
     18       9.2972      2.00000
     19       9.8440      0.64824
     20       9.8440      0.64824
     21       9.8849      0.14062
     22      12.9762      0.00000
     23      12.9762      0.00000
     24      15.3506      0.00000

 k-point     6 :       0.3125    0.1875    0.0625
  band No.  band energies     occupation 
      1       4.1343      2.00000
      2       5.1475      2.00000
      3       5.1625      2.00000
      4       5.2806      2.00000
      5       5.4143      2.00000
      6       5.5618      2.00000
      7       5.7036      2.00000
      8       6.4529      2.00000
      9       7.3675      2.00000
     10       7.4587      2.00000
     11       7.4930      2.00000
     12       7.6611      2.00000
     13       7.8297      2.00000
     14       8.2251      2.00000
     15       8.7832      2.00000
     16       8.8827      2.00000
     17       8.9506      2.00000
     18       8.9563      2.00000
     19       9.5519      2.00087
     20       9.7644      1.82407
     21       9.7731      1.73475
     22      11.3158     -0.00000
     23      14.2670      0.00000
     24      16.6471      0.00000

 k-point     7 :       0.4375    0.1875    0.0625
  band No.  band energies     occupation 
      1       4.8579      2.00000
      2       5.2637      2.00000
      3       5.5864      2.00000
      4       5.6859      2.00000
      5       5.7556      2.00000
      6       6.0553      2.00000
      7       6.0860      2.00000
      8       6.1109      2.00000
      9       6.6886      2.00000
     10       6.8693      2.00000
     11       7.2600      2.00000
     12       7.3112      2.00000
     13       7.8734      2.00000
     14       8.3553      2.00000
     15       8.4761      2.00000
     16       8.5054      2.00000
     17       8.5532      2.00000
     18       9.0946      2.00000
     19       9.3796      2.00000
     20       9.7304      2.03026
     21       9.7304      2.03007
     22      10.0724     -0.00235
     23      15.5498      0.00000
     24      16.7731      0.00000

 k-point     8 :       0.3125    0.3125    0.0625
  band No.  band energies     occupation 
      1       4.6405      2.00000
      2       5.3534      2.00000
      3       5.5113      2.00000
      4       5.5113      2.00000
      5       5.8307      2.00000
      6       5.8307      2.00000
      7       6.0733      2.00000
      8       6.4408      2.00000
      9       7.0061      2.00000
     10       7.0061      2.00000
     11       7.2995      2.00000
     12       7.3148      2.00000
     13       7.5879      2.00000
     14       8.1375      2.00000
     15       8.4816      2.00000
     16       8.6866      2.00000
     17       8.6866      2.00000
     18       9.3599      2.00000
     19       9.3599      2.00000
     20       9.4115      2.00000
     21       9.4853      2.00002
     22      12.4923     -0.00000
     23      12.4923     -0.00000
     24      16.3268      0.00000

 k-point     9 :       0.4375    0.3125    0.0625
  band No.  band energies     occupation 
      1       5.2140      2.00000
      2       5.5715      2.00000
      3       5.6934      2.00000
      4       5.9448      2.00000
      5       6.1207      2.00000
      6       6.1496      2.00000
      7       6.2708      2.00000
      8       6.3176      2.00000
      9       6.5589      2.00000
     10       6.7757      2.00000
     11       6.8728      2.00000
     12       7.0591      2.00000
     13       7.8262      2.00000
     14       8.2362      2.00000
     15       8.2516      2.00000
     16       8.3462      2.00000
     17       8.3705      2.00000
     18       8.8623      2.00000
     19       9.2698      2.00000
     20       9.3098      2.00000
     21      10.1084     -0.00041
     22      11.0888     -0.00000
     23      13.6853      0.00000
     24      14.9299      0.00000

 k-point    10 :       0.4375    0.4375    0.0625
  band No.  band energies     occupation 
      1       5.5436      2.00000
      2       5.7774      2.00000
      3       5.7901      2.00000
      4       5.7901      2.00000
      5       6.4327      2.00000
      6       6.4584      2.00000
      7       6.4584      2.00000
      8       6.4733      2.00000
      9       6.6613      2.00000
     10       6.6613      2.00000
     11       6.8707      2.00000
     12       6.9741      2.00000
     13       7.7650      2.00000
     14       7.9856      2.00000
     15       8.0159      2.00000
     16       8.0159      2.00000
     17       8.3900      2.00000
     18       8.7749      2.00000
     19       8.7749      2.00000
     20       8.9461      2.00000
     21      11.0316     -0.00000
     22      12.1843     -0.00000
     23      12.1843     -0.00000
     24      13.4228      0.00000

 k-point    11 :       0.1875    0.1875    0.1875
  band No.  band energies     occupation 
      1       3.8007      2.00000
      2       4.9861      2.00000
      3       4.9861      2.00000
      4       4.9861      2.00000
      5       5.4376      2.00000
      6       5.4376      2.00000
      7       5.4376      2.00000
      8       6.7383      2.00000
      9       7.2700      2.00000
     10       7.2700      2.00000
     11       8.1022      2.00000
     12       8.1022      2.00000
     13       8.1022      2.00000
     14       8.5588      2.00000
     15       8.5588      2.00000
     16       8.7953      2.00000
     17       8.7953      2.00000
     18       8.7953      2.00000
     19       9.9399     -0.07002
     20       9.9399     -0.07002
     21       9.9399     -0.07002
     22      13.6857      0.00000
     23      13.6857      0.00000
     24      13.6857      0.00000

 k-point    12 :       0.3125    0.1875    0.1875
  band No.  band energies     occupation 
      1       4.3058      2.00000
      2       5.1504      2.00000
      3       5.2475      2.00000
      4       5.2475      2.00000
      5       5.7599      2.00000
      6       5.8431      2.00000
      7       5.8431      2.00000
      8       6.6624      2.00000
      9       7.3155      2.00000
     10       7.3732      2.00000
     11       7.4404      2.00000
     12       7.4404      2.00000
     13       7.5798      2.00000
     14       8.3477      2.00000
     15       8.5123      2.00000
     16       8.5123      2.00000
     17       8.5242      2.00000
     18       8.8959      2.00000
     19       9.8241      0.97591
     20       9.8241      0.97591
     21       9.8597      0.41842
     22      11.8215     -0.00000
     23      14.7122      0.00000
     24      14.7122      0.00000

 k-point    13 :       0.4375    0.1875    0.1875
  band No.  band energies     occupation 
      1       4.8614      2.00000
      2       5.1783      2.00000
      3       5.6456      2.00000
      4       5.6456      2.00000
      5       6.0109      2.00000
      6       6.0109      2.00000
      7       6.1692      2.00000
      8       6.4713      2.00000
      9       7.0017      2.00000
     10       7.0017      2.00000
     11       7.1535      2.00000
     12       7.1618      2.00000
     13       7.5910      2.00000
     14       7.9256      2.00000
     15       8.2678      2.00000
     16       8.2678      2.00000
     17       9.0737      2.00000
     18       9.2766      2.00000
     19       9.6220      2.01566
     20       9.7073      2.06921
     21       9.7073      2.06921
     22      10.2264     -0.00000
     23      15.6779      0.00000
     24      15.6779      0.00000

 k-point    14 :       0.3125    0.3125    0.1875
  band No.  band energies     occupation 
      1       4.5931      2.00000
      2       5.2866      2.00000
      3       5.2866      2.00000
      4       5.3204      2.00000
      5       6.1490      2.00000
      6       6.1683      2.00000
      7       6.1683      2.00000
      8       6.9273      2.00000
      9       7.1701      2.00000
     10       7.1701      2.00000
     11       7.2833      2.00000
     12       7.3234      2.00000
     13       7.3678      2.00000
     14       8.1060      2.00000
     15       8.1144      2.00000
     16       8.1144      2.00000
     17       8.5923      2.00000
     18       9.2511      2.00000
     19       9.7249      2.04533
     20       9.7639      1.82911
     21       9.7639      1.82911
     22      12.7117      0.00000
     23      12.7117      0.00000
     24      15.1706      0.00000

 k-point    15 :       0.4375    0.3125    0.1875
  band No.  band energies     occupation 
      1       4.9126      2.00000
      2       5.1720      2.00000
      3       5.4597      2.00000
      4       5.4654      2.00000
      5       6.2360      2.00000
      6       6.2523      2.00000
      7       6.6373      2.00000
      8       6.9828      2.00000
      9       7.0127      2.00000
     10       7.0943      2.00000
     11       7.1869      2.00000
     12       7.3427      2.00000
     13       7.4462      2.00000
     14       7.7281      2.00000
     15       7.8889      2.00000
     16       7.9401      2.00000
     17       8.9428      2.00000
     18       9.4752      2.00001
     19       9.5728      2.00233
     20       9.5834      2.00369
     21       9.9289     -0.06085
     22      11.0492     -0.00000
     23      13.7211      0.00000
     24      14.7107      0.00000

 k-point    16 :       0.4375    0.4375    0.1875
  band No.  band energies     occupation 
      1       5.0326      2.00000
      2       5.2236      2.00000
      3       5.2236      2.00000
      4       5.3141      2.00000
      5       6.4718      2.00000
      6       6.6148      2.00000
      7       6.6148      2.00000
      8       6.8824      2.00000
      9       7.3674      2.00000
     10       7.3674      2.00000
     11       7.3692      2.00000
     12       7.5355      2.00000
     13       7.5925      2.00000
     14       7.6028      2.00000
     15       7.6518      2.00000
     16       7.6518      2.00000
     17       8.9021      2.00000
     18       9.2643      2.00000
     19       9.2643      2.00000
     20       9.3360      2.00000
     21      10.8487     -0.00000
     22      12.0754     -0.00000
     23      12.0754     -0.00000
     24      13.2848      0.00000

 k-point    17 :       0.3125    0.3125    0.3125
  band No.  band energies     occupation 
      1       4.6019      2.00000
      2       5.1550      2.00000
      3       5.1550      2.00000
      4       5.1550      2.00000
      5       6.4014      2.00000
      6       6.4014      2.00000
      7       6.4014      2.00000
      8       7.1794      2.00000
      9       7.1794      2.00000
     10       7.4995      2.00000
     11       7.4995      2.00000
     12       7.4995      2.00000
     13       7.6949      2.00000
     14       7.6949      2.00000
     15       7.6949      2.00000
     16       7.7227      2.00000
     17       9.0842      2.00000
     18       9.0842      2.00000
     19       9.8624      0.38268
     20       9.8624      0.38268
     21       9.8624      0.38268
     22      13.1105      0.00000
     23      13.1105      0.00000
     24      13.1105      0.00000

 k-point    18 :       0.4375    0.3125    0.3125
  band No.  band energies     occupation 
      1       4.7142      2.00000
      2       4.9179      2.00000
      3       5.1012      2.00000
      4       5.1012      2.00000
      5       6.4670      2.00000
      6       6.4670      2.00000
      7       6.7450      2.00000
      8       7.0230      2.00000
      9       7.1958      2.00000
     10       7.3745      2.00000
     11       7.4953      2.00000
     12       7.4953      2.00000
     13       7.7299      2.00000
     14       7.8591      2.00000
     15       7.8591      2.00000
     16       7.9886      2.00000
     17       9.5111      2.00010
     18       9.6959      2.07039
     19       9.7457      1.96387
     20       9.7457      1.96387
     21       9.7900      1.52203
     22      11.2115     -0.00000
     23      13.4700      0.00000
     24      13.4700      0.00000

 k-point    19 :       0.4375    0.4375    0.3125
  band No.  band energies     occupation 
      1       4.6836      2.00000
      2       4.8206      2.00000
      3       4.8206      2.00000
      4       4.8825      2.00000
      5       6.6650      2.00000
      6       6.7535      2.00000
      7       6.7535      2.00000
      8       6.9690      2.00000
      9       7.0869      2.00000
     10       7.2104      2.00000
     11       7.2104      2.00000
     12       7.2466      2.00000
     13       8.3624      2.00000
     14       8.3624      2.00000
     15       8.3726      2.00000
     16       8.6633      2.00000
     17       9.3799      2.00000
     18       9.6727      2.05533
     19       9.6727      2.05533
     20       9.6744      2.05682
     21      10.4793     -0.00000
     22      11.8197     -0.00000
     23      11.8197     -0.00000
     24      12.6908      0.00000

 k-point    20 :       0.4375    0.4375    0.4375
  band No.  band energies     occupation 
      1       4.5426      2.00000
      2       4.6133      2.00000
      3       4.6133      2.00000
      4       4.6133      2.00000
      5       6.8580      2.00000
      6       6.8580      2.00000
      7       6.8580      2.00000
      8       6.9671      2.00000
      9       6.9671      2.00000
     10       7.0230      2.00000
     11       7.0230      2.00000
     12       7.0230      2.00000
     13       9.1389      2.00000
     14       9.1389      2.00000
     15       9.1389      2.00000
     16       9.7090      2.06819
     17       9.7090      2.06819
     18       9.8149      1.13070
     19       9.8149      1.13070
     20       9.8149      1.13070
     21      10.2096     -0.00000
     22      11.4957     -0.00000
     23      11.4957     -0.00000
     24      11.4957     -0.00000


--------------------------------------------------------------------------------------------------------


 soft charge-density along one line, spin component           1
         0         1         2         3         4         5         6         7         8         9
 total charge-density along one line
 
 pseudopotential strength for first ion, spin component:           1
 -2.089  -0.000   0.000  -0.000  -0.000  -2.340  -0.000   0.000
 -0.000  -2.089  -0.000  -0.000   0.000  -0.000  -2.340  -0.000
  0.000  -0.000  -2.059  -0.000  -0.000   0.000  -0.000  -2.311
 -0.000  -0.000  -0.000  -2.089  -0.000  -0.000  -0.000  -0.000
 -0.000   0.000   0.000  -0.000  -2.059  -0.000   0.000  -0.000
 -2.340  -0.000   0.000  -0.000  -0.000  -2.558  -0.000   0.000
 -0.000  -2.340  -0.000  -0.000   0.000  -0.000  -2.558  -0.000
  0.000  -0.000  -2.311  -0.000  -0.000   0.000  -0.000  -2.530
 -0.000  -0.000  -0.000  -2.340  -0.000  -0.000  -0.000  -0.000
 -0.000   0.000  -0.000  -0.000  -2.311  -0.000   0.000  -0.000
  0.000   0.000  -0.000   0.000  -0.000   0.000   0.000  -0.000
  0.000   0.000  -0.000   0.000  -0.000   0.000   0.000  -0.000
 -0.000   0.000   0.000  -0.000   0.000  -0.000   0.000   0.000
 -0.000  -0.000   0.000   0.000   0.000  -0.000  -0.000   0.000
 -0.000  -0.000  -0.000   0.000   0.000  -0.000  -0.000  -0.000
 -0.000   0.000   0.000  -0.000   0.000   0.000   0.000   0.000
 -0.000  -0.000   0.000   0.000   0.000  -0.000  -0.000   0.000
 -0.000  -0.000  -0.000   0.000  -0.000  -0.000  -0.000   0.000
 total augmentation occupancy for first ion, spin component:           1
  3.025  -0.000  -0.000   0.000  -0.000  -1.851   0.000  -0.000   0.000   0.000  -0.000  -0.000   0.000   0.000   0.000   0.000
 -0.000   3.025   0.000   0.000  -0.000  -0.000  -1.851  -0.000  -0.000   0.000   0.000   0.000  -0.000   0.000   0.000  -0.000
  0.000   0.000   3.511   0.000  -0.000  -0.000  -0.000  -1.920  -0.000  -0.000  -0.000   0.000   0.000   0.000  -0.000  -0.000
 -0.000  -0.000   0.000   3.025  -0.000  -0.000   0.000  -0.000  -1.851  -0.000  -0.000   0.000   0.000   0.000  -0.000  -0.000
 -0.000  -0.000  -0.000  -0.000   3.511  -0.000  -0.000  -0.000   0.000  -1.920  -0.000   0.000  -0.000   0.000   0.000   0.000
 -1.851  -0.000   0.000  -0.000  -0.000   2.426  -0.000   0.000  -0.000  -0.000   0.000   0.000  -0.000   0.000   0.000   0.000
  0.000  -1.851  -0.000   0.000  -0.000  -0.000   2.426  -0.000  -0.000   0.000   0.000  -0.000   0.000  -0.000  -0.000   0.000
 -0.000  -0.000  -1.920  -0.000   0.000   0.000  -0.000   2.183  -0.000   0.000  -0.000  -0.000   0.000   0.000   0.000   0.000
  0.000   0.000  -0.000  -1.851   0.000  -0.000  -0.000  -0.000   2.426  -0.000   0.000   0.000   0.000  -0.000  -0.000  -0.000
 -0.000   0.000  -0.000  -0.000  -1.920   0.000   0.000  -0.000  -0.000   2.183  -0.000  -0.000  -0.000  -0.000   0.000  -0.000
  0.000   0.000   0.000  -0.000   0.000   0.000   0.000  -0.000   0.000  -0.000   2.110  -0.335   0.000  -0.000   0.000   0.000
  0.000   0.000  -0.000   0.000  -0.000   0.000  -0.000  -0.000   0.000  -0.000  -0.335   0.056   0.000  -0.000   0.000   0.000
  0.000  -0.000   0.000  -0.000   0.000  -0.000   0.000   0.000   0.000   0.000  -0.000   0.000   0.253  -0.000  -0.000  -0.015
 -0.000   0.000   0.000   0.000   0.000  -0.000  -0.000  -0.000   0.000   0.000   0.000  -0.000  -0.000   0.253   0.000  -0.000
  0.000   0.000   0.000  -0.000   0.000  -0.000  -0.000  -0.000   0.000  -0.000   0.000   0.000  -0.000   0.000   0.253  -0.000
  0.000   0.000   0.000   0.000   0.000  -0.000   0.000  -0.000   0.000  -0.000   0.000   0.000  -0.015  -0.000  -0.000   0.001
 -0.000  -0.000   0.000  -0.000   0.000  -0.000   0.000   0.000   0.000  -0.000   0.000  -0.000  -0.000  -0.015   0.000   0.000
 -0.000   0.000   0.000   0.000   0.000  -0.000  -0.000   0.000   0.000   0.000  -0.000   0.000   0.000   0.000  -0.015   0.000


------------------------ aborting loop because EDIFF is reached ----------------------------------------


    CHARGE:  cpu time    0.0653: real time    0.1381
    FORLOC:  cpu time    0.0112: real time    0.0112
    FORNL :  cpu time    0.0417: real time    0.0417
    STRESS:  cpu time    0.1346: real time    0.1346
    FORCOR:  cpu time    0.0029: real time    0.0029
    FORHAR:  cpu time    0.0007: real time    0.0008
    MIXING:  cpu time    0.0002: real time    0.0002
    OFIELD:  cpu time    0.0000: real time    0.0000

  FORCE on cell =-STRESS in cart. coord.  units (eV):
  Direction    XX          YY          ZZ          XY          YZ          ZX
  --------------------------------------------------------------------------------------
  Alpha Z   177.15512   177.15512   177.15512
  Ewald   -1131.46646 -1131.46646 -1131.46646    -0.00000    -0.00000     0.00000
  Hartree   150.35123   150.35123   150.35123    -0.00000    -0.00000    -0.00000
  E(xc)    -210.38378  -210.38378  -210.38378     0.00000    -0.00000     0.00000
  Local     184.93357   184.93357   184.93357    -0.00000     0.00000     0.00000
  n-local    -7.89974   -17.54402    -6.55550     9.69853     6.31169     6.29521
  augment   296.64910   296.64910   296.64910     0.00000    -0.00000     0.00000
  Kinetic   552.17398   543.01432   542.54702     4.22023    -0.42612     1.72766
  Fock        0.00000     0.00000     0.00000     0.00000     0.00000     0.00000
  -------------------------------------------------------------------------------------
  Total       2.48414     2.48414     2.48414     0.00000     0.00000    -0.00000
  in kB      67.61410    67.61410    67.61410     0.00000     0.00000    -0.00000
  external pressure =       67.61 kB  Pullay stress =        0.00 kB


 VOLUME and BASIS-vectors are now :
 -----------------------------------------------------------------------------
  energy-cutoff  :      400.00
  volume of cell :       58.86
      direct lattice vectors                 reciprocal lattice vectors
     3.890000000  0.000000000  0.000000000     0.257069409  0.000000000  0.000000000
     0.000000000  3.890000000  0.000000000     0.000000000  0.257069409  0.000000000
     0.000000000  0.000000000  3.890000000     0.000000000  0.000000000  0.257069409

  length of vectors
     3.890000000  3.890000000  3.890000000     0.257069409  0.257069409  0.257069409


 FORCES acting on ions
    electron-ion (+dipol)            ewald-force                    non-local-force                 convergence-correction
 -----------------------------------------------------------------------------------------------
   0.196E-13 0.459E-13 -.547E-14   -.367E-14 -.310E-14 -.284E-14   -.165E-23 0.620E-24 -.207E-24   0.108E-13 -.474E-14 0.156E-13
   0.200E-13 -.616E-13 -.111E-12   -.445E-14 0.121E-14 0.452E-14   -.827E-24 0.000E+00 -.124E-23   0.620E-14 0.248E-13 -.168E-13
   -.103E-12 0.480E-13 0.515E-12   0.391E-14 -.187E-14 0.456E-14   0.165E-23 0.165E-23 -.134E-23   0.399E-14 -.119E-13 -.467E-13
   -.105E-12 -.487E-13 -.465E-12   0.313E-14 0.244E-14 -.416E-14   -.414E-23 -.165E-23 -.165E-23   0.650E-14 0.250E-13 0.464E-13
 -----------------------------------------------------------------------------------------------
   -.169E-12 -.165E-13 -.669E-13   -.109E-14 -.131E-14 0.209E-14   -.496E-23 0.620E-24 -.445E-23   0.275E-13 0.332E-13 -.150E-14
 
 
 POSITION                                       TOTAL-FORCE (eV/Angst)
 -----------------------------------------------------------------------------------
      0.00000      0.00000      0.00000        -0.000000      0.000000      0.000000
      0.00000      1.94500      1.94500        -0.000000     -0.000000      0.000000
      1.94500      0.00000      1.94500         0.000000      0.000000     -0.000000
      1.94500      1.94500      0.00000         0.000000     -0.000000      0.000000
 -----------------------------------------------------------------------------------
    total drift:                               -0.000000      0.000000     -0.000000


--------------------------------------------------------------------------------------------------------



  FREE ENERGIE OF THE ION-ELECTRON SYSTEM (eV)
  ---------------------------------------------------
  free  energy   TOTEN  =       -20.80453249 eV

  energy  without entropy=      -20.80177828  energy(sigma->0) =      -20.80361442
 


--------------------------------------------------------------------------------------------------------


    POTLOK:  cpu time    0.0052: real time    0.0052


--------------------------------------------------------------------------------------------------------


     LOOP+:  cpu time    2.7682: real time    3.1150
    4ORBIT:  cpu time    0.0000: real time    0.0000

 total amount of memory used by VASP on root node    34241. kBytes
========================================================================

   base      :      30000. kBytes
   nonl-proj :       3179. kBytes
   fftplans  :        147. kBytes
   grid      :        485. kBytes
   one-center:         62. kBytes
   wavefun   :        368. kBytes
 
  
  
 General timing and accounting informations for this job:
 ========================================================
  
                  Total CPU time used (sec):       18.691
                            User time (sec):       18.593
                          System time (sec):        0.098
                         Elapsed time (sec):       20.177
  
                   Maximum memory used (kb):       38204.
                   Average memory used (kb):           0.
  
                          Minor page faults:        16205
                          Major page faults:           10
                 Voluntary context switches:         1435
