<?xml version="1.0" encoding="ISO-8859-1"?>
<modeling>
 <generator>
  <i name="program" type="string">vasp </i>
  <i name="version" type="string">5.4.1  </i>
  <i name="subversion" type="string">05Feb16 (build Feb 08 2018 09:21:51) complex                          parallel </i>
  <i name="platform" type="string">LinuxIFC </i>
  <i name="date" type="string">2019 11 20 </i>
  <i name="time" type="string">21:32:48 </i>
 </generator>
 <incar>
  <i type="string" name="PREC">normal</i>
  <i name="ENCUT">    400.00000000</i>
  <i type="int" name="ISMEAR">     1</i>
  <i name="SIGMA">      0.10000000</i>
  <i type="logical" name="LWAVE"> F  </i>
  <i type="logical" name="LCHARG"> F  </i>
  <v type="int" name="KPOINT_BSE">    -1     0     0     0</v>
 </incar>
 <kpoints>
  <generation param="Monkhorst-Pack">
   <v type="int" name="divisions">       8        8        8 </v>
   <v name="usershift">      0.00000000       0.00000000       0.00000000 </v>
   <v name="genvec1">      0.12500000       0.00000000       0.00000000 </v>
   <v name="genvec2">      0.00000000       0.12500000       0.00000000 </v>
   <v name="genvec3">      0.00000000       0.00000000       0.12500000 </v>
   <v name="shift">      0.50000000       0.50000000       0.50000000 </v>
  </generation>
  <varray name="kpointlist" >
   <v>       0.06250000       0.06250000       0.06250000 </v>
   <v>       0.18750000       0.06250000       0.06250000 </v>
   <v>       0.31250000       0.06250000       0.06250000 </v>
   <v>       0.43750000       0.06250000       0.06250000 </v>
   <v>       0.18750000       0.18750000       0.06250000 </v>
   <v>       0.31250000       0.18750000       0.06250000 </v>
   <v>       0.43750000       0.18750000       0.06250000 </v>
   <v>       0.31250000       0.31250000       0.06250000 </v>
   <v>       0.43750000       0.31250000       0.06250000 </v>
   <v>       0.43750000       0.43750000       0.06250000 </v>
   <v>       0.18750000       0.18750000       0.18750000 </v>
   <v>       0.31250000       0.18750000       0.18750000 </v>
   <v>       0.43750000       0.18750000       0.18750000 </v>
   <v>       0.31250000       0.31250000       0.18750000 </v>
   <v>       0.43750000       0.31250000       0.18750000 </v>
   <v>       0.43750000       0.43750000       0.18750000 </v>
   <v>       0.31250000       0.31250000       0.31250000 </v>
   <v>       0.43750000       0.31250000       0.31250000 </v>
   <v>       0.43750000       0.43750000       0.31250000 </v>
   <v>       0.43750000       0.43750000       0.43750000 </v>
  </varray>
  <varray name="weights" >
   <v>       0.01562500 </v>
   <v>       0.04687500 </v>
   <v>       0.04687500 </v>
   <v>       0.04687500 </v>
   <v>       0.04687500 </v>
   <v>       0.09375000 </v>
   <v>       0.09375000 </v>
   <v>       0.04687500 </v>
   <v>       0.09375000 </v>
   <v>       0.04687500 </v>
   <v>       0.01562500 </v>
   <v>       0.04687500 </v>
   <v>       0.04687500 </v>
   <v>       0.04687500 </v>
   <v>       0.09375000 </v>
   <v>       0.04687500 </v>
   <v>       0.01562500 </v>
   <v>       0.04687500 </v>
   <v>       0.04687500 </v>
   <v>       0.01562500 </v>
  </varray>
 </kpoints>
 <parameters>
  <separator name="general" >
   <i type="string" name="SYSTEM">unknown system</i>
   <i type="logical" name="LCOMPAT"> F  </i>
  </separator>
  <separator name="electronic" >
   <i type="string" name="PREC">normal</i>
   <i name="ENMAX">    400.00000000</i>
   <i name="ENAUG">    416.23000000</i>
   <i name="EDIFF">      0.00010000</i>
   <i type="int" name="IALGO">    38</i>
   <i type="int" name="IWAVPR">    10</i>
   <i type="int" name="NBANDS">    24</i>
   <i name="NELECT">     40.00000000</i>
   <i type="int" name="TURBO">     0</i>
   <i type="int" name="IRESTART">     0</i>
   <i type="int" name="NREBOOT">     0</i>
   <i type="int" name="NMIN">     0</i>
   <i name="EREF">      0.00000000</i>
   <separator name="electronic smearing" >
    <i type="int" name="ISMEAR">     1</i>
    <i name="SIGMA">      0.10000000</i>
    <i name="KSPACING">      0.50000000</i>
    <i type="logical" name="KGAMMA"> T  </i>
   </separator>
   <separator name="electronic projectors" >
    <i type="logical" name="LREAL"> F  </i>
    <v name="ROPT">      0.00000000</v>
    <i type="int" name="LMAXPAW">  -100</i>
    <i type="int" name="LMAXMIX">     2</i>
    <i type="logical" name="NLSPLINE"> F  </i>
   </separator>
   <separator name="electronic startup" >
    <i type="int" name="ISTART">     0</i>
    <i type="int" name="ICHARG">     2</i>
    <i type="int" name="INIWAV">     1</i>
   </separator>
   <separator name="electronic spin" >
    <i type="int" name="ISPIN">     1</i>
    <i type="logical" name="LNONCOLLINEAR"> F  </i>
    <v name="MAGMOM">      1.00000000      1.00000000      1.00000000      1.00000000</v>
    <i name="NUPDOWN">     -1.00000000</i>
    <i type="logical" name="LSORBIT"> F  </i>
    <v name="SAXIS">      0.00000000      0.00000000      1.00000000</v>
    <i type="logical" name="LSPIRAL"> F  </i>
    <v name="QSPIRAL">      0.00000000      0.00000000      0.00000000</v>
    <i type="logical" name="LZEROZ"> F  </i>
   </separator>
   <separator name="electronic exchange-correlation" >
    <i type="logical" name="LASPH"> F  </i>
    <i type="logical" name="LMETAGGA"> F  </i>
   </separator>
   <separator name="electronic convergence" >
    <i type="int" name="NELM">    60</i>
    <i type="int" name="NELMDL">    -5</i>
    <i type="int" name="NELMIN">     2</i>
    <i name="ENINI">    400.00000000</i>
    <separator name="electronic convergence detail" >
     <i type="logical" name="LDIAG"> T  </i>
     <i type="logical" name="LSUBROT"> F  </i>
     <i name="WEIMIN">      0.00000000</i>
     <i name="EBREAK">      0.00000104</i>
     <i name="DEPER">      0.30000000</i>
     <i type="int" name="NRMM">     4</i>
     <i name="TIME">      0.40000000</i>
    </separator>
   </separator>
   <separator name="electronic mixer" >
    <i name="AMIX">      0.40000000</i>
    <i name="BMIX">      1.00000000</i>
    <i name="AMIN">      0.10000000</i>
    <i name="AMIX_MAG">      1.60000000</i>
    <i name="BMIX_MAG">      1.00000000</i>
    <separator name="electronic mixer details" >
     <i type="int" name="IMIX">     4</i>
     <i type="logical" name="MIXFIRST"> F  </i>
     <i type="int" name="MAXMIX">   -45</i>
     <i name="WC">    100.00000000</i>
     <i type="int" name="INIMIX">     1</i>
     <i type="int" name="MIXPRE">     1</i>
     <i type="int" name="MREMOVE">     5</i>
    </separator>
   </separator>
   <separator name="electronic dipolcorrection" >
    <i type="logical" name="LDIPOL"> F  </i>
    <i type="logical" name="LMONO"> F  </i>
    <i type="int" name="IDIPOL">     0</i>
    <i name="EPSILON">      1.00000000</i>
    <v name="DIPOL">   -100.00000000   -100.00000000   -100.00000000</v>
    <i name="EFIELD">      0.00000000</i>
   </separator>
  </separator>
  <separator name="grids" >
   <i type="int" name="NGX">    20</i>
   <i type="int" name="NGY">    20</i>
   <i type="int" name="NGZ">    20</i>
   <i type="int" name="NGXF">    40</i>
   <i type="int" name="NGYF">    40</i>
   <i type="int" name="NGZF">    40</i>
   <i type="logical" name="ADDGRID"> F  </i>
  </separator>
  <separator name="ionic" >
   <i type="int" name="NSW">     0</i>
   <i type="int" name="IBRION">    -1</i>
   <i type="int" name="ISIF">     2</i>
   <i name="PSTRESS">      0.00000000</i>
   <i name="EDIFFG">      0.00100000</i>
   <i type="int" name="NFREE">     0</i>
   <i name="POTIM">      0.50000000</i>
   <i name="SMASS">     -3.00000000</i>
   <i name="SCALEE">      1.00000000</i>
  </separator>
  <separator name="ionic md" >
   <i name="TEBEG">      0.00010000</i>
   <i name="TEEND">      0.00010000</i>
   <i type="int" name="NBLOCK">     1</i>
   <i type="int" name="KBLOCK">     1</i>
   <i type="int" name="NPACO">   256</i>
   <i name="APACO">     16.00000000</i>
  </separator>
  <separator name="symmetry" >
   <i type="int" name="ISYM">     2</i>
   <i name="SYMPREC">      0.00001000</i>
  </separator>
  <separator name="dos" >
   <i type="logical" name="LORBIT"> F  </i>
   <v name="RWIGS">     -1.00000000</v>
   <i type="int" name="NEDOS">   301</i>
   <i name="EMIN">     10.00000000</i>
   <i name="EMAX">    -10.00000000</i>
   <i name="EFERMI">      0.00000000</i>
  </separator>
  <separator name="writing" >
   <i type="int" name="NWRITE">     2</i>
   <i type="logical" name="LWAVE"> F  </i>
   <i type="logical" name="LCHARG"> F  </i>
   <i type="logical" name="LPARD"> F  </i>
   <i type="logical" name="LVTOT"> F  </i>
   <i type="logical" name="LVHAR"> F  </i>
   <i type="logical" name="LELF"> F  </i>
   <i type="logical" name="LOPTICS"> F  </i>
   <v name="STM">      0.00000000      0.00000000      0.00000000      0.00000000      0.00000000      0.00000000      0.00000000</v>
  </separator>
  <separator name="performance" >
   <i type="int" name="NPAR">    24</i>
   <i type="int" name="NSIM">     4</i>
   <i type="int" name="NBLK">    -1</i>
   <i type="logical" name="LPLANE"> T  </i>
   <i type="logical" name="LSCALAPACK"> F  </i>
   <i type="logical" name="LSCAAWARE"> F  </i>
   <i type="logical" name="LSCALU"> F  </i>
   <i type="logical" name="LASYNC"> F  </i>
   <i type="logical" name="LORBITALREAL"> F  </i>
  </separator>
  <separator name="miscellaneous" >
   <i type="int" name="IDIOT">     3</i>
   <i type="logical" name="LMUSIC"> F  </i>
   <v name="POMASS">    106.42000000</v>
   <v name="DARWINR">      0.00000000</v>
   <v name="DARWINV">      1.00000000</v>
   <i type="logical" name="LCORR"> T  </i>
  </separator>
  <i type="logical" name="GGA_COMPAT"> T  </i>
  <i type="logical" name="LBERRY"> F  </i>
  <i type="int" name="ICORELEVEL">     0</i>
  <i type="logical" name="LDAU"> F  </i>
  <i type="int" name="I_CONSTRAINED_M">     0</i>
  <separator name="electronic exchange-correlation" >
   <i type="string" name="GGA">--</i>
   <i type="int" name="VOSKOWN">     0</i>
   <i type="logical" name="LHFCALC"> F  </i>
   <i type="string" name="PRECFOCK"></i>
   <i type="logical" name="LSYMGRAD"> F  </i>
   <i type="logical" name="LHFONE"> F  </i>
   <i type="logical" name="LRHFCALC"> F  </i>
   <i type="logical" name="LTHOMAS"> F  </i>
   <i type="logical" name="LMODELHF"> F  </i>
   <i name="ENCUT4O">     -1.00000000</i>
   <i type="int" name="EXXOEP">     0</i>
   <i type="int" name="FOURORBIT">     0</i>
   <i name="AEXX">      0.00000000</i>
   <i name="HFALPHA">      0.00000000</i>
   <i name="MCALPHA">      0.00000000</i>
   <i name="ALDAX">      1.00000000</i>
   <i name="AGGAX">      1.00000000</i>
   <i name="ALDAC">      1.00000000</i>
   <i name="AGGAC">      1.00000000</i>
   <i type="int" name="NKREDX">     1</i>
   <i type="int" name="NKREDY">     1</i>
   <i type="int" name="NKREDZ">     1</i>
   <i type="logical" name="SHIFTRED"> F  </i>
   <i type="logical" name="ODDONLY"> F  </i>
   <i type="logical" name="EVENONLY"> F  </i>
   <i type="int" name="LMAXFOCK">     0</i>
   <i type="int" name="NMAXFOCKAE">     0</i>
   <i type="logical" name="LFOCKAEDFT"> F  </i>
   <i name="HFSCREEN">      0.00000000</i>
   <i name="HFSCREENC">      0.00000000</i>
   <i type="int" name="NBANDSGWLOW">     0</i>
  </separator>
  <separator name="vdW DFT" >
   <i type="logical" name="LUSE_VDW"> F  </i>
   <i name="Zab_VDW">     -0.84910000</i>
   <i name="PARAM1">      0.12340000</i>
   <i name="PARAM2">      1.00000000</i>
   <i name="PARAM3">      0.00000000</i>
  </separator>
  <separator name="model GW" >
   <i type="int" name="MODEL_GW">     0</i>
   <i name="MODEL_EPS0">      8.82958035</i>
   <i name="MODEL_ALPHA">      1.00000000</i>
  </separator>
  <separator name="linear response parameters" >
   <i type="logical" name="LEPSILON"> F  </i>
   <i type="logical" name="LRPA"> F  </i>
   <i type="logical" name="LNABLA"> F  </i>
   <i type="logical" name="LVEL"> F  </i>
   <i type="int" name="KINTER">     0</i>
   <i name="CSHIFT">      0.10000000</i>
   <i name="OMEGAMAX">     -1.00000000</i>
   <i name="DEG_THRESHOLD">      0.00200000</i>
  </separator>
  <separator name="orbital magnetization" >
   <i type="logical" name="NUCIND"> F  </i>
   <v name="MAGPOS">      0.00000000      0.00000000      0.00000000</v>
   <i type="logical" name="LNICSALL"> T  </i>
   <i type="logical" name="ORBITALMAG"> F  </i>
   <i type="logical" name="LMAGBLOCH"> F  </i>
   <i type="logical" name="LCHIMAG"> F  </i>
   <i type="logical" name="LGAUGE"> T  </i>
   <i type="int" name="MAGATOM">     0</i>
   <v name="MAGDIPOL">      0.00000000      0.00000000      0.00000000</v>
   <v name="AVECCONST">      0.00000000      0.00000000      0.00000000</v>
  </separator>
  <separator name="response functions" >
   <i type="logical" name="LADDER"> F  </i>
   <i type="logical" name="LFXC"> F  </i>
   <i type="logical" name="LHARTREE"> T  </i>
   <i type="int" name="IBSE">     0</i>
   <v type="int" name="KPOINT">    -1     0     0     0</v>
   <i type="logical" name="LTCTE"> F  </i>
   <i type="logical" name="LTETE"> F  </i>
   <i type="logical" name="LTRIPLET"> F  </i>
   <i type="logical" name="LFXCEPS"> F  </i>
   <i type="logical" name="LFXHEG"> F  </i>
   <i type="int" name="NATURALO">     0</i>
   <i type="logical" name="L2ORDER"> F  </i>
   <i type="logical" name="LUSEW"> F  </i>
   <i name="ENCUTGW">     -2.00000000</i>
   <i name="ENCUTGWSOFT">     -2.00000000</i>
   <i name="ENCUTLF">     -1.00000000</i>
   <i type="int" name="LMAXMP2">    -1</i>
   <i name="SCISSOR">      0.00000000</i>
   <i type="int" name="NOMEGA">     0</i>
   <i type="int" name="NOMEGAR">     0</i>
   <i type="int" name="NBANDSGW">    -1</i>
   <i type="int" name="NBANDSO">    -1</i>
   <i type="int" name="NBANDSV">    -1</i>
   <i type="int" name="NELM">     1</i>
   <i type="int" name="NELMHF">     1</i>
   <i type="int" name="DIM">     3</i>
   <i type="int" name="ANTIRES">     0</i>
   <i name="OMEGAMAX">    -30.00000000</i>
   <i name="OMEGAMIN">    -30.00000000</i>
   <i name="OMEGATL">   -200.00000000</i>
   <i type="int" name="OMEGAGRID">     0</i>
   <i name="CSHIFT">     -0.10000000</i>
   <i type="logical" name="SELFENERGY"> F  </i>
   <i type="logical" name="LSPECTRAL"> F  </i>
   <i type="logical" name="LSPECTRALGW"> F  </i>
   <i type="logical" name="LSINGLES"> F  </i>
   <i type="logical" name="LFERMIGW"> F  </i>
   <i type="logical" name="ODDONLYGW"> F  </i>
   <i type="logical" name="EVENONLYGW"> F  </i>
   <i type="int" name="NKREDLFX">     1</i>
   <i type="int" name="NKREDLFY">     1</i>
   <i type="int" name="NKREDLFZ">     1</i>
   <i type="int" name="MAXMEM">  1800</i>
   <i type="int" name="TELESCOPE">     0</i>
   <i type="int" name="TAUPAR">     1</i>
   <i type="int" name="OMEGAPAR">    -1</i>
   <i name="LAMBDA">      1.00000000</i>
  </separator>
  <separator name="External order field" >
   <i name="OFIELD_KAPPA">      0.00000000</i>
   <v name="OFIELD_K">      0.00000000      0.00000000      0.00000000</v>
   <i name="OFIELD_Q6_NEAR">      0.00000000</i>
   <i name="OFIELD_Q6_FAR">      0.00000000</i>
   <i name="OFIELD_A">      0.00000000</i>
  </separator>
 </parameters>
 <atominfo>
  <atoms>       4 </atoms>
  <types>       1 </types>
  <array name="atoms" >
   <dimension dim="1">ion</dimension>
   <field type="string">element</field>
   <field type="int">atomtype</field>
   <set>
    <rc><c>Pd</c><c>   1</c></rc>
    <rc><c>Pd</c><c>   1</c></rc>
    <rc><c>Pd</c><c>   1</c></rc>
    <rc><c>Pd</c><c>   1</c></rc>
   </set>
  </array>
  <array name="atomtypes" >
   <dimension dim="1">type</dimension>
   <field type="int">atomspertype</field>
   <field type="string">element</field>
   <field>mass</field>
   <field>valence</field>
   <field type="string">pseudopotential</field>
   <set>
    <rc><c>   4</c><c>Pd</c><c>    106.42000000</c><c>     10.00000000</c><c>  PAW_PBE Pd 04Jan2005                  </c></rc>
   </set>
  </array>
 </atominfo>
 <structure name="initialpos" >
  <crystal>
   <varray name="basis" >
    <v>       3.89000000       0.00000000       0.00000000 </v>
    <v>       0.00000000       3.89000000       0.00000000 </v>
    <v>       0.00000000       0.00000000       3.89000000 </v>
   </varray>
   <i name="volume">     58.86386900 </i>
   <varray name="rec_basis" >
    <v>       0.25706941       0.00000000       0.00000000 </v>
    <v>       0.00000000       0.25706941       0.00000000 </v>
    <v>       0.00000000       0.00000000       0.25706941 </v>
   </varray>
  </crystal>
  <varray name="positions" >
   <v>       0.00000000       0.00000000       0.00000000 </v>
   <v>       0.00000000       0.50000000       0.50000000 </v>
   <v>       0.50000000       0.00000000       0.50000000 </v>
   <v>       0.50000000       0.50000000       0.00000000 </v>
  </varray>
 </structure>
 <calculation>
  <scstep>
   <time name="dav">    0.61    0.61</time>
   <time name="total">    1.42    1.65</time>
   <energy>
    <i name="alphaZ">    177.15512380 </i>
    <i name="ewald">  -3394.39787954 </i>
    <i name="hartreedc">   -490.86475040 </i>
    <i name="XCdc">   -116.42890961 </i>
    <i name="pawpsdc">   3226.95325816 </i>
    <i name="pawaedc">  -2978.06409795 </i>
    <i name="eentropy">     -0.00124948 </i>
    <i name="bandstr">    482.15493287 </i>
    <i name="atom">   3238.97557032 </i>
    <i name="e_fr_energy">    145.48199816 </i>
    <i name="e_wo_entrp">    145.48324764 </i>
    <i name="e_0_energy">    145.48241465 </i>
   </energy>
  </scstep>
  <scstep>
   <time name="dav">    0.20    0.20</time>
   <time name="total">    0.20    0.20</time>
   <energy>
    <i name="e_fr_energy">    -21.06092583 </i>
    <i name="e_wo_entrp">    -21.05817424 </i>
    <i name="e_0_energy">    -21.06000863 </i>
   </energy>
  </scstep>
  <scstep>
   <time name="dav">    0.11    0.11</time>
   <time name="total">    0.12    0.12</time>
   <energy>
    <i name="e_fr_energy">    -21.90214519 </i>
    <i name="e_wo_entrp">    -21.89669263 </i>
    <i name="e_0_energy">    -21.90032767 </i>
   </energy>
  </scstep>
  <scstep>
   <time name="dav">    0.14    0.14</time>
   <time name="total">    0.14    0.15</time>
   <energy>
    <i name="e_fr_energy">    -21.90637976 </i>
    <i name="e_wo_entrp">    -21.90093172 </i>
    <i name="e_0_energy">    -21.90456374 </i>
   </energy>
  </scstep>
  <scstep>
   <time name="dav">    0.12    0.12</time>
   <time name="total">    0.13    0.13</time>
   <energy>
    <i name="e_fr_energy">    -21.90641474 </i>
    <i name="e_wo_entrp">    -21.90096658 </i>
    <i name="e_0_energy">    -21.90459869 </i>
   </energy>
  </scstep>
  <scstep>
   <time name="dav">    0.12    0.12</time>
   <time name="total">    0.13    0.13</time>
   <energy>
    <i name="e_fr_energy">    -20.86242694 </i>
    <i name="e_wo_entrp">    -20.85978063 </i>
    <i name="e_0_energy">    -20.86154483 </i>
   </energy>
  </scstep>
  <scstep>
   <time name="dav">    0.12    0.12</time>
   <time name="total">    0.14    0.14</time>
   <energy>
    <i name="e_fr_energy">    -20.81748518 </i>
    <i name="e_wo_entrp">    -20.81473145 </i>
    <i name="e_0_energy">    -20.81656727 </i>
   </energy>
  </scstep>
  <scstep>
   <time name="dav">    0.12    0.12</time>
   <time name="total">    0.13    0.13</time>
   <energy>
    <i name="e_fr_energy">    -20.80453180 </i>
    <i name="e_wo_entrp">    -20.80177635 </i>
    <i name="e_0_energy">    -20.80361332 </i>
   </energy>
  </scstep>
  <scstep>
   <time name="dav">    0.07    0.07</time>
   <time name="total">    0.08    0.08</time>
   <energy>
    <i name="alphaZ">    177.15512380 </i>
    <i name="ewald">  -3394.39787954 </i>
    <i name="hartreedc">   -450.96622633 </i>
    <i name="XCdc">   -117.54978984 </i>
    <i name="pawpsdc">   3902.51600247 </i>
    <i name="pawaedc">  -3664.93185387 </i>
    <i name="eentropy">     -0.00275421 </i>
    <i name="bandstr">    288.39727472 </i>
    <i name="atom">   3238.97557032 </i>
    <i name="e_fr_energy">    -20.80453249 </i>
    <i name="e_wo_entrp">    -20.80177828 </i>
    <i name="e_0_energy">    -20.80361442 </i>
   </energy>
  </scstep>
  <structure>
   <crystal>
    <varray name="basis" >
     <v>       3.89000000       0.00000000       0.00000000 </v>
     <v>       0.00000000       3.89000000       0.00000000 </v>
     <v>       0.00000000       0.00000000       3.89000000 </v>
    </varray>
    <i name="volume">     58.86386900 </i>
    <varray name="rec_basis" >
     <v>       0.25706941       0.00000000       0.00000000 </v>
     <v>       0.00000000       0.25706941       0.00000000 </v>
     <v>       0.00000000       0.00000000       0.25706941 </v>
    </varray>
   </crystal>
   <varray name="positions" >
    <v>       0.00000000       0.00000000       0.00000000 </v>
    <v>       0.00000000       0.50000000       0.50000000 </v>
    <v>       0.50000000       0.00000000       0.50000000 </v>
    <v>       0.50000000       0.50000000       0.00000000 </v>
   </varray>
  </structure>
  <varray name="forces" >
   <v>      -0.00000000       0.00000000       0.00000000 </v>
   <v>      -0.00000000      -0.00000000       0.00000000 </v>
   <v>       0.00000000       0.00000000      -0.00000000 </v>
   <v>       0.00000000      -0.00000000       0.00000000 </v>
  </varray>
  <varray name="stress" >
   <v>      67.61409616      -0.00000000      -0.00000000 </v>
   <v>       0.00000000      67.61409616       0.00000000 </v>
   <v>      -0.00000000       0.00000000      67.61409616 </v>
  </varray>
  <energy>
   <i name="e_fr_energy">    -20.80453249 </i>
   <i name="e_wo_entrp">    -20.80361442 </i>
   <i name="e_0_energy">     -0.00275421 </i>
  </energy>
  <time name="totalsc">    2.77    3.11</time>
  <eigenvalues>
   <array>
    <dimension dim="1">band</dimension>
    <dimension dim="2">kpoint</dimension>
    <dimension dim="3">spin</dimension>
    <field>eigene</field>
    <field>occ</field>
    <set>
     <set comment="spin 1">
      <set comment="kpoint 1">
       <r>    2.8072    1.0000 </r>
       <r>    4.4985    1.0000 </r>
       <r>    4.4985    1.0000 </r>
       <r>    4.4985    1.0000 </r>
       <r>    4.7814    1.0000 </r>
       <r>    4.7814    1.0000 </r>
       <r>    4.7814    1.0000 </r>
       <r>    6.9318    1.0000 </r>
       <r>    7.0319    1.0000 </r>
       <r>    7.0319    1.0000 </r>
       <r>    8.5769    1.0000 </r>
       <r>    8.5769    1.0000 </r>
       <r>    9.6797    1.0306 </r>
       <r>    9.6797    1.0306 </r>
       <r>    9.6797    1.0306 </r>
       <r>    9.7692    0.8884 </r>
       <r>    9.7692    0.8884 </r>
       <r>    9.7692    0.8884 </r>
       <r>   10.0663   -0.0015 </r>
       <r>   10.0663   -0.0015 </r>
       <r>   10.0663   -0.0015 </r>
       <r>   13.3337    0.0000 </r>
       <r>   13.3337    0.0000 </r>
       <r>   13.3337    0.0000 </r>
      </set>
      <set comment="kpoint 2">
       <r>    3.1742    1.0000 </r>
       <r>    4.6707    1.0000 </r>
       <r>    4.7198    1.0000 </r>
       <r>    4.7198    1.0000 </r>
       <r>    4.9233    1.0000 </r>
       <r>    5.0096    1.0000 </r>
       <r>    5.0096    1.0000 </r>
       <r>    6.7527    1.0000 </r>
       <r>    7.1831    1.0000 </r>
       <r>    7.1889    1.0000 </r>
       <r>    8.3820    1.0000 </r>
       <r>    8.6706    1.0000 </r>
       <r>    8.8690    1.0000 </r>
       <r>    8.8690    1.0000 </r>
       <r>    9.3814    1.0000 </r>
       <r>    9.4264    1.0000 </r>
       <r>    9.4264    1.0000 </r>
       <r>    9.4583    1.0000 </r>
       <r>    9.8746    0.1195 </r>
       <r>   10.0447   -0.0037 </r>
       <r>   10.0447   -0.0037 </r>
       <r>   11.9200   -0.0000 </r>
       <r>   14.4663    0.0000 </r>
       <r>   14.4663    0.0000 </r>
      </set>
      <set comment="kpoint 3">
       <r>    3.8480    1.0000 </r>
       <r>    4.9345    1.0000 </r>
       <r>    5.1042    1.0000 </r>
       <r>    5.1042    1.0000 </r>
       <r>    5.1945    1.0000 </r>
       <r>    5.4443    1.0000 </r>
       <r>    5.4443    1.0000 </r>
       <r>    6.4102    1.0000 </r>
       <r>    7.4666    1.0000 </r>
       <r>    7.4952    1.0000 </r>
       <r>    7.8108    1.0000 </r>
       <r>    7.8108    1.0000 </r>
       <r>    8.1240    1.0000 </r>
       <r>    8.6979    1.0000 </r>
       <r>    8.8469    1.0000 </r>
       <r>    8.9729    1.0000 </r>
       <r>    8.9729    1.0000 </r>
       <r>    9.0117    1.0000 </r>
       <r>    9.6219    1.0078 </r>
       <r>   10.0367   -0.0050 </r>
       <r>   10.0367   -0.0050 </r>
       <r>   10.2909   -0.0000 </r>
       <r>   15.9645    0.0000 </r>
       <r>   15.9645    0.0000 </r>
      </set>
      <set comment="kpoint 4">
       <r>    4.6300    1.0000 </r>
       <r>    5.0513    1.0000 </r>
       <r>    5.4738    1.0000 </r>
       <r>    5.4738    1.0000 </r>
       <r>    5.5646    1.0000 </r>
       <r>    5.9894    1.0000 </r>
       <r>    6.0461    1.0000 </r>
       <r>    6.0461    1.0000 </r>
       <r>    6.8497    1.0000 </r>
       <r>    6.8497    1.0000 </r>
       <r>    7.5944    1.0000 </r>
       <r>    7.9281    1.0000 </r>
       <r>    7.9322    1.0000 </r>
       <r>    8.3101    1.0000 </r>
       <r>    8.4619    1.0000 </r>
       <r>    8.5679    1.0000 </r>
       <r>    8.5679    1.0000 </r>
       <r>    9.0650    1.0000 </r>
       <r>    9.0839    1.0000 </r>
       <r>    9.3522    1.0000 </r>
       <r>   10.0343   -0.0054 </r>
       <r>   10.0343   -0.0054 </r>
       <r>   17.5067    0.0000 </r>
       <r>   17.5067    0.0000 </r>
      </set>
      <set comment="kpoint 5">
       <r>    3.5142    1.0000 </r>
       <r>    4.8558    1.0000 </r>
       <r>    4.8912    1.0000 </r>
       <r>    4.8912    1.0000 </r>
       <r>    5.1464    1.0000 </r>
       <r>    5.1464    1.0000 </r>
       <r>    5.2802    1.0000 </r>
       <r>    6.6922    1.0000 </r>
       <r>    7.2447    1.0000 </r>
       <r>    7.2701    1.0000 </r>
       <r>    8.3513    1.0000 </r>
       <r>    8.4368    1.0000 </r>
       <r>    8.4368    1.0000 </r>
       <r>    8.4407    1.0000 </r>
       <r>    8.6933    1.0000 </r>
       <r>    9.1445    1.0000 </r>
       <r>    9.2972    1.0000 </r>
       <r>    9.2972    1.0000 </r>
       <r>    9.8440    0.3241 </r>
       <r>    9.8440    0.3241 </r>
       <r>    9.8849    0.0703 </r>
       <r>   12.9762    0.0000 </r>
       <r>   12.9762    0.0000 </r>
       <r>   15.3506    0.0000 </r>
      </set>
      <set comment="kpoint 6">
       <r>    4.1343    1.0000 </r>
       <r>    5.1475    1.0000 </r>
       <r>    5.1625    1.0000 </r>
       <r>    5.2806    1.0000 </r>
       <r>    5.4143    1.0000 </r>
       <r>    5.5618    1.0000 </r>
       <r>    5.7036    1.0000 </r>
       <r>    6.4529    1.0000 </r>
       <r>    7.3675    1.0000 </r>
       <r>    7.4587    1.0000 </r>
       <r>    7.4930    1.0000 </r>
       <r>    7.6611    1.0000 </r>
       <r>    7.8297    1.0000 </r>
       <r>    8.2251    1.0000 </r>
       <r>    8.7832    1.0000 </r>
       <r>    8.8827    1.0000 </r>
       <r>    8.9506    1.0000 </r>
       <r>    8.9563    1.0000 </r>
       <r>    9.5519    1.0004 </r>
       <r>    9.7644    0.9120 </r>
       <r>    9.7731    0.8674 </r>
       <r>   11.3158   -0.0000 </r>
       <r>   14.2670    0.0000 </r>
       <r>   16.6471    0.0000 </r>
      </set>
      <set comment="kpoint 7">
       <r>    4.8579    1.0000 </r>
       <r>    5.2637    1.0000 </r>
       <r>    5.5864    1.0000 </r>
       <r>    5.6859    1.0000 </r>
       <r>    5.7556    1.0000 </r>
       <r>    6.0553    1.0000 </r>
       <r>    6.0860    1.0000 </r>
       <r>    6.1109    1.0000 </r>
       <r>    6.6886    1.0000 </r>
       <r>    6.8693    1.0000 </r>
       <r>    7.2600    1.0000 </r>
       <r>    7.3112    1.0000 </r>
       <r>    7.8734    1.0000 </r>
       <r>    8.3553    1.0000 </r>
       <r>    8.4761    1.0000 </r>
       <r>    8.5054    1.0000 </r>
       <r>    8.5532    1.0000 </r>
       <r>    9.0946    1.0000 </r>
       <r>    9.3796    1.0000 </r>
       <r>    9.7304    1.0151 </r>
       <r>    9.7304    1.0150 </r>
       <r>   10.0724   -0.0012 </r>
       <r>   15.5498    0.0000 </r>
       <r>   16.7731    0.0000 </r>
      </set>
      <set comment="kpoint 8">
       <r>    4.6405    1.0000 </r>
       <r>    5.3534    1.0000 </r>
       <r>    5.5113    1.0000 </r>
       <r>    5.5113    1.0000 </r>
       <r>    5.8307    1.0000 </r>
       <r>    5.8307    1.0000 </r>
       <r>    6.0733    1.0000 </r>
       <r>    6.4408    1.0000 </r>
       <r>    7.0061    1.0000 </r>
       <r>    7.0061    1.0000 </r>
       <r>    7.2995    1.0000 </r>
       <r>    7.3148    1.0000 </r>
       <r>    7.5879    1.0000 </r>
       <r>    8.1375    1.0000 </r>
       <r>    8.4816    1.0000 </r>
       <r>    8.6866    1.0000 </r>
       <r>    8.6866    1.0000 </r>
       <r>    9.3599    1.0000 </r>
       <r>    9.3599    1.0000 </r>
       <r>    9.4115    1.0000 </r>
       <r>    9.4853    1.0000 </r>
       <r>   12.4923   -0.0000 </r>
       <r>   12.4923   -0.0000 </r>
       <r>   16.3268    0.0000 </r>
      </set>
      <set comment="kpoint 9">
       <r>    5.2140    1.0000 </r>
       <r>    5.5715    1.0000 </r>
       <r>    5.6934    1.0000 </r>
       <r>    5.9448    1.0000 </r>
       <r>    6.1207    1.0000 </r>
       <r>    6.1496    1.0000 </r>
       <r>    6.2708    1.0000 </r>
       <r>    6.3176    1.0000 </r>
       <r>    6.5589    1.0000 </r>
       <r>    6.7757    1.0000 </r>
       <r>    6.8728    1.0000 </r>
       <r>    7.0591    1.0000 </r>
       <r>    7.8262    1.0000 </r>
       <r>    8.2362    1.0000 </r>
       <r>    8.2516    1.0000 </r>
       <r>    8.3462    1.0000 </r>
       <r>    8.3705    1.0000 </r>
       <r>    8.8623    1.0000 </r>
       <r>    9.2698    1.0000 </r>
       <r>    9.3098    1.0000 </r>
       <r>   10.1084   -0.0002 </r>
       <r>   11.0888   -0.0000 </r>
       <r>   13.6853    0.0000 </r>
       <r>   14.9299    0.0000 </r>
      </set>
      <set comment="kpoint 10">
       <r>    5.5436    1.0000 </r>
       <r>    5.7774    1.0000 </r>
       <r>    5.7901    1.0000 </r>
       <r>    5.7901    1.0000 </r>
       <r>    6.4327    1.0000 </r>
       <r>    6.4584    1.0000 </r>
       <r>    6.4584    1.0000 </r>
       <r>    6.4733    1.0000 </r>
       <r>    6.6613    1.0000 </r>
       <r>    6.6613    1.0000 </r>
       <r>    6.8707    1.0000 </r>
       <r>    6.9741    1.0000 </r>
       <r>    7.7650    1.0000 </r>
       <r>    7.9856    1.0000 </r>
       <r>    8.0159    1.0000 </r>
       <r>    8.0159    1.0000 </r>
       <r>    8.3900    1.0000 </r>
       <r>    8.7749    1.0000 </r>
       <r>    8.7749    1.0000 </r>
       <r>    8.9461    1.0000 </r>
       <r>   11.0316   -0.0000 </r>
       <r>   12.1843   -0.0000 </r>
       <r>   12.1843   -0.0000 </r>
       <r>   13.4228    0.0000 </r>
      </set>
      <set comment="kpoint 11">
       <r>    3.8007    1.0000 </r>
       <r>    4.9861    1.0000 </r>
       <r>    4.9861    1.0000 </r>
       <r>    4.9861    1.0000 </r>
       <r>    5.4376    1.0000 </r>
       <r>    5.4376    1.0000 </r>
       <r>    5.4376    1.0000 </r>
       <r>    6.7383    1.0000 </r>
       <r>    7.2700    1.0000 </r>
       <r>    7.2700    1.0000 </r>
       <r>    8.1022    1.0000 </r>
       <r>    8.1022    1.0000 </r>
       <r>    8.1022    1.0000 </r>
       <r>    8.5588    1.0000 </r>
       <r>    8.5588    1.0000 </r>
       <r>    8.7953    1.0000 </r>
       <r>    8.7953    1.0000 </r>
       <r>    8.7953    1.0000 </r>
       <r>    9.9399   -0.0350 </r>
       <r>    9.9399   -0.0350 </r>
       <r>    9.9399   -0.0350 </r>
       <r>   13.6857    0.0000 </r>
       <r>   13.6857    0.0000 </r>
       <r>   13.6857    0.0000 </r>
      </set>
      <set comment="kpoint 12">
       <r>    4.3058    1.0000 </r>
       <r>    5.1504    1.0000 </r>
       <r>    5.2475    1.0000 </r>
       <r>    5.2475    1.0000 </r>
       <r>    5.7599    1.0000 </r>
       <r>    5.8431    1.0000 </r>
       <r>    5.8431    1.0000 </r>
       <r>    6.6624    1.0000 </r>
       <r>    7.3155    1.0000 </r>
       <r>    7.3732    1.0000 </r>
       <r>    7.4404    1.0000 </r>
       <r>    7.4404    1.0000 </r>
       <r>    7.5798    1.0000 </r>
       <r>    8.3477    1.0000 </r>
       <r>    8.5123    1.0000 </r>
       <r>    8.5123    1.0000 </r>
       <r>    8.5242    1.0000 </r>
       <r>    8.8959    1.0000 </r>
       <r>    9.8241    0.4880 </r>
       <r>    9.8241    0.4880 </r>
       <r>    9.8597    0.2092 </r>
       <r>   11.8215   -0.0000 </r>
       <r>   14.7122    0.0000 </r>
       <r>   14.7122    0.0000 </r>
      </set>
      <set comment="kpoint 13">
       <r>    4.8614    1.0000 </r>
       <r>    5.1783    1.0000 </r>
       <r>    5.6456    1.0000 </r>
       <r>    5.6456    1.0000 </r>
       <r>    6.0109    1.0000 </r>
       <r>    6.0109    1.0000 </r>
       <r>    6.1692    1.0000 </r>
       <r>    6.4713    1.0000 </r>
       <r>    7.0017    1.0000 </r>
       <r>    7.0017    1.0000 </r>
       <r>    7.1535    1.0000 </r>
       <r>    7.1618    1.0000 </r>
       <r>    7.5910    1.0000 </r>
       <r>    7.9256    1.0000 </r>
       <r>    8.2678    1.0000 </r>
       <r>    8.2678    1.0000 </r>
       <r>    9.0737    1.0000 </r>
       <r>    9.2766    1.0000 </r>
       <r>    9.6220    1.0078 </r>
       <r>    9.7073    1.0346 </r>
       <r>    9.7073    1.0346 </r>
       <r>   10.2264   -0.0000 </r>
       <r>   15.6779    0.0000 </r>
       <r>   15.6779    0.0000 </r>
      </set>
      <set comment="kpoint 14">
       <r>    4.5931    1.0000 </r>
       <r>    5.2866    1.0000 </r>
       <r>    5.2866    1.0000 </r>
       <r>    5.3204    1.0000 </r>
       <r>    6.1490    1.0000 </r>
       <r>    6.1683    1.0000 </r>
       <r>    6.1683    1.0000 </r>
       <r>    6.9273    1.0000 </r>
       <r>    7.1701    1.0000 </r>
       <r>    7.1701    1.0000 </r>
       <r>    7.2833    1.0000 </r>
       <r>    7.3234    1.0000 </r>
       <r>    7.3678    1.0000 </r>
       <r>    8.1060    1.0000 </r>
       <r>    8.1144    1.0000 </r>
       <r>    8.1144    1.0000 </r>
       <r>    8.5923    1.0000 </r>
       <r>    9.2511    1.0000 </r>
       <r>    9.7249    1.0227 </r>
       <r>    9.7639    0.9146 </r>
       <r>    9.7639    0.9146 </r>
       <r>   12.7117    0.0000 </r>
       <r>   12.7117    0.0000 </r>
       <r>   15.1706    0.0000 </r>
      </set>
      <set comment="kpoint 15">
       <r>    4.9126    1.0000 </r>
       <r>    5.1720    1.0000 </r>
       <r>    5.4597    1.0000 </r>
       <r>    5.4654    1.0000 </r>
       <r>    6.2360    1.0000 </r>
       <r>    6.2523    1.0000 </r>
       <r>    6.6373    1.0000 </r>
       <r>    6.9828    1.0000 </r>
       <r>    7.0127    1.0000 </r>
       <r>    7.0943    1.0000 </r>
       <r>    7.1869    1.0000 </r>
       <r>    7.3427    1.0000 </r>
       <r>    7.4462    1.0000 </r>
       <r>    7.7281    1.0000 </r>
       <r>    7.8889    1.0000 </r>
       <r>    7.9401    1.0000 </r>
       <r>    8.9428    1.0000 </r>
       <r>    9.4752    1.0000 </r>
       <r>    9.5728    1.0012 </r>
       <r>    9.5834    1.0018 </r>
       <r>    9.9289   -0.0304 </r>
       <r>   11.0492   -0.0000 </r>
       <r>   13.7211    0.0000 </r>
       <r>   14.7107    0.0000 </r>
      </set>
      <set comment="kpoint 16">
       <r>    5.0326    1.0000 </r>
       <r>    5.2236    1.0000 </r>
       <r>    5.2236    1.0000 </r>
       <r>    5.3141    1.0000 </r>
       <r>    6.4718    1.0000 </r>
       <r>    6.6148    1.0000 </r>
       <r>    6.6148    1.0000 </r>
       <r>    6.8824    1.0000 </r>
       <r>    7.3674    1.0000 </r>
       <r>    7.3674    1.0000 </r>
       <r>    7.3692    1.0000 </r>
       <r>    7.5355    1.0000 </r>
       <r>    7.5925    1.0000 </r>
       <r>    7.6028    1.0000 </r>
       <r>    7.6518    1.0000 </r>
       <r>    7.6518    1.0000 </r>
       <r>    8.9021    1.0000 </r>
       <r>    9.2643    1.0000 </r>
       <r>    9.2643    1.0000 </r>
       <r>    9.3360    1.0000 </r>
       <r>   10.8487   -0.0000 </r>
       <r>   12.0754   -0.0000 </r>
       <r>   12.0754   -0.0000 </r>
       <r>   13.2848    0.0000 </r>
      </set>
      <set comment="kpoint 17">
       <r>    4.6019    1.0000 </r>
       <r>    5.1550    1.0000 </r>
       <r>    5.1550    1.0000 </r>
       <r>    5.1550    1.0000 </r>
       <r>    6.4014    1.0000 </r>
       <r>    6.4014    1.0000 </r>
       <r>    6.4014    1.0000 </r>
       <r>    7.1794    1.0000 </r>
       <r>    7.1794    1.0000 </r>
       <r>    7.4995    1.0000 </r>
       <r>    7.4995    1.0000 </r>
       <r>    7.4995    1.0000 </r>
       <r>    7.6949    1.0000 </r>
       <r>    7.6949    1.0000 </r>
       <r>    7.6949    1.0000 </r>
       <r>    7.7227    1.0000 </r>
       <r>    9.0842    1.0000 </r>
       <r>    9.0842    1.0000 </r>
       <r>    9.8624    0.1913 </r>
       <r>    9.8624    0.1913 </r>
       <r>    9.8624    0.1913 </r>
       <r>   13.1105    0.0000 </r>
       <r>   13.1105    0.0000 </r>
       <r>   13.1105    0.0000 </r>
      </set>
      <set comment="kpoint 18">
       <r>    4.7142    1.0000 </r>
       <r>    4.9179    1.0000 </r>
       <r>    5.1012    1.0000 </r>
       <r>    5.1012    1.0000 </r>
       <r>    6.4670    1.0000 </r>
       <r>    6.4670    1.0000 </r>
       <r>    6.7450    1.0000 </r>
       <r>    7.0230    1.0000 </r>
       <r>    7.1958    1.0000 </r>
       <r>    7.3745    1.0000 </r>
       <r>    7.4953    1.0000 </r>
       <r>    7.4953    1.0000 </r>
       <r>    7.7299    1.0000 </r>
       <r>    7.8591    1.0000 </r>
       <r>    7.8591    1.0000 </r>
       <r>    7.9886    1.0000 </r>
       <r>    9.5111    1.0000 </r>
       <r>    9.6959    1.0352 </r>
       <r>    9.7457    0.9819 </r>
       <r>    9.7457    0.9819 </r>
       <r>    9.7900    0.7610 </r>
       <r>   11.2115   -0.0000 </r>
       <r>   13.4700    0.0000 </r>
       <r>   13.4700    0.0000 </r>
      </set>
      <set comment="kpoint 19">
       <r>    4.6836    1.0000 </r>
       <r>    4.8206    1.0000 </r>
       <r>    4.8206    1.0000 </r>
       <r>    4.8825    1.0000 </r>
       <r>    6.6650    1.0000 </r>
       <r>    6.7535    1.0000 </r>
       <r>    6.7535    1.0000 </r>
       <r>    6.9690    1.0000 </r>
       <r>    7.0869    1.0000 </r>
       <r>    7.2104    1.0000 </r>
       <r>    7.2104    1.0000 </r>
       <r>    7.2466    1.0000 </r>
       <r>    8.3624    1.0000 </r>
       <r>    8.3624    1.0000 </r>
       <r>    8.3726    1.0000 </r>
       <r>    8.6633    1.0000 </r>
       <r>    9.3799    1.0000 </r>
       <r>    9.6727    1.0277 </r>
       <r>    9.6727    1.0277 </r>
       <r>    9.6744    1.0284 </r>
       <r>   10.4793   -0.0000 </r>
       <r>   11.8197   -0.0000 </r>
       <r>   11.8197   -0.0000 </r>
       <r>   12.6908    0.0000 </r>
      </set>
      <set comment="kpoint 20">
       <r>    4.5426    1.0000 </r>
       <r>    4.6133    1.0000 </r>
       <r>    4.6133    1.0000 </r>
       <r>    4.6133    1.0000 </r>
       <r>    6.8580    1.0000 </r>
       <r>    6.8580    1.0000 </r>
       <r>    6.8580    1.0000 </r>
       <r>    6.9671    1.0000 </r>
       <r>    6.9671    1.0000 </r>
       <r>    7.0230    1.0000 </r>
       <r>    7.0230    1.0000 </r>
       <r>    7.0230    1.0000 </r>
       <r>    9.1389    1.0000 </r>
       <r>    9.1389    1.0000 </r>
       <r>    9.1389    1.0000 </r>
       <r>    9.7090    1.0341 </r>
       <r>    9.7090    1.0341 </r>
       <r>    9.8149    0.5653 </r>
       <r>    9.8149    0.5653 </r>
       <r>    9.8149    0.5653 </r>
       <r>   10.2096   -0.0000 </r>
       <r>   11.4957   -0.0000 </r>
       <r>   11.4957   -0.0000 </r>
       <r>   11.4957   -0.0000 </r>
      </set>
     </set>
    </set>
   </array>
  </eigenvalues>
  <separator name="orbital magnetization" >
   <v name="MAGDIPOLOUT">      0.00000000      0.00000000      0.00000000</v>
  </separator>
  <dos>
   <i name="efermi">      9.82265128 </i>
   <total>
    <array>
     <dimension dim="1">gridpoints</dimension>
     <dimension dim="2">spin</dimension>
     <field>energy</field>
     <field>total</field>
     <field>integrated</field>
     <set>
      <set comment="spin 1">
       <r>     1.8072     0.0000     0.0000 </r>
       <r>     1.8628     0.0000     0.0000 </r>
       <r>     1.9185     0.0000     0.0000 </r>
       <r>     1.9741    -0.0000    -0.0000 </r>
       <r>     2.0298    -0.0000    -0.0000 </r>
       <r>     2.0855    -0.0000    -0.0000 </r>
       <r>     2.1411    -0.0000    -0.0000 </r>
       <r>     2.1968    -0.0000    -0.0000 </r>
       <r>     2.2525    -0.0000    -0.0000 </r>
       <r>     2.3081    -0.0000    -0.0000 </r>
       <r>     2.3638    -0.0000    -0.0000 </r>
       <r>     2.4195    -0.0000    -0.0000 </r>
       <r>     2.4751    -0.0000    -0.0000 </r>
       <r>     2.5308    -0.0002    -0.0000 </r>
       <r>     2.5865    -0.0020    -0.0001 </r>
       <r>     2.6421    -0.0095    -0.0006 </r>
       <r>     2.6978    -0.0065    -0.0010 </r>
       <r>     2.7535     0.0801     0.0034 </r>
       <r>     2.8091     0.2281     0.0161 </r>
       <r>     2.8648     0.2202     0.0284 </r>
       <r>     2.9205     0.0685     0.0322 </r>
       <r>     2.9761    -0.0211     0.0310 </r>
       <r>     3.0318    -0.0464     0.0285 </r>
       <r>     3.0874     0.0411     0.0308 </r>
       <r>     3.1431     0.4306     0.0547 </r>
       <r>     3.1988     0.7590     0.0970 </r>
       <r>     3.2544     0.4865     0.1241 </r>
       <r>     3.3101     0.0611     0.1275 </r>
       <r>     3.3658    -0.0743     0.1233 </r>
       <r>     3.4214     0.0058     0.1236 </r>
       <r>     3.4771     0.3766     0.1446 </r>
       <r>     3.5328     0.7498     0.1863 </r>
       <r>     3.5884     0.5341     0.2161 </r>
       <r>     3.6441     0.0809     0.2206 </r>
       <r>     3.6998    -0.0744     0.2164 </r>
       <r>     3.7554     0.1065     0.2224 </r>
       <r>     3.8111     0.6190     0.2568 </r>
       <r>     3.8668     0.9497     0.3097 </r>
       <r>     3.9224     0.5709     0.3415 </r>
       <r>     3.9781     0.0246     0.3428 </r>
       <r>     4.0338    -0.0487     0.3401 </r>
       <r>     4.0894     0.5963     0.3733 </r>
       <r>     4.1451     1.4193     0.4523 </r>
       <r>     4.2008     1.1884     0.5185 </r>
       <r>     4.2564     0.5706     0.5502 </r>
       <r>     4.3121     0.6194     0.5847 </r>
       <r>     4.3677     0.5329     0.6144 </r>
       <r>     4.4234     0.1897     0.6249 </r>
       <r>     4.4791     0.3804     0.6461 </r>
       <r>     4.5347     1.1333     0.7092 </r>
       <r>     4.5904     2.5548     0.8514 </r>
       <r>     4.6461     4.3387     1.0929 </r>
       <r>     4.7017     4.8992     1.3656 </r>
       <r>     4.7574     4.0593     1.5916 </r>
       <r>     4.8131     4.4868     1.8413 </r>
       <r>     4.8687     7.3720     2.2517 </r>
       <r>     4.9244     8.6708     2.7344 </r>
       <r>     4.9801     6.3761     3.0893 </r>
       <r>     5.0357     4.4324     3.3360 </r>
       <r>     5.0914     6.0001     3.6700 </r>
       <r>     5.1471    10.3476     4.2460 </r>
       <r>     5.2027    13.1546     4.9783 </r>
       <r>     5.2584    12.3856     5.6677 </r>
       <r>     5.3141     9.2101     6.1804 </r>
       <r>     5.3697     5.5981     6.4920 </r>
       <r>     5.4254     5.9013     6.8205 </r>
       <r>     5.4810     8.7575     7.3080 </r>
       <r>     5.5367     9.2637     7.8237 </r>
       <r>     5.5924     7.9018     8.2635 </r>
       <r>     5.6480     6.6359     8.6329 </r>
       <r>     5.7037     6.8237     9.0128 </r>
       <r>     5.7594     7.4930     9.4299 </r>
       <r>     5.8150     6.9182     9.8150 </r>
       <r>     5.8707     4.6941    10.0762 </r>
       <r>     5.9264     2.5929    10.2206 </r>
       <r>     5.9820     3.2117    10.3994 </r>
       <r>     6.0377     6.1710    10.7429 </r>
       <r>     6.0934     9.0991    11.2494 </r>
       <r>     6.1490     9.6972    11.7892 </r>
       <r>     6.2047     7.9098    12.2295 </r>
       <r>     6.2604     6.0768    12.5677 </r>
       <r>     6.3160     4.4230    12.8139 </r>
       <r>     6.3717     3.5329    13.0106 </r>
       <r>     6.4274     6.3239    13.3626 </r>
       <r>     6.4830     8.9093    13.8586 </r>
       <r>     6.5387     6.4142    14.2156 </r>
       <r>     6.5944     4.4298    14.4622 </r>
       <r>     6.6500     6.6091    14.8301 </r>
       <r>     6.7057     8.3266    15.2936 </r>
       <r>     6.7613     7.3634    15.7035 </r>
       <r>     6.8170     6.4798    16.0642 </r>
       <r>     6.8727     7.1923    16.4645 </r>
       <r>     6.9283     7.9607    16.9077 </r>
       <r>     6.9840     9.6048    17.4423 </r>
       <r>     7.0397    10.7796    18.0424 </r>
       <r>     7.0953     8.5393    18.5177 </r>
       <r>     7.1510     7.6099    18.9413 </r>
       <r>     7.2067     9.8565    19.4900 </r>
       <r>     7.2623    11.3321    20.1208 </r>
       <r>     7.3180    12.1830    20.7990 </r>
       <r>     7.3737    12.3880    21.4885 </r>
       <r>     7.4293    11.1190    22.1075 </r>
       <r>     7.4850    10.1731    22.6738 </r>
       <r>     7.5407     8.7800    23.1625 </r>
       <r>     7.5963     7.2483    23.5660 </r>
       <r>     7.6520     6.6988    23.9389 </r>
       <r>     7.7077     5.9708    24.2712 </r>
       <r>     7.7633     5.5470    24.5800 </r>
       <r>     7.8190     7.0252    24.9711 </r>
       <r>     7.8746     9.1383    25.4797 </r>
       <r>     7.9303     8.9427    25.9775 </r>
       <r>     7.9860     6.6198    26.3460 </r>
       <r>     8.0416     4.3836    26.5900 </r>
       <r>     8.0973     4.0285    26.8143 </r>
       <r>     8.1530     4.4629    27.0627 </r>
       <r>     8.2086     4.7753    27.3285 </r>
       <r>     8.2643     6.2849    27.6784 </r>
       <r>     8.3200     8.7566    28.1658 </r>
       <r>     8.3756    11.0376    28.7802 </r>
       <r>     8.4313    10.6634    29.3738 </r>
       <r>     8.4870     9.5939    29.9078 </r>
       <r>     8.5426     9.3419    30.4279 </r>
       <r>     8.5983     7.3478    30.8369 </r>
       <r>     8.6540     5.1043    31.1210 </r>
       <r>     8.7096     4.7993    31.3882 </r>
       <r>     8.7653     5.0307    31.6682 </r>
       <r>     8.8210     5.9440    31.9991 </r>
       <r>     8.8766     8.2531    32.4585 </r>
       <r>     8.9323    10.1684    33.0245 </r>
       <r>     8.9879     9.0587    33.5288 </r>
       <r>     9.0436     6.3037    33.8796 </r>
       <r>     9.0993     5.1500    34.1663 </r>
       <r>     9.1549     3.9103    34.3840 </r>
       <r>     9.2106     2.8807    34.5443 </r>
       <r>     9.2663     5.5412    34.8528 </r>
       <r>     9.3219     9.2207    35.3661 </r>
       <r>     9.3776     9.9613    35.9206 </r>
       <r>     9.4333     8.3645    36.3862 </r>
       <r>     9.4889     6.4531    36.7454 </r>
       <r>     9.5446     5.7448    37.0652 </r>
       <r>     9.6003     5.9650    37.3972 </r>
       <r>     9.6559     7.3364    37.8056 </r>
       <r>     9.7116    11.5117    38.4464 </r>
       <r>     9.7673    14.8909    39.2753 </r>
       <r>     9.8229    13.0733    40.0030 </r>
       <r>     9.8786     8.7714    40.4913 </r>
       <r>     9.9343     5.2045    40.7810 </r>
       <r>     9.9899     4.1515    41.0121 </r>
       <r>    10.0456     6.3344    41.3647 </r>
       <r>    10.1013     7.0164    41.7553 </r>
       <r>    10.1569     3.8439    41.9692 </r>
       <r>    10.2126     1.3830    42.0462 </r>
       <r>    10.2682     1.1749    42.1116 </r>
       <r>    10.3239     1.0023    42.1674 </r>
       <r>    10.3796     0.3910    42.1892 </r>
       <r>    10.4352     0.3098    42.2064 </r>
       <r>    10.4909     0.6819    42.2444 </r>
       <r>    10.5466     0.5801    42.2767 </r>
       <r>    10.6022     0.1400    42.2845 </r>
       <r>    10.6579    -0.0502    42.2817 </r>
       <r>    10.7136    -0.0598    42.2783 </r>
       <r>    10.7692     0.0696    42.2822 </r>
       <r>    10.8249     0.4716    42.3085 </r>
       <r>    10.8806     0.6519    42.3447 </r>
       <r>    10.9362     0.3180    42.3624 </r>
       <r>    10.9919     0.8313    42.4087 </r>
       <r>    11.0476     2.6871    42.5583 </r>
       <r>    11.1032     3.3576    42.7452 </r>
       <r>    11.1589     1.9181    42.8520 </r>
       <r>    11.2146     0.8594    42.8998 </r>
       <r>    11.2702     1.1119    42.9617 </r>
       <r>    11.3259     1.5689    43.0490 </r>
       <r>    11.3815     1.1502    43.1131 </r>
       <r>    11.4372     0.4857    43.1401 </r>
       <r>    11.4929     0.5836    43.1726 </r>
       <r>    11.5485     0.6424    43.2083 </r>
       <r>    11.6042     0.2181    43.2205 </r>
       <r>    11.6599    -0.1121    43.2142 </r>
       <r>    11.7155    -0.0721    43.2102 </r>
       <r>    11.7712     0.7880    43.2541 </r>
       <r>    11.8269     2.1398    43.3732 </r>
       <r>    11.8825     2.2361    43.4977 </r>
       <r>    11.9382     1.2006    43.5645 </r>
       <r>    11.9939     0.5495    43.5951 </r>
       <r>    12.0495     0.9087    43.6457 </r>
       <r>    12.1052     1.6234    43.7360 </r>
       <r>    12.1609     1.8598    43.8396 </r>
       <r>    12.2165     1.6088    43.9291 </r>
       <r>    12.2722     0.7539    43.9711 </r>
       <r>    12.3279    -0.0069    43.9707 </r>
       <r>    12.3835    -0.1151    43.9643 </r>
       <r>    12.4392     0.4625    43.9900 </r>
       <r>    12.4949     1.3457    44.0649 </r>
       <r>    12.5505     1.2149    44.1326 </r>
       <r>    12.6062     0.4381    44.1570 </r>
       <r>    12.6618     0.9383    44.2092 </r>
       <r>    12.7175     2.1147    44.3269 </r>
       <r>    12.7732     1.7086    44.4220 </r>
       <r>    12.8288     0.3531    44.4417 </r>
       <r>    12.8845    -0.0531    44.4387 </r>
       <r>    12.9402     0.6873    44.4770 </r>
       <r>    12.9958     1.4670    44.5586 </r>
       <r>    13.0515     1.2537    44.6284 </r>
       <r>    13.1072     0.8187    44.6740 </r>
       <r>    13.1628     0.5554    44.7049 </r>
       <r>    13.2185     0.3241    44.7230 </r>
       <r>    13.2742     0.7120    44.7626 </r>
       <r>    13.3298     1.2895    44.8344 </r>
       <r>    13.3855     1.4798    44.9167 </r>
       <r>    13.4412     1.8960    45.0223 </r>
       <r>    13.4968     1.9509    45.1309 </r>
       <r>    13.5525     0.8343    45.1773 </r>
       <r>    13.6082     0.2868    45.1933 </r>
       <r>    13.6638     1.8691    45.2973 </r>
       <r>    13.7195     3.5619    45.4956 </r>
       <r>    13.7751     2.5756    45.6390 </r>
       <r>    13.8308     0.5695    45.6707 </r>
       <r>    13.8865    -0.1508    45.6623 </r>
       <r>    13.9421    -0.0913    45.6572 </r>
       <r>    13.9978    -0.0174    45.6562 </r>
       <r>    14.0535    -0.0167    45.6553 </r>
       <r>    14.1091    -0.0641    45.6517 </r>
       <r>    14.1648    -0.0111    45.6511 </r>
       <r>    14.2205     0.5909    45.6840 </r>
       <r>    14.2761     1.4076    45.7624 </r>
       <r>    14.3318     1.1479    45.8263 </r>
       <r>    14.3875     0.4772    45.8528 </r>
       <r>    14.4431     0.9311    45.9047 </r>
       <r>    14.4988     1.4384    45.9847 </r>
       <r>    14.5545     0.6990    46.0236 </r>
       <r>    14.6101     0.0608    46.0270 </r>
       <r>    14.6658     1.1441    46.0907 </r>
       <r>    14.7215     2.8512    46.2494 </r>
       <r>    14.7771     2.3505    46.3803 </r>
       <r>    14.8328     0.6321    46.4154 </r>
       <r>    14.8885     0.5482    46.4460 </r>
       <r>    14.9441     1.3839    46.5230 </r>
       <r>    14.9998     1.1056    46.5845 </r>
       <r>    15.0554     0.2260    46.5971 </r>
       <r>    15.1111     0.1218    46.6039 </r>
       <r>    15.1668     0.5900    46.6367 </r>
       <r>    15.2224     0.6511    46.6730 </r>
       <r>    15.2781     0.3653    46.6933 </r>
       <r>    15.3338     0.5220    46.7224 </r>
       <r>    15.3894     0.6545    46.7588 </r>
       <r>    15.4451     0.3278    46.7771 </r>
       <r>    15.5008     0.5252    46.8063 </r>
       <r>    15.5564     1.3150    46.8795 </r>
       <r>    15.6121     1.5570    46.9662 </r>
       <r>    15.6678     1.5621    47.0531 </r>
       <r>    15.7234     1.3812    47.1300 </r>
       <r>    15.7791     0.5277    47.1594 </r>
       <r>    15.8348    -0.0899    47.1544 </r>
       <r>    15.8904     0.1414    47.1622 </r>
       <r>    15.9461     1.0635    47.2214 </r>
       <r>    16.0018     1.4980    47.3048 </r>
       <r>    16.0574     0.7528    47.3467 </r>
       <r>    16.1131     0.0332    47.3486 </r>
       <r>    16.1687    -0.1038    47.3428 </r>
       <r>    16.2244    -0.0267    47.3413 </r>
       <r>    16.2801     0.2939    47.3577 </r>
       <r>    16.3357     0.7188    47.3977 </r>
       <r>    16.3914     0.6106    47.4317 </r>
       <r>    16.4471     0.1373    47.4393 </r>
       <r>    16.5027    -0.1084    47.4333 </r>
       <r>    16.5584     0.0329    47.4351 </r>
       <r>    16.6141     0.7600    47.4774 </r>
       <r>    16.6697     1.4978    47.5608 </r>
       <r>    16.7254     1.5853    47.6490 </r>
       <r>    16.7811     1.5921    47.7377 </r>
       <r>    16.8367     1.1647    47.8025 </r>
       <r>    16.8924     0.3034    47.8194 </r>
       <r>    16.9481    -0.0680    47.8156 </r>
       <r>    17.0037    -0.0468    47.8130 </r>
       <r>    17.0594    -0.0082    47.8125 </r>
       <r>    17.1151    -0.0006    47.8125 </r>
       <r>    17.1707    -0.0001    47.8125 </r>
       <r>    17.2264    -0.0009    47.8124 </r>
       <r>    17.2821    -0.0103    47.8119 </r>
       <r>    17.3377    -0.0528    47.8089 </r>
       <r>    17.3934    -0.0505    47.8061 </r>
       <r>    17.4490     0.4206    47.8295 </r>
       <r>    17.5047     1.3219    47.9031 </r>
       <r>    17.5604     1.3689    47.9793 </r>
       <r>    17.6160     0.4804    48.0061 </r>
       <r>    17.6717    -0.0389    48.0039 </r>
       <r>    17.7274    -0.0569    48.0007 </r>
       <r>    17.7830    -0.0119    48.0001 </r>
       <r>    17.8387    -0.0011    48.0000 </r>
       <r>    17.8944    -0.0000    48.0000 </r>
       <r>    17.9500    -0.0000    48.0000 </r>
       <r>    18.0057    -0.0000    48.0000 </r>
       <r>    18.0614    -0.0000    48.0000 </r>
       <r>    18.1170    -0.0000    48.0000 </r>
       <r>    18.1727    -0.0000    48.0000 </r>
       <r>    18.2284     0.0000    48.0000 </r>
       <r>    18.2840     0.0000    48.0000 </r>
       <r>    18.3397     0.0000    48.0000 </r>
       <r>    18.3954     0.0000    48.0000 </r>
       <r>    18.4510     0.0000    48.0000 </r>
       <r>    18.5067     0.0000    48.0000 </r>
      </set>
     </set>
    </array>
   </total>
  </dos>
 </calculation>
 <structure name="finalpos" >
  <crystal>
   <varray name="basis" >
    <v>       3.89000000       0.00000000       0.00000000 </v>
    <v>       0.00000000       3.89000000       0.00000000 </v>
    <v>       0.00000000       0.00000000       3.89000000 </v>
   </varray>
   <i name="volume">     58.86386900 </i>
   <varray name="rec_basis" >
    <v>       0.25706941       0.00000000       0.00000000 </v>
    <v>       0.00000000       0.25706941       0.00000000 </v>
    <v>       0.00000000       0.00000000       0.25706941 </v>
   </varray>
  </crystal>
  <varray name="positions" >
   <v>       0.00000000       0.00000000       0.00000000 </v>
   <v>       0.00000000       0.50000000       0.50000000 </v>
   <v>       0.50000000       0.00000000       0.50000000 </v>
   <v>       0.50000000       0.50000000       0.00000000 </v>
  </varray>
 </structure>
</modeling>
