   2   2   1   0
  0.8640000E+03  0.1200000E-08  0.1200000E-08  0.1200000E-08  0.5000000E-15
  1.000000000000000E-004
  CAR 
 unknown system                          
      3.53199679    -34.24799757  301     -6.88898499      1.00000000
    -34.248  0.0000E+00  0.0000E+00  0.0000E+00  0.0000E+00
    -34.122  0.0000E+00  0.0000E+00  0.0000E+00  0.0000E+00
    -33.996  0.0000E+00  0.0000E+00  0.0000E+00  0.0000E+00
    -33.870  0.0000E+00  0.0000E+00  0.0000E+00  0.0000E+00
    -33.744  0.0000E+00  0.0000E+00  0.0000E+00  0.0000E+00
    -33.618  0.0000E+00  0.0000E+00  0.0000E+00  0.0000E+00
    -33.492  0.0000E+00  0.0000E+00  0.0000E+00  0.0000E+00
    -33.366  0.0000E+00  0.0000E+00  0.0000E+00  0.0000E+00
    -33.241  0.0000E+00  0.0000E+00  0.0000E+00  0.0000E+00
    -33.115  0.0000E+00  0.0000E+00  0.0000E+00  0.0000E+00
    -32.989  0.0000E+00  0.0000E+00  0.0000E+00  0.0000E+00
    -32.863  0.0000E+00  0.0000E+00  0.0000E+00  0.0000E+00
    -32.737  0.0000E+00  0.0000E+00  0.0000E+00  0.0000E+00
    -32.611  0.0000E+00  0.0000E+00  0.0000E+00  0.0000E+00
    -32.485  0.3970E+00  0.0000E+00  0.5000E-01  0.0000E+00
    -32.359  0.0000E+00  0.0000E+00  0.5000E-01  0.0000E+00
    -32.233  0.0000E+00  0.0000E+00  0.5000E-01  0.0000E+00
    -32.107  0.0000E+00  0.0000E+00  0.5000E-01  0.0000E+00
    -31.981  0.0000E+00  0.0000E+00  0.5000E-01  0.0000E+00
    -31.855  0.0000E+00  0.0000E+00  0.5000E-01  0.0000E+00
    -31.729  0.0000E+00  0.0000E+00  0.5000E-01  0.0000E+00
    -31.603  0.0000E+00  0.0000E+00  0.5000E-01  0.0000E+00
    -31.477  0.0000E+00  0.0000E+00  0.5000E-01  0.0000E+00
    -31.352  0.0000E+00  0.3146E-11  0.5000E-01  0.3962E-12
    -31.226  0.0000E+00  0.3970E+00  0.5000E-01  0.5000E-01
    -31.100  0.0000E+00  0.0000E+00  0.5000E-01  0.5000E-01
    -30.974  0.0000E+00  0.0000E+00  0.5000E-01  0.5000E-01
    -30.848  0.0000E+00  0.0000E+00  0.5000E-01  0.5000E-01
    -30.722  0.0000E+00  0.0000E+00  0.5000E-01  0.5000E-01
    -30.596  0.0000E+00  0.0000E+00  0.5000E-01  0.5000E-01
    -30.470  0.0000E+00  0.0000E+00  0.5000E-01  0.5000E-01
    -30.344  0.0000E+00  0.0000E+00  0.5000E-01  0.5000E-01
    -30.218  0.0000E+00  0.0000E+00  0.5000E-01  0.5000E-01
    -30.092  0.0000E+00  0.0000E+00  0.5000E-01  0.5000E-01
    -29.966  0.0000E+00  0.0000E+00  0.5000E-01  0.5000E-01
    -29.840  0.0000E+00  0.0000E+00  0.5000E-01  0.5000E-01
    -29.714  0.0000E+00  0.0000E+00  0.5000E-01  0.5000E-01
    -29.588  0.0000E+00  0.0000E+00  0.5000E-01  0.5000E-01
    -29.463  0.0000E+00  0.0000E+00  0.5000E-01  0.5000E-01
    -29.337  0.0000E+00  0.0000E+00  0.5000E-01  0.5000E-01
    -29.211  0.0000E+00  0.0000E+00  0.5000E-01  0.5000E-01
    -29.085  0.0000E+00  0.0000E+00  0.5000E-01  0.5000E-01
    -28.959  0.0000E+00  0.0000E+00  0.5000E-01  0.5000E-01
    -28.833  0.0000E+00  0.0000E+00  0.5000E-01  0.5000E-01
    -28.707  0.0000E+00  0.0000E+00  0.5000E-01  0.5000E-01
    -28.581  0.0000E+00  0.0000E+00  0.5000E-01  0.5000E-01
    -28.455  0.0000E+00  0.0000E+00  0.5000E-01  0.5000E-01
    -28.329  0.0000E+00  0.0000E+00  0.5000E-01  0.5000E-01
    -28.203  0.0000E+00  0.0000E+00  0.5000E-01  0.5000E-01
    -28.077  0.0000E+00  0.0000E+00  0.5000E-01  0.5000E-01
    -27.951  0.0000E+00  0.0000E+00  0.5000E-01  0.5000E-01
    -27.825  0.0000E+00  0.0000E+00  0.5000E-01  0.5000E-01
    -27.699  0.0000E+00  0.0000E+00  0.5000E-01  0.5000E-01
    -27.574  0.0000E+00  0.0000E+00  0.5000E-01  0.5000E-01
    -27.448  0.0000E+00  0.0000E+00  0.5000E-01  0.5000E-01
    -27.322  0.0000E+00  0.0000E+00  0.5000E-01  0.5000E-01
    -27.196  0.0000E+00  0.0000E+00  0.5000E-01  0.5000E-01
    -27.070  0.0000E+00  0.0000E+00  0.5000E-01  0.5000E-01
    -26.944  0.0000E+00  0.0000E+00  0.5000E-01  0.5000E-01
    -26.818  0.0000E+00  0.0000E+00  0.5000E-01  0.5000E-01
    -26.692  0.0000E+00  0.0000E+00  0.5000E-01  0.5000E-01
    -26.566  0.0000E+00  0.0000E+00  0.5000E-01  0.5000E-01
    -26.440  0.0000E+00  0.0000E+00  0.5000E-01  0.5000E-01
    -26.314  0.0000E+00  0.0000E+00  0.5000E-01  0.5000E-01
    -26.188  0.0000E+00  0.0000E+00  0.5000E-01  0.5000E-01
    -26.062  0.0000E+00  0.0000E+00  0.5000E-01  0.5000E-01
    -25.936  0.0000E+00  0.0000E+00  0.5000E-01  0.5000E-01
    -25.810  0.0000E+00  0.0000E+00  0.5000E-01  0.5000E-01
    -25.685  0.0000E+00  0.0000E+00  0.5000E-01  0.5000E-01
    -25.559  0.0000E+00  0.0000E+00  0.5000E-01  0.5000E-01
    -25.433  0.0000E+00  0.0000E+00  0.5000E-01  0.5000E-01
    -25.307  0.0000E+00  0.0000E+00  0.5000E-01  0.5000E-01
    -25.181  0.0000E+00  0.0000E+00  0.5000E-01  0.5000E-01
    -25.055  0.0000E+00  0.0000E+00  0.5000E-01  0.5000E-01
    -24.929  0.0000E+00  0.0000E+00  0.5000E-01  0.5000E-01
    -24.803  0.0000E+00  0.0000E+00  0.5000E-01  0.5000E-01
    -24.677  0.0000E+00  0.0000E+00  0.5000E-01  0.5000E-01
    -24.551  0.0000E+00  0.0000E+00  0.5000E-01  0.5000E-01
    -24.425  0.0000E+00  0.0000E+00  0.5000E-01  0.5000E-01
    -24.299  0.0000E+00  0.0000E+00  0.5000E-01  0.5000E-01
    -24.173  0.0000E+00  0.0000E+00  0.5000E-01  0.5000E-01
    -24.047  0.0000E+00  0.0000E+00  0.5000E-01  0.5000E-01
    -23.921  0.0000E+00  0.0000E+00  0.5000E-01  0.5000E-01
    -23.796  0.0000E+00  0.0000E+00  0.5000E-01  0.5000E-01
    -23.670  0.0000E+00  0.0000E+00  0.5000E-01  0.5000E-01
    -23.544  0.0000E+00  0.0000E+00  0.5000E-01  0.5000E-01
    -23.418  0.0000E+00  0.0000E+00  0.5000E-01  0.5000E-01
    -23.292  0.0000E+00  0.0000E+00  0.5000E-01  0.5000E-01
    -23.166  0.0000E+00  0.0000E+00  0.5000E-01  0.5000E-01
    -23.040  0.0000E+00  0.0000E+00  0.5000E-01  0.5000E-01
    -22.914  0.0000E+00  0.0000E+00  0.5000E-01  0.5000E-01
    -22.788  0.0000E+00  0.0000E+00  0.5000E-01  0.5000E-01
    -22.662  0.0000E+00  0.0000E+00  0.5000E-01  0.5000E-01
    -22.536  0.0000E+00  0.0000E+00  0.5000E-01  0.5000E-01
    -22.410  0.0000E+00  0.0000E+00  0.5000E-01  0.5000E-01
    -22.284  0.0000E+00  0.0000E+00  0.5000E-01  0.5000E-01
    -22.158  0.0000E+00  0.0000E+00  0.5000E-01  0.5000E-01
    -22.032  0.0000E+00  0.0000E+00  0.5000E-01  0.5000E-01
    -21.907  0.0000E+00  0.0000E+00  0.5000E-01  0.5000E-01
    -21.781  0.0000E+00  0.0000E+00  0.5000E-01  0.5000E-01
    -21.655  0.0000E+00  0.0000E+00  0.5000E-01  0.5000E-01
    -21.529  0.0000E+00  0.0000E+00  0.5000E-01  0.5000E-01
    -21.403  0.0000E+00  0.0000E+00  0.5000E-01  0.5000E-01
    -21.277  0.0000E+00  0.0000E+00  0.5000E-01  0.5000E-01
    -21.151  0.0000E+00  0.0000E+00  0.5000E-01  0.5000E-01
    -21.025  0.0000E+00  0.0000E+00  0.5000E-01  0.5000E-01
    -20.899  0.0000E+00  0.0000E+00  0.5000E-01  0.5000E-01
    -20.773  0.0000E+00  0.0000E+00  0.5000E-01  0.5000E-01
    -20.647  0.3227E+00  0.0000E+00  0.9064E-01  0.5000E-01
    -20.521  0.0000E+00  0.0000E+00  0.1000E+00  0.5000E-01
    -20.395  0.0000E+00  0.0000E+00  0.1000E+00  0.5000E-01
    -20.269  0.0000E+00  0.0000E+00  0.1000E+00  0.5000E-01
    -20.143  0.0000E+00  0.0000E+00  0.1000E+00  0.5000E-01
    -20.018  0.0000E+00  0.0000E+00  0.1000E+00  0.5000E-01
    -19.892  0.0000E+00  0.0000E+00  0.1000E+00  0.5000E-01
    -19.766  0.0000E+00  0.0000E+00  0.1000E+00  0.5000E-01
    -19.640  0.0000E+00  0.0000E+00  0.1000E+00  0.5000E-01
    -19.514  0.0000E+00  0.0000E+00  0.1000E+00  0.5000E-01
    -19.388  0.0000E+00  0.0000E+00  0.1000E+00  0.5000E-01
    -19.262  0.0000E+00  0.0000E+00  0.1000E+00  0.5000E-01
    -19.136  0.0000E+00  0.0000E+00  0.1000E+00  0.5000E-01
    -19.010  0.0000E+00  0.0000E+00  0.1000E+00  0.5000E-01
    -18.884  0.0000E+00  0.3459E-04  0.1000E+00  0.5000E-01
    -18.758  0.0000E+00  0.0000E+00  0.1000E+00  0.1000E+00
    -18.632  0.0000E+00  0.0000E+00  0.1000E+00  0.1000E+00
    -18.506  0.0000E+00  0.0000E+00  0.1000E+00  0.1000E+00
    -18.380  0.0000E+00  0.0000E+00  0.1000E+00  0.1000E+00
    -18.254  0.0000E+00  0.0000E+00  0.1000E+00  0.1000E+00
    -18.129  0.0000E+00  0.0000E+00  0.1000E+00  0.1000E+00
    -18.003  0.0000E+00  0.0000E+00  0.1000E+00  0.1000E+00
    -17.877  0.0000E+00  0.0000E+00  0.1000E+00  0.1000E+00
    -17.751  0.0000E+00  0.0000E+00  0.1000E+00  0.1000E+00
    -17.625  0.0000E+00  0.0000E+00  0.1000E+00  0.1000E+00
    -17.499  0.0000E+00  0.0000E+00  0.1000E+00  0.1000E+00
    -17.373  0.0000E+00  0.0000E+00  0.1000E+00  0.1000E+00
    -17.247  0.0000E+00  0.0000E+00  0.1000E+00  0.1000E+00
    -17.121  0.0000E+00  0.0000E+00  0.1000E+00  0.1000E+00
    -16.995  0.0000E+00  0.0000E+00  0.1000E+00  0.1000E+00
    -16.869  0.0000E+00  0.0000E+00  0.1000E+00  0.1000E+00
    -16.743  0.0000E+00  0.0000E+00  0.1000E+00  0.1000E+00
    -16.617  0.0000E+00  0.0000E+00  0.1000E+00  0.1000E+00
    -16.491  0.0000E+00  0.0000E+00  0.1000E+00  0.1000E+00
    -16.365  0.0000E+00  0.0000E+00  0.1000E+00  0.1000E+00
    -16.240  0.0000E+00  0.0000E+00  0.1000E+00  0.1000E+00
    -16.114  0.0000E+00  0.0000E+00  0.1000E+00  0.1000E+00
    -15.988  0.0000E+00  0.0000E+00  0.1000E+00  0.1000E+00
    -15.862  0.0000E+00  0.0000E+00  0.1000E+00  0.1000E+00
    -15.736  0.0000E+00  0.0000E+00  0.1000E+00  0.1000E+00
    -15.610  0.0000E+00  0.0000E+00  0.1000E+00  0.1000E+00
    -15.484  0.0000E+00  0.0000E+00  0.1000E+00  0.1000E+00
    -15.358  0.0000E+00  0.0000E+00  0.1000E+00  0.1000E+00
    -15.232  0.0000E+00  0.0000E+00  0.1000E+00  0.1000E+00
    -15.106  0.0000E+00  0.0000E+00  0.1000E+00  0.1000E+00
    -14.980  0.0000E+00  0.0000E+00  0.1000E+00  0.1000E+00
    -14.854  0.0000E+00  0.0000E+00  0.1000E+00  0.1000E+00
    -14.728  0.0000E+00  0.0000E+00  0.1000E+00  0.1000E+00
    -14.602  0.0000E+00  0.0000E+00  0.1000E+00  0.1000E+00
    -14.476  0.0000E+00  0.0000E+00  0.1000E+00  0.1000E+00
    -14.351  0.0000E+00  0.0000E+00  0.1000E+00  0.1000E+00
    -14.225  0.0000E+00  0.0000E+00  0.1000E+00  0.1000E+00
    -14.099  0.0000E+00  0.0000E+00  0.1000E+00  0.1000E+00
    -13.973  0.0000E+00  0.0000E+00  0.1000E+00  0.1000E+00
    -13.847  0.0000E+00  0.0000E+00  0.1000E+00  0.1000E+00
    -13.721  0.0000E+00  0.0000E+00  0.1000E+00  0.1000E+00
    -13.595  0.0000E+00  0.0000E+00  0.1000E+00  0.1000E+00
    -13.469  0.2566E-11  0.0000E+00  0.1000E+00  0.1000E+00
    -13.343  0.3970E+00  0.0000E+00  0.1500E+00  0.1000E+00
    -13.217  0.7941E+00  0.0000E+00  0.2500E+00  0.1000E+00
    -13.091  0.0000E+00  0.0000E+00  0.2500E+00  0.1000E+00
    -12.965  0.0000E+00  0.0000E+00  0.2500E+00  0.1000E+00
    -12.839  0.0000E+00  0.0000E+00  0.2500E+00  0.1000E+00
    -12.713  0.0000E+00  0.0000E+00  0.2500E+00  0.1000E+00
    -12.587  0.0000E+00  0.0000E+00  0.2500E+00  0.1000E+00
    -12.462  0.0000E+00  0.3970E+00  0.2500E+00  0.1500E+00
    -12.336  0.0000E+00  0.0000E+00  0.2500E+00  0.1500E+00
    -12.210  0.0000E+00  0.0000E+00  0.2500E+00  0.1500E+00
    -12.084  0.0000E+00  0.0000E+00  0.2500E+00  0.1500E+00
    -11.958  0.0000E+00  0.0000E+00  0.2500E+00  0.1500E+00
    -11.832  0.0000E+00  0.0000E+00  0.2500E+00  0.1500E+00
    -11.706  0.0000E+00  0.0000E+00  0.2500E+00  0.1500E+00
    -11.580  0.0000E+00  0.0000E+00  0.2500E+00  0.1500E+00
    -11.454  0.0000E+00  0.9045E-04  0.2500E+00  0.1500E+00
    -11.328  0.0000E+00  0.0000E+00  0.2500E+00  0.2500E+00
    -11.202  0.0000E+00  0.0000E+00  0.2500E+00  0.2500E+00
    -11.076  0.0000E+00  0.0000E+00  0.2500E+00  0.2500E+00
    -10.950  0.0000E+00  0.0000E+00  0.2500E+00  0.2500E+00
    -10.824  0.0000E+00  0.0000E+00  0.2500E+00  0.2500E+00
    -10.698  0.0000E+00  0.0000E+00  0.2500E+00  0.2500E+00
    -10.573  0.0000E+00  0.0000E+00  0.2500E+00  0.2500E+00
    -10.447  0.0000E+00  0.0000E+00  0.2500E+00  0.2500E+00
    -10.321  0.0000E+00  0.0000E+00  0.2500E+00  0.2500E+00
    -10.195  0.0000E+00  0.0000E+00  0.2500E+00  0.2500E+00
    -10.069  0.0000E+00  0.0000E+00  0.2500E+00  0.2500E+00
     -9.943  0.0000E+00  0.0000E+00  0.2500E+00  0.2500E+00
     -9.817  0.0000E+00  0.0000E+00  0.2500E+00  0.2500E+00
     -9.691  0.0000E+00  0.0000E+00  0.2500E+00  0.2500E+00
     -9.565  0.0000E+00  0.0000E+00  0.2500E+00  0.2500E+00
     -9.439  0.0000E+00  0.0000E+00  0.2500E+00  0.2500E+00
     -9.313  0.0000E+00  0.0000E+00  0.2500E+00  0.2500E+00
     -9.187  0.0000E+00  0.0000E+00  0.2500E+00  0.2500E+00
     -9.061  0.0000E+00  0.0000E+00  0.2500E+00  0.2500E+00
     -8.935  0.0000E+00  0.0000E+00  0.2500E+00  0.2500E+00
     -8.809  0.0000E+00  0.0000E+00  0.2500E+00  0.2500E+00
     -8.684  0.0000E+00  0.0000E+00  0.2500E+00  0.2500E+00
     -8.558  0.0000E+00  0.0000E+00  0.2500E+00  0.2500E+00
     -8.432  0.0000E+00  0.0000E+00  0.2500E+00  0.2500E+00
     -8.306  0.0000E+00  0.0000E+00  0.2500E+00  0.2500E+00
     -8.180  0.0000E+00  0.0000E+00  0.2500E+00  0.2500E+00
     -8.054  0.0000E+00  0.0000E+00  0.2500E+00  0.2500E+00
     -7.928  0.0000E+00  0.0000E+00  0.2500E+00  0.2500E+00
     -7.802  0.0000E+00  0.0000E+00  0.2500E+00  0.2500E+00
     -7.676  0.0000E+00  0.0000E+00  0.2500E+00  0.2500E+00
     -7.550  0.0000E+00  0.0000E+00  0.2500E+00  0.2500E+00
     -7.424  0.0000E+00  0.0000E+00  0.2500E+00  0.2500E+00
     -7.298  0.0000E+00  0.0000E+00  0.2500E+00  0.2500E+00
     -7.172  0.0000E+00  0.0000E+00  0.2500E+00  0.2500E+00
     -7.046  0.0000E+00  0.0000E+00  0.2500E+00  0.2500E+00
     -6.920  0.7941E+00  0.0000E+00  0.3500E+00  0.2500E+00
     -6.795  0.0000E+00  0.0000E+00  0.3500E+00  0.2500E+00
     -6.669  0.0000E+00  0.0000E+00  0.3500E+00  0.2500E+00
     -6.543  0.0000E+00  0.0000E+00  0.3500E+00  0.2500E+00
     -6.417  0.0000E+00  0.0000E+00  0.3500E+00  0.2500E+00
     -6.291  0.0000E+00  0.0000E+00  0.3500E+00  0.2500E+00
     -6.165  0.0000E+00  0.0000E+00  0.3500E+00  0.2500E+00
     -6.039  0.0000E+00  0.0000E+00  0.3500E+00  0.2500E+00
     -5.913  0.0000E+00  0.0000E+00  0.3500E+00  0.2500E+00
     -5.787  0.0000E+00  0.0000E+00  0.3500E+00  0.2500E+00
     -5.661  0.0000E+00  0.0000E+00  0.3500E+00  0.2500E+00
     -5.535  0.0000E+00  0.0000E+00  0.3500E+00  0.2500E+00
     -5.409  0.0000E+00  0.0000E+00  0.3500E+00  0.2500E+00
     -5.283  0.0000E+00  0.0000E+00  0.3500E+00  0.2500E+00
     -5.157  0.0000E+00  0.0000E+00  0.3500E+00  0.2500E+00
     -5.031  0.0000E+00  0.0000E+00  0.3500E+00  0.2500E+00
     -4.906  0.0000E+00  0.0000E+00  0.3500E+00  0.2500E+00
     -4.780  0.0000E+00  0.0000E+00  0.3500E+00  0.2500E+00
     -4.654  0.0000E+00  0.7936E+00  0.3500E+00  0.3499E+00
     -4.528  0.0000E+00  0.0000E+00  0.3500E+00  0.3500E+00
     -4.402  0.0000E+00  0.0000E+00  0.3500E+00  0.3500E+00
     -4.276  0.0000E+00  0.0000E+00  0.3500E+00  0.3500E+00
     -4.150  0.0000E+00  0.0000E+00  0.3500E+00  0.3500E+00
     -4.024  0.0000E+00  0.0000E+00  0.3500E+00  0.3500E+00
     -3.898  0.0000E+00  0.0000E+00  0.3500E+00  0.3500E+00
     -3.772  0.0000E+00  0.0000E+00  0.3500E+00  0.3500E+00
     -3.646  0.0000E+00  0.0000E+00  0.3500E+00  0.3500E+00
     -3.520  0.0000E+00  0.0000E+00  0.3500E+00  0.3500E+00
     -3.394  0.0000E+00  0.0000E+00  0.3500E+00  0.3500E+00
     -3.268  0.0000E+00  0.0000E+00  0.3500E+00  0.3500E+00
     -3.142  0.0000E+00  0.0000E+00  0.3500E+00  0.3500E+00
     -3.017  0.0000E+00  0.0000E+00  0.3500E+00  0.3500E+00
     -2.891  0.0000E+00  0.0000E+00  0.3500E+00  0.3500E+00
     -2.765  0.0000E+00  0.0000E+00  0.3500E+00  0.3500E+00
     -2.639  0.0000E+00  0.0000E+00  0.3500E+00  0.3500E+00
     -2.513  0.0000E+00  0.0000E+00  0.3500E+00  0.3500E+00
     -2.387  0.0000E+00  0.0000E+00  0.3500E+00  0.3500E+00
     -2.261  0.0000E+00  0.0000E+00  0.3500E+00  0.3500E+00
     -2.135  0.0000E+00  0.0000E+00  0.3500E+00  0.3500E+00
     -2.009  0.0000E+00  0.0000E+00  0.3500E+00  0.3500E+00
     -1.883  0.0000E+00  0.0000E+00  0.3500E+00  0.3500E+00
     -1.757  0.0000E+00  0.0000E+00  0.3500E+00  0.3500E+00
     -1.631  0.0000E+00  0.0000E+00  0.3500E+00  0.3500E+00
     -1.505  0.0000E+00  0.0000E+00  0.3500E+00  0.3500E+00
     -1.379  0.0000E+00  0.0000E+00  0.3500E+00  0.3500E+00
     -1.253  0.0000E+00  0.0000E+00  0.3500E+00  0.3500E+00
     -1.128  0.0000E+00  0.0000E+00  0.3500E+00  0.3500E+00
     -1.002  0.0000E+00  0.0000E+00  0.3500E+00  0.3500E+00
     -0.876  0.0000E+00  0.0000E+00  0.3500E+00  0.3500E+00
     -0.750  0.0000E+00  0.0000E+00  0.3500E+00  0.3500E+00
     -0.624  0.0000E+00  0.0000E+00  0.3500E+00  0.3500E+00
     -0.498  0.0000E+00  0.0000E+00  0.3500E+00  0.3500E+00
     -0.372  0.0000E+00  0.0000E+00  0.3500E+00  0.3500E+00
     -0.246  0.3970E+00  0.9257E-15  0.4000E+00  0.3500E+00
     -0.120  0.0000E+00  0.3970E+00  0.4000E+00  0.4000E+00
      0.006  0.0000E+00  0.0000E+00  0.4000E+00  0.4000E+00
      0.132  0.0000E+00  0.0000E+00  0.4000E+00  0.4000E+00
      0.258  0.0000E+00  0.0000E+00  0.4000E+00  0.4000E+00
      0.384  0.0000E+00  0.0000E+00  0.4000E+00  0.4000E+00
      0.510  0.3905E-02  0.0000E+00  0.4005E+00  0.4000E+00
      0.636  0.7270E-02  0.0000E+00  0.4509E+00  0.4000E+00
      0.761  0.4332E-03  0.7625E+00  0.5001E+00  0.4960E+00
      0.887  0.5725E-02  0.7899E+00  0.6007E+00  0.5995E+00
      1.013  0.3970E+00  0.1666E-02  0.7000E+00  0.6502E+00
      1.139  0.0000E+00  0.0000E+00  0.7000E+00  0.7000E+00
      1.265  0.0000E+00  0.0000E+00  0.7000E+00  0.7000E+00
      1.391  0.0000E+00  0.0000E+00  0.7000E+00  0.7000E+00
      1.517  0.3570E+00  0.0000E+00  0.7450E+00  0.7000E+00
      1.643  0.0000E+00  0.3387E-01  0.7500E+00  0.7043E+00
      1.769  0.3970E+00  0.1867E-10  0.8000E+00  0.7500E+00
      1.895  0.0000E+00  0.0000E+00  0.8000E+00  0.8000E+00
      2.021  0.0000E+00  0.0000E+00  0.8000E+00  0.8000E+00
      2.147  0.0000E+00  0.0000E+00  0.8000E+00  0.8000E+00
      2.273  0.0000E+00  0.0000E+00  0.8000E+00  0.8000E+00
      2.399  0.0000E+00  0.0000E+00  0.8000E+00  0.8000E+00
      2.525  0.0000E+00  0.0000E+00  0.8000E+00  0.8000E+00
      2.650  0.0000E+00  0.0000E+00  0.8000E+00  0.8000E+00
      2.776  0.0000E+00  0.0000E+00  0.8000E+00  0.8000E+00
      2.902  0.0000E+00  0.0000E+00  0.8000E+00  0.8000E+00
      3.028  0.0000E+00  0.0000E+00  0.8000E+00  0.8000E+00
      3.154  0.0000E+00  0.0000E+00  0.8000E+00  0.8000E+00
      3.280  0.0000E+00  0.0000E+00  0.8000E+00  0.8000E+00
      3.406  0.0000E+00  0.0000E+00  0.8000E+00  0.8000E+00
      3.532  0.0000E+00  0.0000E+00  0.8000E+00  0.8000E+00
      3.53199679    -34.24799757  301     -6.88898499      1.00000000
    -34.248  0.0000E+00  0.0000E+00  0.0000E+00  0.0000E+00  0.0000E+00  0.0000E+00  0.0000E+00  0.0000E+00  0.0000E+00  0.0000E+00  0.0000E+00  0.0000E+00  0.0000E+00  0.0000E+00  0.0000E+00  0.0000E+00  0.0000E+00  0.0000E+00
    -34.122  0.0000E+00  0.0000E+00  0.0000E+00  0.0000E+00  0.0000E+00  0.0000E+00  0.0000E+00  0.0000E+00  0.0000E+00  0.0000E+00  0.0000E+00  0.0000E+00  0.0000E+00  0.0000E+00  0.0000E+00  0.0000E+00  0.0000E+00  0.0000E+00
    -33.996  0.0000E+00  0.0000E+00  0.0000E+00  0.0000E+00  0.0000E+00  0.0000E+00  0.0000E+00  0.0000E+00  0.0000E+00  0.0000E+00  0.0000E+00  0.0000E+00  0.0000E+00  0.0000E+00  0.0000E+00  0.0000E+00  0.0000E+00  0.0000E+00
    -33.870  0.0000E+00  0.0000E+00  0.0000E+00  0.0000E+00  0.0000E+00  0.0000E+00  0.0000E+00  0.0000E+00  0.0000E+00  0.0000E+00  0.0000E+00  0.0000E+00  0.0000E+00  0.0000E+00  0.0000E+00  0.0000E+00  0.0000E+00  0.0000E+00
    -33.744  0.0000E+00  0.0000E+00  0.0000E+00  0.0000E+00  0.0000E+00  0.0000E+00  0.0000E+00  0.0000E+00  0.0000E+00  0.0000E+00  0.0000E+00  0.0000E+00  0.0000E+00  0.0000E+00  0.0000E+00  0.0000E+00  0.0000E+00  0.0000E+00
    -33.618  0.0000E+00  0.0000E+00  0.0000E+00  0.0000E+00  0.0000E+00  0.0000E+00  0.0000E+00  0.0000E+00  0.0000E+00  0.0000E+00  0.0000E+00  0.0000E+00  0.0000E+00  0.0000E+00  0.0000E+00  0.0000E+00  0.0000E+00  0.0000E+00
    -33.492  0.0000E+00  0.0000E+00  0.0000E+00  0.0000E+00  0.0000E+00  0.0000E+00  0.0000E+00  0.0000E+00  0.0000E+00  0.0000E+00  0.0000E+00  0.0000E+00  0.0000E+00  0.0000E+00  0.0000E+00  0.0000E+00  0.0000E+00  0.0000E+00
    -33.366  0.0000E+00  0.0000E+00  0.0000E+00  0.0000E+00  0.0000E+00  0.0000E+00  0.0000E+00  0.0000E+00  0.0000E+00  0.0000E+00  0.0000E+00  0.0000E+00  0.0000E+00  0.0000E+00  0.0000E+00  0.0000E+00  0.0000E+00  0.0000E+00
    -33.241  0.0000E+00  0.0000E+00  0.0000E+00  0.0000E+00  0.0000E+00  0.0000E+00  0.0000E+00  0.0000E+00  0.0000E+00  0.0000E+00  0.0000E+00  0.0000E+00  0.0000E+00  0.0000E+00  0.0000E+00  0.0000E+00  0.0000E+00  0.0000E+00
    -33.115  0.0000E+00  0.0000E+00  0.0000E+00  0.0000E+00  0.0000E+00  0.0000E+00  0.0000E+00  0.0000E+00  0.0000E+00  0.0000E+00  0.0000E+00  0.0000E+00  0.0000E+00  0.0000E+00  0.0000E+00  0.0000E+00  0.0000E+00  0.0000E+00
    -32.989  0.0000E+00  0.0000E+00  0.0000E+00  0.0000E+00  0.0000E+00  0.0000E+00  0.0000E+00  0.0000E+00  0.0000E+00  0.0000E+00  0.0000E+00  0.0000E+00  0.0000E+00  0.0000E+00  0.0000E+00  0.0000E+00  0.0000E+00  0.0000E+00
    -32.863  0.0000E+00  0.0000E+00  0.0000E+00  0.0000E+00  0.0000E+00  0.0000E+00  0.0000E+00  0.0000E+00  0.0000E+00  0.0000E+00  0.0000E+00  0.0000E+00  0.0000E+00  0.0000E+00  0.0000E+00  0.0000E+00  0.0000E+00  0.0000E+00
    -32.737  0.0000E+00  0.0000E+00  0.0000E+00  0.0000E+00  0.0000E+00  0.0000E+00  0.0000E+00  0.0000E+00  0.0000E+00  0.0000E+00  0.0000E+00  0.0000E+00  0.0000E+00  0.0000E+00  0.0000E+00  0.0000E+00  0.0000E+00  0.0000E+00
    -32.611  0.0000E+00  0.0000E+00  0.0000E+00  0.0000E+00  0.0000E+00  0.0000E+00  0.0000E+00  0.0000E+00  0.0000E+00  0.0000E+00  0.0000E+00  0.0000E+00  0.0000E+00  0.0000E+00  0.0000E+00  0.0000E+00  0.0000E+00  0.0000E+00
    -32.485  0.3219E+01  0.0000E+00  0.5477E-29  0.0000E+00  0.2458E-26  0.0000E+00  0.7571E+00  0.0000E+00  0.0000E+00  0.0000E+00  0.0000E+00  0.0000E+00  0.0000E+00  0.0000E+00  0.0000E+00  0.0000E+00  0.0000E+00  0.0000E+00
    -32.359  0.0000E+00  0.0000E+00  0.0000E+00  0.0000E+00  0.0000E+00  0.0000E+00  0.0000E+00  0.0000E+00  0.0000E+00  0.0000E+00  0.0000E+00  0.0000E+00  0.0000E+00  0.0000E+00  0.0000E+00  0.0000E+00  0.0000E+00  0.0000E+00
    -32.233  0.0000E+00  0.0000E+00  0.0000E+00  0.0000E+00  0.0000E+00  0.0000E+00  0.0000E+00  0.0000E+00  0.0000E+00  0.0000E+00  0.0000E+00  0.0000E+00  0.0000E+00  0.0000E+00  0.0000E+00  0.0000E+00  0.0000E+00  0.0000E+00
    -32.107  0.0000E+00  0.0000E+00  0.0000E+00  0.0000E+00  0.0000E+00  0.0000E+00  0.0000E+00  0.0000E+00  0.0000E+00  0.0000E+00  0.0000E+00  0.0000E+00  0.0000E+00  0.0000E+00  0.0000E+00  0.0000E+00  0.0000E+00  0.0000E+00
    -31.981  0.0000E+00  0.0000E+00  0.0000E+00  0.0000E+00  0.0000E+00  0.0000E+00  0.0000E+00  0.0000E+00  0.0000E+00  0.0000E+00  0.0000E+00  0.0000E+00  0.0000E+00  0.0000E+00  0.0000E+00  0.0000E+00  0.0000E+00  0.0000E+00
    -31.855  0.0000E+00  0.0000E+00  0.0000E+00  0.0000E+00  0.0000E+00  0.0000E+00  0.0000E+00  0.0000E+00  0.0000E+00  0.0000E+00  0.0000E+00  0.0000E+00  0.0000E+00  0.0000E+00  0.0000E+00  0.0000E+00  0.0000E+00  0.0000E+00
    -31.729  0.0000E+00  0.0000E+00  0.0000E+00  0.0000E+00  0.0000E+00  0.0000E+00  0.0000E+00  0.0000E+00  0.0000E+00  0.0000E+00  0.0000E+00  0.0000E+00  0.0000E+00  0.0000E+00  0.0000E+00  0.0000E+00  0.0000E+00  0.0000E+00
    -31.603  0.0000E+00  0.0000E+00  0.0000E+00  0.0000E+00  0.0000E+00  0.0000E+00  0.0000E+00  0.0000E+00  0.0000E+00  0.0000E+00  0.0000E+00  0.0000E+00  0.0000E+00  0.0000E+00  0.0000E+00  0.0000E+00  0.0000E+00  0.0000E+00
    -31.477  0.0000E+00  0.0000E+00  0.0000E+00  0.0000E+00  0.0000E+00  0.0000E+00  0.0000E+00  0.0000E+00  0.0000E+00  0.0000E+00  0.0000E+00  0.0000E+00  0.0000E+00  0.0000E+00  0.0000E+00  0.0000E+00  0.0000E+00  0.0000E+00
    -31.352  0.0000E+00  0.2506E-10  0.0000E+00  0.5390E-40  0.0000E+00  0.1754E-37  0.0000E+00  0.6645E-11  0.0000E+00  0.0000E+00  0.0000E+00  0.0000E+00  0.0000E+00  0.0000E+00  0.0000E+00  0.0000E+00  0.0000E+00  0.0000E+00
    -31.226  0.0000E+00  0.3162E+01  0.0000E+00  0.6803E-29  0.0000E+00  0.2213E-26  0.0000E+00  0.8387E+00  0.0000E+00  0.0000E+00  0.0000E+00  0.0000E+00  0.0000E+00  0.0000E+00  0.0000E+00  0.0000E+00  0.0000E+00  0.0000E+00
    -31.100  0.0000E+00  0.0000E+00  0.0000E+00  0.0000E+00  0.0000E+00  0.0000E+00  0.0000E+00  0.0000E+00  0.0000E+00  0.0000E+00  0.0000E+00  0.0000E+00  0.0000E+00  0.0000E+00  0.0000E+00  0.0000E+00  0.0000E+00  0.0000E+00
    -30.974  0.0000E+00  0.0000E+00  0.0000E+00  0.0000E+00  0.0000E+00  0.0000E+00  0.0000E+00  0.0000E+00  0.0000E+00  0.0000E+00  0.0000E+00  0.0000E+00  0.0000E+00  0.0000E+00  0.0000E+00  0.0000E+00  0.0000E+00  0.0000E+00
    -30.848  0.0000E+00  0.0000E+00  0.0000E+00  0.0000E+00  0.0000E+00  0.0000E+00  0.0000E+00  0.0000E+00  0.0000E+00  0.0000E+00  0.0000E+00  0.0000E+00  0.0000E+00  0.0000E+00  0.0000E+00  0.0000E+00  0.0000E+00  0.0000E+00
    -30.722  0.0000E+00  0.0000E+00  0.0000E+00  0.0000E+00  0.0000E+00  0.0000E+00  0.0000E+00  0.0000E+00  0.0000E+00  0.0000E+00  0.0000E+00  0.0000E+00  0.0000E+00  0.0000E+00  0.0000E+00  0.0000E+00  0.0000E+00  0.0000E+00
    -30.596  0.0000E+00  0.0000E+00  0.0000E+00  0.0000E+00  0.0000E+00  0.0000E+00  0.0000E+00  0.0000E+00  0.0000E+00  0.0000E+00  0.0000E+00  0.0000E+00  0.0000E+00  0.0000E+00  0.0000E+00  0.0000E+00  0.0000E+00  0.0000E+00
    -30.470  0.0000E+00  0.0000E+00  0.0000E+00  0.0000E+00  0.0000E+00  0.0000E+00  0.0000E+00  0.0000E+00  0.0000E+00  0.0000E+00  0.0000E+00  0.0000E+00  0.0000E+00  0.0000E+00  0.0000E+00  0.0000E+00  0.0000E+00  0.0000E+00
    -30.344  0.0000E+00  0.0000E+00  0.0000E+00  0.0000E+00  0.0000E+00  0.0000E+00  0.0000E+00  0.0000E+00  0.0000E+00  0.0000E+00  0.0000E+00  0.0000E+00  0.0000E+00  0.0000E+00  0.0000E+00  0.0000E+00  0.0000E+00  0.0000E+00
    -30.218  0.0000E+00  0.0000E+00  0.0000E+00  0.0000E+00  0.0000E+00  0.0000E+00  0.0000E+00  0.0000E+00  0.0000E+00  0.0000E+00  0.0000E+00  0.0000E+00  0.0000E+00  0.0000E+00  0.0000E+00  0.0000E+00  0.0000E+00  0.0000E+00
    -30.092  0.0000E+00  0.0000E+00  0.0000E+00  0.0000E+00  0.0000E+00  0.0000E+00  0.0000E+00  0.0000E+00  0.0000E+00  0.0000E+00  0.0000E+00  0.0000E+00  0.0000E+00  0.0000E+00  0.0000E+00  0.0000E+00  0.0000E+00  0.0000E+00
    -29.966  0.0000E+00  0.0000E+00  0.0000E+00  0.0000E+00  0.0000E+00  0.0000E+00  0.0000E+00  0.0000E+00  0.0000E+00  0.0000E+00  0.0000E+00  0.0000E+00  0.0000E+00  0.0000E+00  0.0000E+00  0.0000E+00  0.0000E+00  0.0000E+00
    -29.840  0.0000E+00  0.0000E+00  0.0000E+00  0.0000E+00  0.0000E+00  0.0000E+00  0.0000E+00  0.0000E+00  0.0000E+00  0.0000E+00  0.0000E+00  0.0000E+00  0.0000E+00  0.0000E+00  0.0000E+00  0.0000E+00  0.0000E+00  0.0000E+00
    -29.714  0.0000E+00  0.0000E+00  0.0000E+00  0.0000E+00  0.0000E+00  0.0000E+00  0.0000E+00  0.0000E+00  0.0000E+00  0.0000E+00  0.0000E+00  0.0000E+00  0.0000E+00  0.0000E+00  0.0000E+00  0.0000E+00  0.0000E+00  0.0000E+00
    -29.588  0.0000E+00  0.0000E+00  0.0000E+00  0.0000E+00  0.0000E+00  0.0000E+00  0.0000E+00  0.0000E+00  0.0000E+00  0.0000E+00  0.0000E+00  0.0000E+00  0.0000E+00  0.0000E+00  0.0000E+00  0.0000E+00  0.0000E+00  0.0000E+00
    -29.463  0.0000E+00  0.0000E+00  0.0000E+00  0.0000E+00  0.0000E+00  0.0000E+00  0.0000E+00  0.0000E+00  0.0000E+00  0.0000E+00  0.0000E+00  0.0000E+00  0.0000E+00  0.0000E+00  0.0000E+00  0.0000E+00  0.0000E+00  0.0000E+00
    -29.337  0.0000E+00  0.0000E+00  0.0000E+00  0.0000E+00  0.0000E+00  0.0000E+00  0.0000E+00  0.0000E+00  0.0000E+00  0.0000E+00  0.0000E+00  0.0000E+00  0.0000E+00  0.0000E+00  0.0000E+00  0.0000E+00  0.0000E+00  0.0000E+00
    -29.211  0.0000E+00  0.0000E+00  0.0000E+00  0.0000E+00  0.0000E+00  0.0000E+00  0.0000E+00  0.0000E+00  0.0000E+00  0.0000E+00  0.0000E+00  0.0000E+00  0.0000E+00  0.0000E+00  0.0000E+00  0.0000E+00  0.0000E+00  0.0000E+00
    -29.085  0.0000E+00  0.0000E+00  0.0000E+00  0.0000E+00  0.0000E+00  0.0000E+00  0.0000E+00  0.0000E+00  0.0000E+00  0.0000E+00  0.0000E+00  0.0000E+00  0.0000E+00  0.0000E+00  0.0000E+00  0.0000E+00  0.0000E+00  0.0000E+00
    -28.959  0.0000E+00  0.0000E+00  0.0000E+00  0.0000E+00  0.0000E+00  0.0000E+00  0.0000E+00  0.0000E+00  0.0000E+00  0.0000E+00  0.0000E+00  0.0000E+00  0.0000E+00  0.0000E+00  0.0000E+00  0.0000E+00  0.0000E+00  0.0000E+00
    -28.833  0.0000E+00  0.0000E+00  0.0000E+00  0.0000E+00  0.0000E+00  0.0000E+00  0.0000E+00  0.0000E+00  0.0000E+00  0.0000E+00  0.0000E+00  0.0000E+00  0.0000E+00  0.0000E+00  0.0000E+00  0.0000E+00  0.0000E+00  0.0000E+00
    -28.707  0.0000E+00  0.0000E+00  0.0000E+00  0.0000E+00  0.0000E+00  0.0000E+00  0.0000E+00  0.0000E+00  0.0000E+00  0.0000E+00  0.0000E+00  0.0000E+00  0.0000E+00  0.0000E+00  0.0000E+00  0.0000E+00  0.0000E+00  0.0000E+00
    -28.581  0.0000E+00  0.0000E+00  0.0000E+00  0.0000E+00  0.0000E+00  0.0000E+00  0.0000E+00  0.0000E+00  0.0000E+00  0.0000E+00  0.0000E+00  0.0000E+00  0.0000E+00  0.0000E+00  0.0000E+00  0.0000E+00  0.0000E+00  0.0000E+00
    -28.455  0.0000E+00  0.0000E+00  0.0000E+00  0.0000E+00  0.0000E+00  0.0000E+00  0.0000E+00  0.0000E+00  0.0000E+00  0.0000E+00  0.0000E+00  0.0000E+00  0.0000E+00  0.0000E+00  0.0000E+00  0.0000E+00  0.0000E+00  0.0000E+00
    -28.329  0.0000E+00  0.0000E+00  0.0000E+00  0.0000E+00  0.0000E+00  0.0000E+00  0.0000E+00  0.0000E+00  0.0000E+00  0.0000E+00  0.0000E+00  0.0000E+00  0.0000E+00  0.0000E+00  0.0000E+00  0.0000E+00  0.0000E+00  0.0000E+00
    -28.203  0.0000E+00  0.0000E+00  0.0000E+00  0.0000E+00  0.0000E+00  0.0000E+00  0.0000E+00  0.0000E+00  0.0000E+00  0.0000E+00  0.0000E+00  0.0000E+00  0.0000E+00  0.0000E+00  0.0000E+00  0.0000E+00  0.0000E+00  0.0000E+00
    -28.077  0.0000E+00  0.0000E+00  0.0000E+00  0.0000E+00  0.0000E+00  0.0000E+00  0.0000E+00  0.0000E+00  0.0000E+00  0.0000E+00  0.0000E+00  0.0000E+00  0.0000E+00  0.0000E+00  0.0000E+00  0.0000E+00  0.0000E+00  0.0000E+00
    -27.951  0.0000E+00  0.0000E+00  0.0000E+00  0.0000E+00  0.0000E+00  0.0000E+00  0.0000E+00  0.0000E+00  0.0000E+00  0.0000E+00  0.0000E+00  0.0000E+00  0.0000E+00  0.0000E+00  0.0000E+00  0.0000E+00  0.0000E+00  0.0000E+00