       N       E                     dE             d eps       ncg     rms          rms(c)
DAV:   1     0.768962729444E+02    0.76896E+02   -0.27056E+03    96   0.305E+02
DAV:   2     0.848937017827E+01   -0.68407E+02   -0.66837E+02    88   0.974E+01
DAV:   3    -0.796931769645E+01   -0.16459E+02   -0.10717E+02   104   0.349E+01
DAV:   4    -0.897954866902E+01   -0.10102E+01   -0.10085E+01    80   0.746E+00
DAV:   5    -0.901316440801E+01   -0.33616E-01   -0.27693E-01    80   0.119E+00    0.445E+00
DAV:   6    -0.877403391392E+01    0.23913E+00   -0.26820E-01    64   0.325E+00    0.528E+00
DAV:   7    -0.888569175952E+01   -0.11166E+00   -0.23368E-01    80   0.216E+00    0.855E+00
DAV:   8    -0.698764919921E+01    0.18980E+01   -0.15451E+00    72   0.647E+00    0.432E+00
DAV:   9    -0.908040361870E+01   -0.20928E+01   -0.37900E-01    88   0.295E+00    0.555E+00
DAV:  10    -0.860747085743E+01    0.47293E+00   -0.28958E-01    72   0.239E+00    0.873E+00
DAV:  11    -0.838285930367E+01    0.22461E+00   -0.15410E-02    80   0.554E-01    0.925E+00
DAV:  12    -0.853315494741E+01   -0.15030E+00   -0.21115E-03    64   0.269E-01    0.878E+00
DAV:  13    -0.950027820199E+01   -0.96712E+00   -0.18066E-01    88   0.242E+00    0.427E+00
DAV:  14    -0.975950498853E+01   -0.25923E+00   -0.70208E-02    80   0.144E+00    0.160E+00
DAV:  15    -0.981737676340E+01   -0.57872E-01   -0.65900E-03    80   0.410E-01    0.912E-01
DAV:  16    -0.985378028772E+01   -0.36404E-01   -0.43827E-03    64   0.383E-01    0.219E-01
DAV:  17    -0.985552191024E+01   -0.17416E-02   -0.30450E-04    64   0.883E-02    0.721E-02
DAV:  18    -0.985562124172E+01   -0.99331E-04   -0.34466E-05    64   0.306E-02
   1 F= -.98556212E+01 E0= -.98556212E+01  d E =-.985562E+01  mag=     1.9992
       N       E                     dE             d eps       ncg     rms          rms(c)
DAV:   1    -0.947698628583E+01    0.37854E+00   -0.34178E+01    88   0.368E+01    0.215E+00
DAV:   2    -0.950131918378E+01   -0.24333E-01   -0.54161E-01    64   0.475E+00    0.107E+00
DAV:   3    -0.950812895796E+01   -0.68098E-02   -0.29805E-02    80   0.110E+00    0.478E-01
DAV:   4    -0.950818240312E+01   -0.53445E-04   -0.18127E-02    80   0.744E-01    0.161E-01
DAV:   5    -0.950966301954E+01   -0.14806E-02   -0.12926E-03    64   0.210E-01    0.875E-02
DAV:   6    -0.950993708219E+01   -0.27406E-03   -0.13624E-04    80   0.677E-02    0.308E-02
DAV:   7    -0.951022177771E+01   -0.28470E-03   -0.29854E-05    80   0.358E-02    0.639E-03
DAV:   8    -0.951035584280E+01   -0.13407E-03   -0.50556E-06    64   0.923E-03    0.426E-03
DAV:   9    -0.951057500107E+01   -0.21916E-03   -0.19830E-05    64   0.155E-02    0.202E-03
DAV:  10    -0.951064560940E+01   -0.70608E-04   -0.47586E-06    64   0.688E-03
   2 F= -.95106456E+01 E0= -.95106456E+01  d E =0.344976E+00  mag=     2.0000
       N       E                     dE             d eps       ncg     rms          rms(c)
DAV:   1    -0.985669978991E+01   -0.34612E+00   -0.27604E+01    96   0.325E+01    0.206E+00
DAV:   2    -0.985128233046E+01    0.54175E-02   -0.32279E-01    64   0.386E+00    0.865E-01
DAV:   3    -0.985967010100E+01   -0.83878E-02   -0.19709E-02    64   0.947E-01    0.380E-01
DAV:   4    -0.986208886888E+01   -0.24188E-02   -0.55309E-03    72   0.452E-01    0.139E-01
DAV:   5    -0.986330010290E+01   -0.12112E-02   -0.36598E-04    64   0.132E-01    0.673E-02
DAV:   6    -0.986367915950E+01   -0.37906E-03   -0.97166E-05    72   0.654E-02    0.147E-02
DAV:   7    -0.986377101661E+01   -0.91857E-04   -0.86966E-06    64   0.179E-02
   3 F= -.98637710E+01 E0= -.98637710E+01  d E =-.353125E+00  mag=     2.0000
       N       E                     dE             d eps       ncg     rms          rms(c)
DAV:   1    -0.986449582561E+01   -0.81667E-03   -0.32983E-02    88   0.112E+00    0.688E-02
DAV:   2    -0.986453824602E+01   -0.42420E-04   -0.43991E-04    72   0.140E-01
   4 F= -.98645382E+01 E0= -.98645382E+01  d E =-.767229E-03  mag=     2.0000
       N       E                     dE             d eps       ncg     rms          rms(c)
DAV:   1    -0.986464579733E+01   -0.14997E-03   -0.85346E-03    96   0.572E-01    0.454E-02
DAV:   2    -0.986466069873E+01   -0.14901E-04   -0.13632E-04    72   0.778E-02
   5 F= -.98646607E+01 E0= -.98646607E+01  d E =-.122453E-03  mag=     2.0000
