 vasp.5.4.1 05Feb16 (build Feb 08 2018 09:21:51) complex                        
  
 executed on             LinuxIFC date 2019.11.08  08:41:14
 running on    8 total cores
 distrk:  each k-point on    8 cores,    1 groups
 distr:  one band on NCORES_PER_BAND=   1 cores,    8 groups


--------------------------------------------------------------------------------------------------------


 INCAR:
 POTCAR:    PAW_PBE O 08Apr2002                   

 ----------------------------------------------------------------------------- 
|                                                                             |
|           W    W    AA    RRRRR   N    N  II  N    N   GGGG   !!!           |
|           W    W   A  A   R    R  NN   N  II  NN   N  G    G  !!!           |
|           W    W  A    A  R    R  N N  N  II  N N  N  G       !!!           |
|           W WW W  AAAAAA  RRRRR   N  N N  II  N  N N  G  GGG   !            |
|           WW  WW  A    A  R   R   N   NN  II  N   NN  G    G                |
|           W    W  A    A  R    R  N    N  II  N    N   GGGG   !!!           |
|                                                                             |
|      For optimal performance we recommend to set                            |
|        NCORE= 4 - approx SQRT( number of cores)                             |
|      NCORE specifies how many cores store one orbital (NPAR=cpu/NCORE).     |
|      This setting can  greatly improve the performance of VASP for DFT.     |
|      The default, NPAR=number of cores might be grossly inefficient         |
|      on modern multi-core architectures or massively parallel machines.     |
|      Do your own testing !!!!                                               |
|      Unfortunately you need to use the default for GW and RPA calculations. |
|      (for HF NCORE is supported but not extensively tested yet)             |
|                                                                             |
 ----------------------------------------------------------------------------- 

 POTCAR:    PAW_PBE O 08Apr2002                   
   VRHFIN =O: s2p4                                                              
   LEXCH  = PE                                                                  
   EATOM  =   432.3788 eV,   31.7789 Ry                                         
                                                                                
   TITEL  = PAW_PBE O 08Apr2002                                                 
   LULTRA =        F    use ultrasoft PP ?                                      
   IUNSCR =        1    unscreen: 0-lin 1-nonlin 2-no                           
   RPACOR =    1.200    partial core radius                                     
   POMASS =   16.000; ZVAL   =    6.000    mass and valenz                      
   RCORE  =    1.520    outmost cutoff radius                                   
   RWIGS  =    1.550; RWIGS  =    0.820    wigner-seitz radius (au A)           
   ENMAX  =  400.000; ENMIN  =  300.000 eV                                      
   ICORE  =        2    local potential                                         
   LCOR   =        T    correct aug charges                                     
   LPAW   =        T    paw PP                                                  
   EAUG   =  605.392                                                            
   DEXC   =    0.000                                                            
   RMAX   =    1.553    core radius for proj-oper                               
   RAUG   =    1.300    factor for augmentation sphere                          
   RDEP   =    1.550    radius for radial grids                                 
   RDEPT  =    1.329    core radius for aug-charge                              
                                                                                
   Atomic configuration                                                         
    4 entries                                                                   
     n  l   j            E        occ.                                          
     1  0  0.50      -514.6923   2.0000                                         
     2  0  0.50       -23.9615   2.0000                                         
     2  1  0.50        -9.0305   4.0000                                         
     3  2  1.50        -9.5241   0.0000                                         
   Description                                                                  
     l       E           TYP  RCUT    TYP  RCUT                                 
     0    -23.9615318     23  1.200                                             
     0     -9.5240782     23  1.200                                             
     1     -9.0304911     23  1.520                                             
     1      8.1634956     23  1.520                                             
     2     -9.5240782      7  1.500                                             
  local pseudopotential read in
  partial core-charges read in
  partial kinetic energy density read in
  kinetic energy density of atom read in
  atomic valenz-charges read in
  non local Contribution for L=           0  read in
    real space projection operators read in
  non local Contribution for L=           0  read in
    real space projection operators read in
  non local Contribution for L=           1  read in
    real space projection operators read in
  non local Contribution for L=           1  read in
    real space projection operators read in
    PAW grid and wavefunctions read in
 
   number of l-projection  operators is LMAX  =           4
   number of lm-projection operators is LMMAX =           8
 
  PAW_PBE O 08Apr2002                   :
 energy of atom  1       EATOM= -432.3788
 kinetic energy error for atom=    0.1156 (will be added to EATOM!!)
 
 
 POSCAR:  O                                      
  positions in cartesian coordinates
  No initial velocities read in
 exchange correlation table for  LEXCH =        8
   RHO(1)=    0.500       N(1)  =     2000
   RHO(2)=  100.500       N(2)  =     4000
 


--------------------------------------------------------------------------------------------------------


 ion  position               nearest neighbor table
   1  0.448  0.500  0.500-   2 1.25
   2  0.552  0.500  0.500-   1 1.25
 
  LATTYP: Found a simple cubic cell.
 ALAT       =    12.0000000000
  
  Lattice vectors:
  
 A1 = (  12.0000000000,   0.0000000000,   0.0000000000)
 A2 = (   0.0000000000,  12.0000000000,   0.0000000000)
 A3 = (   0.0000000000,   0.0000000000,  12.0000000000)


Analysis of symmetry for initial positions (statically):
=====================================================================
 Subroutine PRICEL returns:
 Original cell was already a primitive cell.
 

 Routine SETGRP: Setting up the symmetry group for a 
 simple cubic supercell.


 Subroutine GETGRP returns: Found 16 space group operations
 (whereof 16 operations were pure point group operations)
 out of a pool of 48 trial point group operations.


The static configuration has the point symmetry D_4h.


Analysis of symmetry for dynamics (positions and initial velocities):
=====================================================================
 Subroutine PRICEL returns:
 Original cell was already a primitive cell.
 

 Routine SETGRP: Setting up the symmetry group for a 
 simple cubic supercell.


 Subroutine GETGRP returns: Found 16 space group operations
 (whereof 16 operations were pure point group operations)
 out of a pool of 48 trial point group operations.


The dynamic configuration has the point symmetry D_4h.


Analysis of structural, dynamic, and magnetic symmetry:
=====================================================================
 Subroutine PRICEL returns:
 Original cell was already a primitive cell.
 

 Routine SETGRP: Setting up the symmetry group for a 
 simple cubic supercell.


 Subroutine GETGRP returns: Found 16 space group operations
 (whereof 16 operations were pure point group operations)
 out of a pool of 48 trial point group operations.


The magnetic configuration has the point symmetry D_4h.


 Subroutine INISYM returns: Found 16 space group operations
 (whereof 16 operations are pure point group operations),
 and found     1 'primitive' translations

 
 
 KPOINTS: KPOINTS created by Atomic Simulation Env

Automatic generation of k-mesh.
Space group operators:
 irot       det(A)        alpha          n_x          n_y          n_z        tau_x        tau_y        tau_z
    1     1.000000     0.000000     1.000000     0.000000     0.000000     0.000000     0.000000     0.000000
    2    -1.000000     0.000000     1.000000     0.000000     0.000000     0.000000     0.000000     0.000000
    3     1.000000   180.000000     0.000000     0.707107     0.707107     0.000000     0.000000     0.000000
    4    -1.000000   180.000000     0.000000     0.707107     0.707107     0.000000     0.000000     0.000000
    5     1.000000   180.000000     0.000000     0.000000     1.000000     0.000000     0.000000     0.000000
    6    -1.000000   180.000000     0.000000     0.000000     1.000000     0.000000     0.000000     0.000000
    7     1.000000    90.000000    -1.000000     0.000000     0.000000     0.000000     0.000000     0.000000
    8    -1.000000    90.000000    -1.000000     0.000000     0.000000     0.000000     0.000000     0.000000
    9     1.000000   180.000000     1.000000     0.000000     0.000000     0.000000     0.000000     0.000000
   10    -1.000000   180.000000     1.000000     0.000000     0.000000     0.000000     0.000000     0.000000
   11     1.000000    90.000000     1.000000     0.000000     0.000000     0.000000     0.000000     0.000000
   12    -1.000000    90.000000     1.000000     0.000000     0.000000     0.000000     0.000000     0.000000
   13     1.000000   180.000000     0.000000     1.000000     0.000000     0.000000     0.000000     0.000000
   14    -1.000000   180.000000     0.000000     1.000000     0.000000     0.000000     0.000000     0.000000
   15     1.000000   180.000000     0.000000    -0.707107     0.707107     0.000000     0.000000     0.000000
   16    -1.000000   180.000000     0.000000    -0.707107     0.707107     0.000000     0.000000     0.000000
 
 Subroutine IBZKPT returns following result:
 ===========================================
 
 Found      1 irreducible k-points:
 
 Following reciprocal coordinates:
            Coordinates               Weight
  0.000000  0.000000  0.000000      1.000000
 
 Following cartesian coordinates:
            Coordinates               Weight
  0.000000  0.000000  0.000000      1.000000
 


--------------------------------------------------------------------------------------------------------




 Dimension of arrays:
   k-points           NKPTS =      1   k-points in BZ     NKDIM =      1   number of bands    NBANDS=     16
   number of dos      NEDOS =    301   number of ions     NIONS =      2
   non local maximal  LDIM  =      4   non local SUM 2l+1 LMDIM =      8
   total plane-waves  NPLWV = 216000
   max r-space proj   IRMAX =      1   max aug-charges    IRDMAX=   1821
   dimension x,y,z NGX =    60 NGY =   60 NGZ =   60
   dimension x,y,z NGXF=   120 NGYF=  120 NGZF=  120
   support grid    NGXF=   120 NGYF=  120 NGZF=  120
   ions per type =               2
 NGX,Y,Z   is equivalent  to a cutoff of   8.31,  8.31,  8.31 a.u.
 NGXF,Y,Z  is equivalent  to a cutoff of  16.62, 16.62, 16.62 a.u.


 I would recommend the setting:
   dimension x,y,z NGX =    59 NGY =   59 NGZ =   59
 SYSTEM =  unknown system                          
 POSCAR =   O                                      

 Startparameter for this run:
   NWRITE =      2    write-flag & timer
   PREC   = normal    normal or accurate (medium, high low for compatibility)
   ISTART =      0    job   : 0-new  1-cont  2-samecut
   ICHARG =      2    charge: 1-file 2-atom 10-const
   ISPIN  =      2    spin polarized calculation?
   LNONCOLLINEAR =      F non collinear calculations
   LSORBIT =      F    spin-orbit coupling
   INIWAV =      1    electr: 0-lowe 1-rand  2-diag
   LASPH  =      F    aspherical Exc in radial PAW
   METAGGA=      F    non-selfconsistent MetaGGA calc.

 Electronic Relaxation 1
   ENCUT  =  400.0 eV  29.40 Ry    5.42 a.u.  19.57 19.57 19.57*2*pi/ulx,y,z
   ENINI  =  400.0     initial cutoff
   ENAUG  =  605.4 eV  augmentation charge cutoff
   NELM   =     60;   NELMIN=  2; NELMDL= -5     # of ELM steps 
   EDIFF  = 0.1E-03   stopping-criterion for ELM
   LREAL  =      F    real-space projection
   NLSPLINE    = F    spline interpolate recip. space projectors
   LCOMPAT=      F    compatible to vasp.4.4
   GGA_COMPAT  = T    GGA compatible to vasp.4.4-vasp.4.6
   LMAXPAW     = -100 max onsite density
   LMAXMIX     =    2 max onsite mixed and CHGCAR
   VOSKOWN=      0    Vosko Wilk Nusair interpolation
   ROPT   =    0.00000
 Ionic relaxation
   EDIFFG = 0.1E-02   stopping-criterion for IOM
   NSW    =     20    number of steps for IOM
   NBLOCK =      1;   KBLOCK =     20    inner block; outer block 
   IBRION =      1    ionic relax: 0-MD 1-quasi-New 2-CG
   NFREE  =      0    steps in history (QN), initial steepest desc. (CG)
   ISIF   =      2    stress and relaxation
   IWAVPR =     11    prediction:  0-non 1-charg 2-wave 3-comb
   ISYM   =      2    0-nonsym 1-usesym 2-fastsym
   LCORR  =      T    Harris-Foulkes like correction to forces

   POTIM  = 0.5000    time-step for ionic-motion
   TEIN   =    0.0    initial temperature
   TEBEG  =    0.0;   TEEND  =   0.0 temperature during run
   SMASS  =  -3.00    Nose mass-parameter (am)
   estimated Nose-frequenzy (Omega)   =  0.10E-29 period in steps =****** mass=  -0.329E-26a.u.
   SCALEE = 1.0000    scale energy and forces
   NPACO  =    256;   APACO  = 16.0  distance and # of slots for P.C.
   PSTRESS=    0.0 pullay stress

  Mass of Ions in am
   POMASS =  16.00
  Ionic Valenz
   ZVAL   =   6.00
  Atomic Wigner-Seitz radii
   RWIGS  =  -1.00
  virtual crystal weights 
   VCA    =   1.00
   NELECT =      12.0000    total number of electrons
   NUPDOWN=      -1.0000    fix difference up-down

 DOS related values:
   EMIN   =  10.00;   EMAX   =-10.00  energy-range for DOS
   EFERMI =   0.00
   ISMEAR =     0;   SIGMA  =   0.01  broadening in eV -4-tet -1-fermi 0-gaus

 Electronic relaxation 2 (details)
   IALGO  =     38    algorithm
   LDIAG  =      T    sub-space diagonalisation (order eigenvalues)
   LSUBROT=      F    optimize rotation matrix (better conditioning)
   TURBO    =      0    0=normal 1=particle mesh
   IRESTART =      0    0=no restart 2=restart with 2 vectors
   NREBOOT  =      0    no. of reboots
   NMIN     =      0    reboot dimension
   EREF     =   0.00    reference energy to select bands
   IMIX   =      4    mixing-type and parameters
     AMIX     =   0.40;   BMIX     =  1.00
     AMIX_MAG =   1.60;   BMIX_MAG =  1.00
     AMIN     =   0.10
     WC   =   100.;   INIMIX=   1;  MIXPRE=   1;  MAXMIX= -45

 Intra band minimization:
   WEIMIN = 0.0010     energy-eigenvalue tresh-hold
   EBREAK =  0.16E-05  absolut break condition
   DEPER  =   0.30     relativ break condition  

   TIME   =   0.40     timestep for ELM

  volume/ion in A,a.u.               =     864.00      5830.56
  Fermi-wavevector in a.u.,A,eV,Ry     =   0.312335  0.590228  1.327291  0.097553
  Thomas-Fermi vector in A             =   1.191693
 
 Write flags
   LWAVE  =      F    write WAVECAR
   LCHARG =      F    write CHGCAR
   LVTOT  =      F    write LOCPOT, total local potential
   LVHAR  =      F    write LOCPOT, Hartree potential only
   LELF   =      F    write electronic localiz. function (ELF)
   LORBIT =     11    0 simple, 1 ext, 2 COOP (PROOUT)


 Dipole corrections
   LMONO  =      F    monopole corrections only (constant potential shift)
   LDIPOL =      F    correct potential (dipole corrections)
   IDIPOL =      0    1-x, 2-y, 3-z, 4-all directions 
   EPSILON=  1.0000000 bulk dielectric constant

 Exchange correlation treatment:
   GGA     =    --    GGA type
   LEXCH   =     8    internal setting for exchange type
   VOSKOWN=      0    Vosko Wilk Nusair interpolation
   LHFCALC =     F    Hartree Fock is set to
   LHFONE  =     F    Hartree Fock one center treatment
   AEXX    =    0.0000 exact exchange contribution

 Linear response parameters
   LEPSILON=     F    determine dielectric tensor
   LRPA    =     F    only Hartree local field effects (RPA)
   LNABLA  =     F    use nabla operator in PAW spheres
   LVEL    =     F    velocity operator in full k-point grid
   LINTERFAST=   F  fast interpolation
   KINTER  =     0    interpolate to denser k-point grid
   CSHIFT  =0.1000    complex shift for real part using Kramers Kronig
   OMEGAMAX=  -1.0    maximum frequency
   DEG_THRESHOLD= 0.2000000E-02 threshold for treating states as degnerate
   RTIME   =    0.100 relaxation time in fs

 Orbital magnetization related:
   ORBITALMAG=     F  switch on orbital magnetization
   LCHIMAG   =     F  perturbation theory with respect to B field
   DQ        =  0.001000  dq finite difference perturbation B field



--------------------------------------------------------------------------------------------------------


 quasi-Newton-method for relaxation of ions
 charge density and potential will be updated during run
 spin polarized calculation
 Variant of blocked Davidson
 Davidson routine will perform the subspace rotation
 perform sub-space diagonalisation
    after iterative eigenvector-optimisation
 modified Broyden-mixing scheme, WC =      100.0
 initial mixing is a Kerker type mixing with AMIX =  0.4000 and BMIX =      1.0000
 Hartree-type preconditioning will be used
 using additional bands           10
 reciprocal scheme for non local part
 use partial core corrections
 calculate Harris-corrections to forces 
   (improved forces if not selfconsistent)
 use gradient corrections 
 use of overlap-Matrix (Vanderbilt PP)
 Gauss-broadening in eV      SIGMA  =   0.01


--------------------------------------------------------------------------------------------------------


  energy-cutoff  :      400.00
  volume of cell :     1728.00
      direct lattice vectors                 reciprocal lattice vectors
    12.000000000  0.000000000  0.000000000     0.083333333  0.000000000  0.000000000
     0.000000000 12.000000000  0.000000000     0.000000000  0.083333333  0.000000000
     0.000000000  0.000000000 12.000000000     0.000000000  0.000000000  0.083333333

  length of vectors
    12.000000000 12.000000000 12.000000000     0.083333333  0.083333333  0.083333333


 
 k-points in units of 2pi/SCALE and weight: KPOINTS created by Atomic Simulation Env
   0.00000000  0.00000000  0.00000000       1.000
 
 k-points in reciprocal lattice and weights: KPOINTS created by Atomic Simulation Env
   0.00000000  0.00000000  0.00000000       1.000
 
 position of ions in fractional coordinates (direct lattice) 
   0.44791667  0.50000000  0.50000000
   0.55208333  0.50000000  0.50000000
 
 position of ions in cartesian coordinates  (Angst):
   5.37500000  6.00000000  6.00000000
   6.62500000  6.00000000  6.00000000
 


--------------------------------------------------------------------------------------------------------


 k-point  1 :   0.0000 0.0000 0.0000  plane waves:   31439

 maximum and minimum number of plane-waves per node :     31439    31439

 maximum number of plane-waves:     31439
 maximum index in each direction: 
   IXMAX=   19   IYMAX=   19   IZMAX=   19
   IXMIN=  -19   IYMIN=  -19   IZMIN=  -19

 WARNING: aliasing errors must be expected set NGX to  78 to avoid them
 WARNING: aliasing errors must be expected set NGY to  78 to avoid them
 WARNING: aliasing errors must be expected set NGZ to  78 to avoid them
 aliasing errors are usually negligible using standard VASP settings
 and one can safely disregard these warnings

 serial   3D FFT for wavefunctions
 parallel 3D FFT for charge:
    minimum data exchange during FFTs selected (reduces bandwidth)


 total amount of memory used by VASP on root node    76450. kBytes
========================================================================

   base      :      30000. kBytes
   nonl-proj :       3018. kBytes
   fftplans  :       8259. kBytes
   grid      :      33148. kBytes
   one-center:         12. kBytes
   wavefun   :       2013. kBytes
 
     INWAV:  cpu time    0.0000: real time    0.0001
 Broyden mixing: mesh for mixing (old mesh)
   NGX = 39   NGY = 39   NGZ = 39
  (NGX  =120   NGY  =120   NGZ  =120)
  gives a total of  59319 points

 initial charge density was supplied:
 charge density of overlapping atoms calculated
 number of electron      12.0000000 magnetization       0.0000000
 keeping initial charge density in first step


--------------------------------------------------------------------------------------------------------


 Maximum index for augmentation-charges          206 (set IRDMAX)


--------------------------------------------------------------------------------------------------------


 First call to EWALD:  gamma=   0.148
 Maximum number of real-space cells 3x 3x 3
 Maximum number of reciprocal cells 3x 3x 3

 FEWALD executed in parallel
    FEWALD:  cpu time    0.0015: real time    0.0015


----------------------------------------- Iteration    1(   1)  ---------------------------------------


    POTLOK:  cpu time    0.3850: real time    0.3855
    SETDIJ:  cpu time    0.0065: real time    0.0065
     EDDAV:  cpu time    0.3325: real time    0.3325
       DOS:  cpu time    0.0002: real time    0.0002
    --------------------------------------------
      LOOP:  cpu time    0.7254: real time    0.7265

 eigenvalue-minimisations  :    96
 total energy-change (2. order) : 0.7689627E+02  (-0.2705621E+03)
 number of electron      12.0000000 magnetization       0.0000000
 augmentation part       12.0000000 magnetization       0.0000000

 Free energy of the ion-electron system (eV)
  ---------------------------------------------------
  alpha Z        PSCENC =         0.32165383
  Ewald energy   TEWEN  =       170.57256435
  -Hartree energ DENC   =      -899.13165751
  -exchange      EXHF   =         0.00000000
  -V(xc)+E(xc)   XCENC  =        54.25978282
  PAW double counting   =       693.09895092     -696.69629226
  entropy T*S    EENTRO =        -0.00000000
  eigenvalues    EBANDS =      -110.05512128
  atomic energy  EATOM  =       864.52639207
  Solvation  Ediel_sol  =         0.00000000
  ---------------------------------------------------
  free energy    TOTEN  =        76.89627294 eV

  energy without entropy =       76.89627294  energy(sigma->0) =       76.89627294


--------------------------------------------------------------------------------------------------------




----------------------------------------- Iteration    1(   2)  ---------------------------------------


     EDDAV:  cpu time    0.3235: real time    0.3239
       DOS:  cpu time    0.0002: real time    0.0002
    --------------------------------------------
      LOOP:  cpu time    0.3248: real time    0.3394

 eigenvalue-minimisations  :    88
 total energy-change (2. order) :-0.6840690E+02  (-0.6683659E+02)
 number of electron      12.0000000 magnetization       0.0000000
 augmentation part       12.0000000 magnetization       0.0000000

 Free energy of the ion-electron system (eV)
  ---------------------------------------------------
  alpha Z        PSCENC =         0.32165383
  Ewald energy   TEWEN  =       170.57256435
  -Hartree energ DENC   =      -899.13165751
  -exchange      EXHF   =         0.00000000
  -V(xc)+E(xc)   XCENC  =        54.25978282
  PAW double counting   =       693.09895092     -696.69629226
  entropy T*S    EENTRO =        -0.00234109
  eigenvalues    EBANDS =      -178.45968296
  atomic energy  EATOM  =       864.52639207
  Solvation  Ediel_sol  =         0.00000000
  ---------------------------------------------------
  free energy    TOTEN  =         8.48937018 eV

  energy without entropy =        8.49171127  energy(sigma->0) =        8.49054072


--------------------------------------------------------------------------------------------------------




----------------------------------------- Iteration    1(   3)  ---------------------------------------


     EDDAV:  cpu time    0.3997: real time    0.4001
       DOS:  cpu time    0.0001: real time    0.0001
    --------------------------------------------
      LOOP:  cpu time    0.4006: real time    0.4027

 eigenvalue-minimisations  :   104
 total energy-change (2. order) :-0.1645869E+02  (-0.1071731E+02)
 number of electron      12.0000000 magnetization       0.0000000
 augmentation part       12.0000000 magnetization       0.0000000

 Free energy of the ion-electron system (eV)
  ---------------------------------------------------
  alpha Z        PSCENC =         0.32165383
  Ewald energy   TEWEN  =       170.57256435
  -Hartree energ DENC   =      -899.13165751
  -exchange      EXHF   =         0.00000000
  -V(xc)+E(xc)   XCENC  =        54.25978282
  PAW double counting   =       693.09895092     -696.69629226
  entropy T*S    EENTRO =        -0.00000000
  eigenvalues    EBANDS =      -194.92071192
  atomic energy  EATOM  =       864.52639207
  Solvation  Ediel_sol  =         0.00000000
  ---------------------------------------------------
  free energy    TOTEN  =        -7.96931770 eV

  energy without entropy =       -7.96931770  energy(sigma->0) =       -7.96931770


--------------------------------------------------------------------------------------------------------




----------------------------------------- Iteration    1(   4)  ---------------------------------------


     EDDAV:  cpu time    0.3185: real time    0.3189
       DOS:  cpu time    0.0002: real time    0.0002
    --------------------------------------------
      LOOP:  cpu time    0.3195: real time    0.3216

 eigenvalue-minimisations  :    80
 total energy-change (2. order) :-0.1010231E+01  (-0.1008528E+01)
 number of electron      12.0000000 magnetization       0.0000000
 augmentation part       12.0000000 magnetization       0.0000000

 Free energy of the ion-electron system (eV)
  ---------------------------------------------------
  alpha Z        PSCENC =         0.32165383
  Ewald energy   TEWEN  =       170.57256435
  -Hartree energ DENC   =      -899.13165751
  -exchange      EXHF   =         0.00000000
  -V(xc)+E(xc)   XCENC  =        54.25978282
  PAW double counting   =       693.09895092     -696.69629226
  entropy T*S    EENTRO =        -0.00442305
  eigenvalues    EBANDS =      -195.92651984
  atomic energy  EATOM  =       864.52639207
  Solvation  Ediel_sol  =         0.00000000
  ---------------------------------------------------
  free energy    TOTEN  =        -8.97954867 eV

  energy without entropy =       -8.97512562  energy(sigma->0) =       -8.97733714


--------------------------------------------------------------------------------------------------------




----------------------------------------- Iteration    1(   5)  ---------------------------------------


     EDDAV:  cpu time    0.3179: real time    0.3185
       DOS:  cpu time    0.0018: real time    0.0018
    CHARGE:  cpu time    0.0957: real time    0.0958
    MIXING:  cpu time    0.0128: real time    0.0128
    --------------------------------------------
      LOOP:  cpu time    0.4291: real time    0.4315

 eigenvalue-minimisations  :    80
 total energy-change (2. order) :-0.3361574E-01  (-0.2769292E-01)
 number of electron      12.0000129 magnetization      -0.0021986
 augmentation part        1.1412500 magnetization       0.0024884

 Broyden mixing:
  rms(total) = 0.44518E+00    rms(broyden)= 0.44277E+00
  rms(prec ) = 0.48211E+00
  weight for this iteration     100.00

 Free energy of the ion-electron system (eV)
  ---------------------------------------------------
  alpha Z        PSCENC =         0.32165383
  Ewald energy   TEWEN  =       170.57256435
  -Hartree energ DENC   =      -899.13165751
  -exchange      EXHF   =         0.00000000
  -V(xc)+E(xc)   XCENC  =        54.25978282
  PAW double counting   =       693.09895092     -696.69629226
  entropy T*S    EENTRO =        -0.01124335
  eigenvalues    EBANDS =      -195.95331528
  atomic energy  EATOM  =       864.52639207
  Solvation  Ediel_sol  =         0.00000000
  ---------------------------------------------------
  free energy    TOTEN  =        -9.01316441 eV

  energy without entropy =       -9.00192106  energy(sigma->0) =       -9.00754273


--------------------------------------------------------------------------------------------------------




----------------------------------------- Iteration    1(   6)  ---------------------------------------


    POTLOK:  cpu time    0.3463: real time    0.3705
    SETDIJ:  cpu time    0.0065: real time    0.0065
     EDDAV:  cpu time    0.2380: real time    0.2381
       DOS:  cpu time    0.0002: real time    0.0002
    CHARGE:  cpu time    0.0808: real time    0.0808
    MIXING:  cpu time    0.0128: real time    0.0129
    --------------------------------------------
      LOOP:  cpu time    0.6859: real time    0.7246

 eigenvalue-minimisations  :    64
 total energy-change (2. order) : 0.2391305E+00  (-0.2681956E-01)
 number of electron      12.0000128 magnetization      -0.1264716
 augmentation part        1.1260172 magnetization       0.5625671

 Broyden mixing:
  rms(total) = 0.52766E+00    rms(broyden)= 0.52590E+00
  rms(prec ) = 0.53414E+00
  weight for this iteration     100.00

 eigenvalues of (default mixing * dielectric matrix)
  average eigenvalue GAMMA=   0.1056
  0.1056

 Free energy of the ion-electron system (eV)
  ---------------------------------------------------
  alpha Z        PSCENC =         0.32165383
  Ewald energy   TEWEN  =       170.57256435
  -Hartree energ DENC   =      -901.41173937
  -exchange      EXHF   =         0.00000000
  -V(xc)+E(xc)   XCENC  =        54.51968249
  PAW double counting   =       767.62887854     -771.23276534
  entropy T*S    EENTRO =        -0.00944296
  eigenvalues    EBANDS =      -193.68925753
  atomic energy  EATOM  =       864.52639207
  Solvation  Ediel_sol  =         0.00000000
  ---------------------------------------------------
  free energy    TOTEN  =        -8.77403391 eV

  energy without entropy =       -8.76459095  energy(sigma->0) =       -8.76931243


--------------------------------------------------------------------------------------------------------




----------------------------------------- Iteration    1(   7)  ---------------------------------------


    POTLOK:  cpu time    0.3430: real time    0.3432
    SETDIJ:  cpu time    0.0062: real time    0.0062
     EDDAV:  cpu time    0.2914: real time    0.2915
       DOS:  cpu time    0.0001: real time    0.0001
    CHARGE:  cpu time    0.0865: real time    0.0865
    MIXING:  cpu time    0.0148: real time    0.0148
    --------------------------------------------
      LOOP:  cpu time    0.7431: real time    0.7451

 eigenvalue-minimisations  :    80
 total energy-change (2. order) :-0.1116578E+00  (-0.2336823E-01)
 number of electron      12.0000128 magnetization       0.6954452
 augmentation part        1.1308285 magnetization       2.2171023

 Broyden mixing:
  rms(total) = 0.85484E+00    rms(broyden)= 0.85252E+00
  rms(prec ) = 0.85586E+00
  weight for this iteration     100.00

 eigenvalues of (default mixing * dielectric matrix)
  average eigenvalue GAMMA=   1.2507
  1.8120  0.6894

 Free energy of the ion-electron system (eV)
  ---------------------------------------------------
  alpha Z        PSCENC =         0.32165383
  Ewald energy   TEWEN  =       170.57256435
  -Hartree energ DENC   =      -901.89071360
  -exchange      EXHF   =         0.00000000
  -V(xc)+E(xc)   XCENC  =        54.79488750
  PAW double counting   =       786.21980299     -789.80758313
  entropy T*S    EENTRO =        -0.00000000
  eigenvalues    EBANDS =      -193.62269577
  atomic energy  EATOM  =       864.52639207
  Solvation  Ediel_sol  =         0.00000000
  ---------------------------------------------------
  free energy    TOTEN  =        -8.88569176 eV

  energy without entropy =       -8.88569176  energy(sigma->0) =       -8.88569176


--------------------------------------------------------------------------------------------------------




----------------------------------------- Iteration    1(   8)  ---------------------------------------


    POTLOK:  cpu time    0.3402: real time    0.3403
    SETDIJ:  cpu time    0.0060: real time    0.0060
     EDDAV:  cpu time    0.2654: real time    0.2654
       DOS:  cpu time    0.0001: real time    0.0001
    CHARGE:  cpu time    0.0879: real time    0.0879
    MIXING:  cpu time    0.0134: real time    0.0134
    --------------------------------------------
      LOOP:  cpu time    0.7142: real time    0.7156

 eigenvalue-minimisations  :    72
 total energy-change (2. order) : 0.1898043E+01  (-0.1545071E+00)
 number of electron      12.0000129 magnetization       0.6619020
 augmentation part        1.1302096 magnetization      -0.8440363

 Broyden mixing:
  rms(total) = 0.43192E+00    rms(broyden)= 0.39135E+00
  rms(prec ) = 0.39417E+00
  weight for this iteration     100.00

 eigenvalues of (default mixing * dielectric matrix)
  average eigenvalue GAMMA=   1.1403
  2.0660  0.7642  0.5908

 Free energy of the ion-electron system (eV)
  ---------------------------------------------------
  alpha Z        PSCENC =         0.32165383
  Ewald energy   TEWEN  =       170.57256435
  -Hartree energ DENC   =      -901.84377591
  -exchange      EXHF   =         0.00000000
  -V(xc)+E(xc)   XCENC  =        57.15723793
  PAW double counting   =       847.07251152     -850.56934498
  entropy T*S    EENTRO =        -0.00000000
  eigenvalues    EBANDS =      -194.22488801
  atomic energy  EATOM  =       864.52639207
  Solvation  Ediel_sol  =         0.00000000
  ---------------------------------------------------
  free energy    TOTEN  =        -6.98764920 eV

  energy without entropy =       -6.98764920  energy(sigma->0) =       -6.98764920


--------------------------------------------------------------------------------------------------------




----------------------------------------- Iteration    1(   9)  ---------------------------------------


    POTLOK:  cpu time    0.3369: real time    0.3369
    SETDIJ:  cpu time    0.0062: real time    0.0062
     EDDAV:  cpu time    0.3054: real time    0.3056
       DOS:  cpu time    0.0001: real time    0.0001
    CHARGE:  cpu time    0.0811: real time    0.0811
    MIXING:  cpu time    0.0131: real time    0.0131
    --------------------------------------------
      LOOP:  cpu time    0.7439: real time    0.7456

 eigenvalue-minimisations  :    88
 total energy-change (2. order) :-0.2092754E+01  (-0.3789987E-01)
 number of electron      12.0000128 magnetization       0.3645344
 augmentation part        1.1235932 magnetization      -1.1518523

 Broyden mixing:
  rms(total) = 0.55507E+00    rms(broyden)= 0.55390E+00
  rms(prec ) = 0.55416E+00
  weight for this iteration     100.00

 eigenvalues of (default mixing * dielectric matrix)
  average eigenvalue GAMMA=   1.0356
  2.0554  0.5390  0.7740  0.7740

 Free energy of the ion-electron system (eV)
  ---------------------------------------------------
  alpha Z        PSCENC =         0.32165383
  Ewald energy   TEWEN  =       170.57256435
  -Hartree energ DENC   =      -904.28377623
  -exchange      EXHF   =         0.00000000
  -V(xc)+E(xc)   XCENC  =        55.29422966
  PAW double counting   =       868.04441150     -871.55863151
  entropy T*S    EENTRO =        -0.00000000
  eigenvalues    EBANDS =      -191.99724729
  atomic energy  EATOM  =       864.52639207
  Solvation  Ediel_sol  =         0.00000000
  ---------------------------------------------------
  free energy    TOTEN  =        -9.08040362 eV

  energy without entropy =       -9.08040362  energy(sigma->0) =       -9.08040362


--------------------------------------------------------------------------------------------------------




----------------------------------------- Iteration    1(  10)  ---------------------------------------


    POTLOK:  cpu time    0.3279: real time    0.3281
    SETDIJ:  cpu time    0.0085: real time    0.0085
     EDDAV:  cpu time    0.2303: real time    0.2306
       DOS:  cpu time    0.0004: real time    0.0004
    CHARGE:  cpu time    0.0853: real time    0.0855
    MIXING:  cpu time    0.0151: real time    0.0151
    --------------------------------------------
      LOOP:  cpu time    0.6686: real time    0.6708

 eigenvalue-minimisations  :    72
 total energy-change (2. order) : 0.4729328E+00  (-0.2895815E-01)
 number of electron      12.0000127 magnetization       0.2914783
 augmentation part        1.1141110 magnetization      -1.2420202

 Broyden mixing:
  rms(total) = 0.87348E+00    rms(broyden)= 0.87347E+00
  rms(prec ) = 0.87356E+00
  weight for this iteration     100.00

 eigenvalues of (default mixing * dielectric matrix)
  average eigenvalue GAMMA=   0.8892
  2.0603  0.5201  0.7399  0.7399  0.3856

 Free energy of the ion-electron system (eV)
  ---------------------------------------------------
  alpha Z        PSCENC =         0.32165383
  Ewald energy   TEWEN  =       170.57256435
  -Hartree energ DENC   =      -904.95987140
  -exchange      EXHF   =         0.00000000
  -V(xc)+E(xc)   XCENC  =        55.22601015
  PAW double counting   =       875.11204517     -878.65427914
  entropy T*S    EENTRO =        -0.00000000
  eigenvalues    EBANDS =      -190.75198589
  atomic energy  EATOM  =       864.52639207
  Solvation  Ediel_sol  =         0.00000000
  ---------------------------------------------------
  free energy    TOTEN  =        -8.60747086 eV

  energy without entropy =       -8.60747086  energy(sigma->0) =       -8.60747086


--------------------------------------------------------------------------------------------------------




----------------------------------------- Iteration    1(  11)  ---------------------------------------


    POTLOK:  cpu time    0.3183: real time    0.3186
    SETDIJ:  cpu time    0.0061: real time    0.0061
     EDDAV:  cpu time    0.2408: real time    0.2409
       DOS:  cpu time    0.0001: real time    0.0001
    CHARGE:  cpu time    0.0789: real time    0.0790
    MIXING:  cpu time    0.0144: real time    0.0144
    --------------------------------------------
      LOOP:  cpu time    0.6598: real time    0.6618

 eigenvalue-minimisations  :    80
 total energy-change (2. order) : 0.2246116E+00  (-0.1541028E-02)
 number of electron      12.0000127 magnetization       0.3668798
 augmentation part        1.1155251 magnetization      -1.1660881

 Broyden mixing:
  rms(total) = 0.92499E+00    rms(broyden)= 0.92498E+00
  rms(prec ) = 0.92505E+00
  weight for this iteration     100.00

 eigenvalues of (default mixing * dielectric matrix)
  average eigenvalue GAMMA=   0.7421
  2.0657  0.5160  0.7135  0.7135  0.2957  0.1480

 Free energy of the ion-electron system (eV)
  ---------------------------------------------------
  alpha Z        PSCENC =         0.32165383
  Ewald energy   TEWEN  =       170.57256435
  -Hartree energ DENC   =      -904.86683270
  -exchange      EXHF   =         0.00000000
  -V(xc)+E(xc)   XCENC  =        55.33941005
  PAW double counting   =       875.12795502     -878.66884574
  entropy T*S    EENTRO =        -0.00000000
  eigenvalues    EBANDS =      -190.73515620
  atomic energy  EATOM  =       864.52639207
  Solvation  Ediel_sol  =         0.00000000
  ---------------------------------------------------
  free energy    TOTEN  =        -8.38285930 eV

  energy without entropy =       -8.38285930  energy(sigma->0) =       -8.38285930


--------------------------------------------------------------------------------------------------------




----------------------------------------- Iteration    1(  12)  ---------------------------------------


    POTLOK:  cpu time    0.3215: real time    0.3215
    SETDIJ:  cpu time    0.0059: real time    0.0059
     EDDAV:  cpu time    0.2057: real time    0.2057
       DOS:  cpu time    0.0001: real time    0.0001
    CHARGE:  cpu time    0.0872: real time    0.0872
    MIXING:  cpu time    0.0161: real time    0.0161
    --------------------------------------------
      LOOP:  cpu time    0.6375: real time    0.6389

 eigenvalue-minimisations  :    64
 total energy-change (2. order) :-0.1502956E+00  (-0.2111519E-03)
 number of electron      12.0000127 magnetization       1.1310640
 augmentation part        1.1157987 magnetization      -0.4008743

 Broyden mixing:
  rms(total) = 0.87769E+00    rms(broyden)= 0.87769E+00
  rms(prec ) = 0.87776E+00
  weight for this iteration     100.00

 eigenvalues of (default mixing * dielectric matrix)
  average eigenvalue GAMMA=   0.9971
  1.3864  1.9543  0.4734  1.0365  1.0365  0.5462  0.5462

 Free energy of the ion-electron system (eV)
  ---------------------------------------------------
  alpha Z        PSCENC =         0.32165383
  Ewald energy   TEWEN  =       170.57256435
  -Hartree energ DENC   =      -904.90253655
  -exchange      EXHF   =         0.00000000
  -V(xc)+E(xc)   XCENC  =        55.28578093
  PAW double counting   =       875.08268556     -878.62206895
  entropy T*S    EENTRO =        -0.00000000
  eigenvalues    EBANDS =      -190.79762619
  atomic energy  EATOM  =       864.52639207
  Solvation  Ediel_sol  =         0.00000000
  ---------------------------------------------------
  free energy    TOTEN  =        -8.53315495 eV

  energy without entropy =       -8.53315495  energy(sigma->0) =       -8.53315495


--------------------------------------------------------------------------------------------------------




----------------------------------------- Iteration    1(  13)  ---------------------------------------


    POTLOK:  cpu time    0.3164: real time    0.3164
    SETDIJ:  cpu time    0.0073: real time    0.0073
     EDDAV:  cpu time    0.2600: real time    0.2605
       DOS:  cpu time    0.0001: real time    0.0001
    CHARGE:  cpu time    0.0880: real time    0.0880
    MIXING:  cpu time    0.0183: real time    0.0183
    --------------------------------------------
      LOOP:  cpu time    0.6913: real time    0.6932

 eigenvalue-minimisations  :    88
 total energy-change (2. order) :-0.9671233E+00  (-0.1806630E-01)
 number of electron      12.0000127 magnetization       1.6498664
 augmentation part        1.1192585 magnetization       0.1312837

 Broyden mixing:
  rms(total) = 0.42669E+00    rms(broyden)= 0.42668E+00
  rms(prec ) = 0.42676E+00
  weight for this iteration     100.00

 eigenvalues of (default mixing * dielectric matrix)
  average eigenvalue GAMMA=   1.1914
  1.8528  2.4372  0.4762  1.4250  1.4250  0.6575  0.6288  0.6288

 Free energy of the ion-electron system (eV)
  ---------------------------------------------------
  alpha Z        PSCENC =         0.32165383
  Ewald energy   TEWEN  =       170.57256435
  -Hartree energ DENC   =      -905.32512601
  -exchange      EXHF   =         0.00000000
  -V(xc)+E(xc)   XCENC  =        55.12005331
  PAW double counting   =       880.82042897     -884.33118285
  entropy T*S    EENTRO =        -0.00000000
  eigenvalues    EBANDS =      -191.20506187
  atomic energy  EATOM  =       864.52639207
  Solvation  Ediel_sol  =         0.00000000
  ---------------------------------------------------
  free energy    TOTEN  =        -9.50027820 eV

  energy without entropy =       -9.50027820  energy(sigma->0) =       -9.50027820


--------------------------------------------------------------------------------------------------------




----------------------------------------- Iteration    1(  14)  ---------------------------------------


    POTLOK:  cpu time    0.3142: real time    0.3142
    SETDIJ:  cpu time    0.0059: real time    0.0059
     EDDAV:  cpu time    0.2530: real time    0.2547
       DOS:  cpu time    0.0001: real time    0.0001
    CHARGE:  cpu time    0.0811: real time    0.0813
    MIXING:  cpu time    0.0175: real time    0.0175
    --------------------------------------------
      LOOP:  cpu time    0.6728: real time    0.6764

 eigenvalue-minimisations  :    80
 total energy-change (2. order) :-0.2592268E+00  (-0.7020774E-02)
 number of electron      12.0000128 magnetization       1.8038513
 augmentation part        1.1219975 magnetization       0.2921015

 Broyden mixing:
  rms(total) = 0.15978E+00    rms(broyden)= 0.15975E+00
  rms(prec ) = 0.15983E+00
  weight for this iteration     100.00

 eigenvalues of (default mixing * dielectric matrix)
  average eigenvalue GAMMA=   1.1905
  1.9007  2.5204  1.5863  1.5863  0.4763  0.6284  0.6284  0.6937  0.6937

 Free energy of the ion-electron system (eV)
  ---------------------------------------------------
  alpha Z        PSCENC =         0.32165383
  Ewald energy   TEWEN  =       170.57256435
  -Hartree energ DENC   =      -905.36889198
  -exchange      EXHF   =         0.00000000
  -V(xc)+E(xc)   XCENC  =        55.18710152
  PAW double counting   =       888.05758300     -891.54038848
  entropy T*S    EENTRO =        -0.00000000
  eigenvalues    EBANDS =      -191.51551930
  atomic energy  EATOM  =       864.52639207
  Solvation  Ediel_sol  =         0.00000000
  ---------------------------------------------------
  free energy    TOTEN  =        -9.75950499 eV

  energy without entropy =       -9.75950499  energy(sigma->0) =       -9.75950499


--------------------------------------------------------------------------------------------------------




----------------------------------------- Iteration    1(  15)  ---------------------------------------


    POTLOK:  cpu time    0.3244: real time    0.3247
    SETDIJ:  cpu time    0.0058: real time    0.0059
     EDDAV:  cpu time    0.2436: real time    0.2436
       DOS:  cpu time    0.0001: real time    0.0001
    CHARGE:  cpu time    0.0826: real time    0.0826
    MIXING:  cpu time    0.0181: real time    0.0181
    --------------------------------------------
      LOOP:  cpu time    0.6759: real time    0.6891

 eigenvalue-minimisations  :    80
 total energy-change (2. order) :-0.5787177E-01  (-0.6590046E-03)
 number of electron      12.0000128 magnetization       1.9544590
 augmentation part        1.1231748 magnetization       0.4438963

 Broyden mixing:
  rms(total) = 0.91191E-01    rms(broyden)= 0.91182E-01
  rms(prec ) = 0.91219E-01
  weight for this iteration     100.00

 eigenvalues of (default mixing * dielectric matrix)
  average eigenvalue GAMMA=   1.2235
  1.9353  0.4763  2.2363  1.9680  1.7738  1.1317  0.6454  0.6454  0.7368  0.6860

 Free energy of the ion-electron system (eV)
  ---------------------------------------------------
  alpha Z        PSCENC =         0.32165383
  Ewald energy   TEWEN  =       170.57256435
  -Hartree energ DENC   =      -905.20687302
  -exchange      EXHF   =         0.00000000
  -V(xc)+E(xc)   XCENC  =        55.18316937
  PAW double counting   =       887.70362513     -891.18201144
  entropy T*S    EENTRO =        -0.00000000
  eigenvalues    EBANDS =      -191.73589706
  atomic energy  EATOM  =       864.52639207
  Solvation  Ediel_sol  =         0.00000000
  ---------------------------------------------------
  free energy    TOTEN  =        -9.81737676 eV

  energy without entropy =       -9.81737676  energy(sigma->0) =       -9.81737676


--------------------------------------------------------------------------------------------------------




----------------------------------------- Iteration    1(  16)  ---------------------------------------


    POTLOK:  cpu time    0.3444: real time    0.3448
    SETDIJ:  cpu time    0.0054: real time    0.0055
     EDDAV:  cpu time    0.2528: real time    0.2531
       DOS:  cpu time    0.0001: real time    0.0001
    CHARGE:  cpu time    0.0847: real time    0.0848
    MIXING:  cpu time    0.0192: real time    0.0193
    --------------------------------------------
      LOOP:  cpu time    0.7081: real time    0.7157

 eigenvalue-minimisations  :    64
 total energy-change (2. order) :-0.3640352E-01  (-0.4382699E-03)
 number of electron      12.0000128 magnetization       1.9863102
 augmentation part        1.1241686 magnetization       0.4775289

 Broyden mixing:
  rms(total) = 0.21936E-01    rms(broyden)= 0.21919E-01
  rms(prec ) = 0.21975E-01
  weight for this iteration     100.00

 eigenvalues of (default mixing * dielectric matrix)
  average eigenvalue GAMMA=   1.2293
  1.9392  2.5011  2.5011  0.4764  1.3760  1.3760  0.6514  0.6514  0.7919  0.6288
  0.6288

 Free energy of the ion-electron system (eV)
  ---------------------------------------------------
  alpha Z        PSCENC =         0.32165383
  Ewald energy   TEWEN  =       170.57256435
  -Hartree energ DENC   =      -905.08428245
  -exchange      EXHF   =         0.00000000
  -V(xc)+E(xc)   XCENC  =        55.19407463
  PAW double counting   =       886.64376577     -890.11766642
  entropy T*S    EENTRO =        -0.00000000
  eigenvalues    EBANDS =      -191.91028207
  atomic energy  EATOM  =       864.52639207
  Solvation  Ediel_sol  =         0.00000000
  ---------------------------------------------------
  free energy    TOTEN  =        -9.85378029 eV

  energy without entropy =       -9.85378029  energy(sigma->0) =       -9.85378029


--------------------------------------------------------------------------------------------------------




----------------------------------------- Iteration    1(  17)  ---------------------------------------


    POTLOK:  cpu time    0.3508: real time    0.3513
    SETDIJ:  cpu time    0.0053: real time    0.0053
     EDDAV:  cpu time    0.2529: real time    0.2534
       DOS:  cpu time    0.0001: real time    0.0001
    CHARGE:  cpu time    0.0852: real time    0.0855
    MIXING:  cpu time    0.0199: real time    0.0199
    --------------------------------------------
      LOOP:  cpu time    0.7155: real time    0.7238

 eigenvalue-minimisations  :    64
 total energy-change (2. order) :-0.1741623E-02  (-0.3044995E-04)
 number of electron      12.0000128 magnetization       1.9935950
 augmentation part        1.1242335 magnetization       0.4850983

 Broyden mixing:
  rms(total) = 0.72146E-02    rms(broyden)= 0.72081E-02
  rms(prec ) = 0.73278E-02
  weight for this iteration     100.00

 eigenvalues of (default mixing * dielectric matrix)
  average eigenvalue GAMMA=   1.2242
  1.9398  2.5361  2.5361  0.4764  1.4393  1.4393  0.9428  0.7388  0.7388  0.6397
  0.6397  0.6241

 Free energy of the ion-electron system (eV)
  ---------------------------------------------------
  alpha Z        PSCENC =         0.32165383
  Ewald energy   TEWEN  =       170.57256435
  -Hartree energ DENC   =      -905.11111137
  -exchange      EXHF   =         0.00000000
  -V(xc)+E(xc)   XCENC  =        55.20413937
  PAW double counting   =       886.34386007     -889.81988742
  entropy T*S    EENTRO =        -0.00000000
  eigenvalues    EBANDS =      -191.89313283
  atomic energy  EATOM  =       864.52639207
  Solvation  Ediel_sol  =         0.00000000
  ---------------------------------------------------
  free energy    TOTEN  =        -9.85552191 eV

  energy without entropy =       -9.85552191  energy(sigma->0) =       -9.85552191


--------------------------------------------------------------------------------------------------------




----------------------------------------- Iteration    1(  18)  ---------------------------------------


    POTLOK:  cpu time    0.3264: real time    0.3264
    SETDIJ:  cpu time    0.0061: real time    0.0061
     EDDAV:  cpu time    0.2095: real time    0.2102
       DOS:  cpu time    0.0001: real time    0.0001
    --------------------------------------------
      LOOP:  cpu time    0.5432: real time    0.5459

 eigenvalue-minimisations  :    64
 total energy-change (2. order) :-0.9933148E-04  (-0.3446641E-05)
 number of electron      12.0000128 magnetization       1.9935950
 augmentation part        1.1242335 magnetization       0.4850983

 Free energy of the ion-electron system (eV)
  ---------------------------------------------------
  alpha Z        PSCENC =         0.32165383
  Ewald energy   TEWEN  =       170.57256435
  -Hartree energ DENC   =      -905.17752905
  -exchange      EXHF   =         0.00000000
  -V(xc)+E(xc)   XCENC  =        55.20963505
  PAW double counting   =       886.48067210     -889.95937061
  entropy T*S    EENTRO =        -0.00000000
  eigenvalues    EBANDS =      -191.82963898
  atomic energy  EATOM  =       864.52639207
  Solvation  Ediel_sol  =         0.00000000
  ---------------------------------------------------
  free energy    TOTEN  =        -9.85562124 eV

  energy without entropy =       -9.85562124  energy(sigma->0) =       -9.85562124


--------------------------------------------------------------------------------------------------------




 average (electrostatic) potential at core
  the test charge radii are     0.7215
  (the norm of the test charge is              1.0000)
       1 -83.8796       2 -83.8796
 
 
 
 E-fermi :  -6.9934     XC(G=0):  -0.4581     alpha+bet : -0.0867


 spin component 1

 k-point     1 :       0.0000    0.0000    0.0000
  band No.  band energies     occupation 
      1     -32.2025      1.00000
      2     -20.7881      1.00000
      3     -13.3854      1.00000
      4     -13.1373      1.00000
      5     -13.1373      1.00000
      6      -7.0722      1.00000
      7      -7.0722      1.00000
      8      -0.3655      0.00000
      9       0.5007      0.00000
     10       0.6472      0.00000
     11       0.6879      0.00000
     12       0.6879      0.00000
     13       0.7429      0.00000
     14       0.8299      0.00000
     15       1.3430      0.00000
     16       1.6847      0.00000

 spin component 2

 k-point     1 :       0.0000    0.0000    0.0000
  band No.  band energies     occupation 
      1     -30.9688      1.00000
      2     -18.9964      1.00000
      3     -12.4720      1.00000
      4     -11.2987      1.00000
      5     -11.2987      1.00000
      6      -4.8098      0.00000
      7      -4.8098      0.00000
      8      -0.2321      0.00000
      9       0.6435      0.00000
     10       0.7613      0.00000
     11       0.8265      0.00000
     12       0.8265      0.00000
     13       0.8695      0.00000
     14       0.9565      0.00000
     15       1.5276      0.00000
     16       1.7301      0.00000


--------------------------------------------------------------------------------------------------------


 soft charge-density along one line, spin component           1
         0         1         2         3         4         5         6         7         8         9
 total charge-density along one line
 
 soft charge-density along one line, spin component           2
         0         1         2         3         4         5         6         7         8         9
 total charge-density along one line
 
 pseudopotential strength for first ion, spin component:           1
 14.563 -17.908   0.000  -0.000  -0.123  -0.000   0.000   0.154
-17.908  22.056  -0.000   0.000   0.157   0.000  -0.000  -0.198
  0.000  -0.000 -11.436   0.000  -0.000  14.335  -0.000   0.000
 -0.000   0.000   0.000 -11.436   0.000  -0.000  14.335  -0.000
 -0.123   0.157  -0.000   0.000 -11.433   0.000  -0.000  14.318
 -0.000   0.000  14.335  -0.000   0.000 -17.929   0.000  -0.000
  0.000  -0.000  -0.000  14.335  -0.000   0.000 -17.929   0.000
  0.154  -0.198   0.000  -0.000  14.318  -0.000   0.000 -17.892
 pseudopotential strength for first ion, spin component:           2
 14.038 -17.230   0.000  -0.000  -0.122  -0.000   0.000   0.153
-17.230  21.181  -0.000   0.000   0.155   0.000  -0.000  -0.196
  0.000  -0.000 -10.830   0.000   0.000  13.485  -0.000  -0.000
 -0.000   0.000   0.000 -10.830   0.000  -0.000  13.485  -0.000
 -0.122   0.155   0.000   0.000 -11.222  -0.000  -0.000  14.023
 -0.000   0.000  13.485  -0.000  -0.000 -16.731   0.000   0.000
  0.000  -0.000  -0.000  13.485  -0.000   0.000 -16.731   0.000
  0.153  -0.196  -0.000  -0.000  14.023   0.000   0.000 -17.475
 total augmentation occupancy for first ion, spin component:           1
  2.639   0.388   0.000   0.000   0.477   0.000  -0.000   0.232
  0.388   0.177  -0.000  -0.000   0.514  -0.000   0.000   0.156
  0.000  -0.000   1.741   0.000   0.000   0.106   0.000   0.000
  0.000  -0.000   0.000   1.741  -0.000   0.000   0.106   0.000
  0.477   0.514   0.000  -0.000   2.383   0.000  -0.000   0.528
  0.000  -0.000   0.106   0.000   0.000   0.028   0.000   0.000
 -0.000   0.000   0.000   0.106  -0.000   0.000   0.028  -0.000
  0.232   0.156   0.000   0.000   0.528   0.000  -0.000   0.147
 total augmentation occupancy for first ion, spin component:           2
 -0.102  -0.059   0.000   0.000  -0.015   0.000   0.000  -0.014
 -0.059  -0.011   0.000   0.000  -0.010   0.000   0.000  -0.006
  0.000   0.000   0.370   0.000   0.000  -0.082   0.000   0.000
  0.000   0.000   0.000   0.370  -0.000   0.000  -0.082   0.000
 -0.015  -0.010   0.000  -0.000  -0.037   0.000   0.000  -0.018
  0.000   0.000  -0.082   0.000   0.000   0.002   0.000   0.000
  0.000   0.000   0.000  -0.082   0.000   0.000   0.002   0.000
 -0.014  -0.006   0.000   0.000  -0.018   0.000   0.000  -0.006


------------------------ aborting loop because EDIFF is reached ----------------------------------------


 


 total charge     
 
# of ion     s       p       d       tot
----------------------------------------
  1        1.638   3.263   0.000   4.901
  2        1.638   3.263   0.000   4.901
------------------------------------------------
tot        3.275   6.527   0.000   9.802
 


 magnetization (x)
 
# of ion     s       p       d       tot
----------------------------------------
  1        0.010   0.807   0.000   0.817
  2        0.010   0.807   0.000   0.817
------------------------------------------------
tot        0.020   1.614   0.000   1.634
 
    CHARGE:  cpu time    0.0960: real time    0.0960
    FORLOC:  cpu time    0.0078: real time    0.0078
    FORNL :  cpu time    0.0511: real time    0.0511
    STRESS:  cpu time    0.1866: real time    0.1866
    FORCOR:  cpu time    0.3027: real time    0.3028
    FORHAR:  cpu time    0.0368: real time    0.0368
    MIXING:  cpu time    0.0213: real time    0.0213
    OFIELD:  cpu time    0.0001: real time    0.0001

  FORCE on cell =-STRESS in cart. coord.  units (eV):
  Direction    XX          YY          ZZ          XY          YZ          ZX
  --------------------------------------------------------------------------------------
  Alpha Z     0.32165     0.32165     0.32165
  Ewald     334.97271   -82.20010   -82.20010     0.00000     0.00000     0.00000
  Hartree   433.50288   235.89330   235.89330    -0.00000    -0.00000    -0.00000
  E(xc)     -57.83306   -58.97726   -58.97726    -0.00000     0.00000    -0.00000
  Local    -908.54312  -336.71864  -336.71864    -0.00000     0.00000     0.00000
  n-local   -47.11835   -44.11952   -44.11950     0.00000    -0.00000    -0.00000
  augment    10.33155    12.87586    12.87586     0.00000     0.00000     0.00000
  Kinetic   231.89092   271.40142   271.40137     0.00000     0.00001    -0.00000
  Fock        0.00000     0.00000     0.00000     0.00000     0.00000     0.00000
  -------------------------------------------------------------------------------------
  Total      -2.47481    -1.52331    -1.52331     0.00000     0.00000     0.00000
  in kB      -2.29460    -1.41239    -1.41239     0.00000     0.00000     0.00000
  external pressure =       -1.71 kB  Pullay stress =        0.00 kB


 VOLUME and BASIS-vectors are now :
 -----------------------------------------------------------------------------
  energy-cutoff  :      400.00
  volume of cell :     1728.00
      direct lattice vectors                 reciprocal lattice vectors
    12.000000000  0.000000000  0.000000000     0.083333333  0.000000000  0.000000000
     0.000000000 12.000000000  0.000000000     0.000000000  0.083333333  0.000000000
     0.000000000  0.000000000 12.000000000     0.000000000  0.000000000  0.083333333

  length of vectors
    12.000000000 12.000000000 12.000000000     0.083333333  0.083333333  0.083333333


 FORCES acting on ions
    electron-ion (+dipol)            ewald-force                    non-local-force                 convergence-correction
 -----------------------------------------------------------------------------------------------
   0.281E+03 0.141E-11 -.162E-04   -.330E+03 -.155E-16 -.325E-16   0.506E+02 0.000E+00 0.000E+00   0.134E-01 -.242E-13 -.318E-14
   -.281E+03 -.402E-12 0.162E-04   0.330E+03 0.246E-16 0.278E-16   -.506E+02 0.414E-24 0.000E+00   -.134E-01 0.214E-13 -.237E-13
 -----------------------------------------------------------------------------------------------
   -.145E-13 0.101E-11 0.811E-12   0.000E+00 0.908E-17 -.466E-17   0.000E+00 0.414E-24 0.000E+00   -.275E-13 -.275E-14 -.269E-13
 
 
 POSITION                                       TOTAL-FORCE (eV/Angst)
 -----------------------------------------------------------------------------------
      5.37500      6.00000      6.00000         1.081512     -0.000000     -0.000000
      6.62500      6.00000      6.00000        -1.081512      0.000000      0.000000
 -----------------------------------------------------------------------------------
    total drift:                               -0.000000      0.000000      0.000000


--------------------------------------------------------------------------------------------------------



  FREE ENERGIE OF THE ION-ELECTRON SYSTEM (eV)
  ---------------------------------------------------
  free  energy   TOTEN  =        -9.85562124 eV

  energy  without entropy=       -9.85562124  energy(sigma->0) =       -9.85562124
 


--------------------------------------------------------------------------------------------------------


    POTLOK:  cpu time    0.3204: real time    0.3205


--------------------------------------------------------------------------------------------------------


 Quasi-Newton relaxation of ions (Broydens 2nd method)
  g(Force)  = 0.113E+00   g(Stress)= 0.000E+00

 Reset! Starting new Quasi-Newton update for ions 


--------------------------------------------------------------------------------------------------------


    WAVPRE:  cpu time    0.0248: real time    0.0249
 FEWALD executed in parallel
    FEWALD:  cpu time    0.0016: real time    0.0016
    ORTHCH:  cpu time    0.0134: real time    0.0134
     LOOP+:  cpu time   12.1315: real time   12.2455


----------------------------------------- Iteration    2(   1)  ---------------------------------------


    POTLOK:  cpu time    0.3119: real time    0.3120
    SETDIJ:  cpu time    0.0059: real time    0.0059
     EDDAV:  cpu time    0.2589: real time    0.2590
       DOS:  cpu time    0.0001: real time    0.0001
    CHARGE:  cpu time    0.0824: real time    0.0825
    MIXING:  cpu time    0.0115: real time    0.0115
    --------------------------------------------
      LOOP:  cpu time    0.6717: real time    0.6723

 eigenvalue-minimisations  :    88
 total energy-change (2. order) : 0.3785356E+00  (-0.3417781E+01)
 number of electron      12.0000118 magnetization       1.9994501
 augmentation part        1.2057547 magnetization       0.4969277

 Broyden mixing:
  rms(total) = 0.21548E+00    rms(broyden)= 0.21155E+00
  rms(prec ) = 0.22093E+00
  weight for this iteration     100.00

 Free energy of the ion-electron system (eV)
  ---------------------------------------------------
  alpha Z        PSCENC =         0.32165383
  Ewald energy   TEWEN  =       208.18448819
  -Hartree energ DENC   =      -932.12892933
  -exchange      EXHF   =         0.00000000
  -V(xc)+E(xc)   XCENC  =        55.72106577
  PAW double counting   =       886.62780481     -890.10788866
  entropy T*S    EENTRO =        -0.00000000
  eigenvalues    EBANDS =      -202.62157297
  atomic energy  EATOM  =       864.52639207
  Solvation  Ediel_sol  =         0.00000000
  ---------------------------------------------------
  free energy    TOTEN  =        -9.47698629 eV

  energy without entropy =       -9.47698629  energy(sigma->0) =       -9.47698629


--------------------------------------------------------------------------------------------------------




----------------------------------------- Iteration    2(   2)  ---------------------------------------


    POTLOK:  cpu time    0.3113: real time    0.3135
    SETDIJ:  cpu time    0.0059: real time    0.0059
     EDDAV:  cpu time    0.2037: real time    0.2038
       DOS:  cpu time    0.0001: real time    0.0001
    CHARGE:  cpu time    0.0798: real time    0.0799
    MIXING:  cpu time    0.0113: real time    0.0113
    --------------------------------------------
      LOOP:  cpu time    0.6133: real time    0.6254

 eigenvalue-minimisations  :    64
 total energy-change (2. order) :-0.2433290E-01  (-0.5416117E-01)
 number of electron      12.0000118 magnetization       1.9996104
 augmentation part        1.2079252 magnetization       0.4923912

 Broyden mixing:
  rms(total) = 0.10701E+00    rms(broyden)= 0.10654E+00
  rms(prec ) = 0.11519E+00
  weight for this iteration     100.00

 eigenvalues of (default mixing * dielectric matrix)
  average eigenvalue GAMMA=   0.7551
  0.7551

 Free energy of the ion-electron system (eV)
  ---------------------------------------------------
  alpha Z        PSCENC =         0.32165383
  Ewald energy   TEWEN  =       208.18448819
  -Hartree energ DENC   =      -934.83273125
  -exchange      EXHF   =         0.00000000
  -V(xc)+E(xc)   XCENC  =        55.90137521
  PAW double counting   =       924.42297565     -927.98883641
  entropy T*S    EENTRO =        -0.00000000
  eigenvalues    EBANDS =      -200.03663648
  atomic energy  EATOM  =       864.52639207
  Solvation  Ediel_sol  =         0.00000000
  ---------------------------------------------------
  free energy    TOTEN  =        -9.50131918 eV

  energy without entropy =       -9.50131918  energy(sigma->0) =       -9.50131918


--------------------------------------------------------------------------------------------------------




----------------------------------------- Iteration    2(   3)  ---------------------------------------


    POTLOK:  cpu time    0.3107: real time    0.3109
    SETDIJ:  cpu time    0.0059: real time    0.0059
     EDDAV:  cpu time    0.2374: real time    0.2379
       DOS:  cpu time    0.0001: real time    0.0001
    CHARGE:  cpu time    0.0801: real time    0.0802
    MIXING:  cpu time    0.0116: real time    0.0116
    --------------------------------------------
      LOOP:  cpu time    0.6470: real time    0.6550

 eigenvalue-minimisations  :    80
 total energy-change (2. order) :-0.6809774E-02  (-0.2980495E-02)
 number of electron      12.0000117 magnetization       1.9998376
 augmentation part        1.2014674 magnetization       0.4906567

 Broyden mixing:
  rms(total) = 0.47800E-01    rms(broyden)= 0.47745E-01
  rms(prec ) = 0.51928E-01
  weight for this iteration     100.00

 eigenvalues of (default mixing * dielectric matrix)
  average eigenvalue GAMMA=   1.1321
  1.5382  0.7259

 Free energy of the ion-electron system (eV)
  ---------------------------------------------------
  alpha Z        PSCENC =         0.32165383
  Ewald energy   TEWEN  =       208.18448819
  -Hartree energ DENC   =      -936.53254305
  -exchange      EXHF   =         0.00000000
  -V(xc)+E(xc)   XCENC  =        55.99044408
  PAW double counting   =       941.84150893     -945.45808123
  entropy T*S    EENTRO =        -0.00000000
  eigenvalues    EBANDS =      -198.38199178
  atomic energy  EATOM  =       864.52639207
  Solvation  Ediel_sol  =         0.00000000
  ---------------------------------------------------
  free energy    TOTEN  =        -9.50812896 eV

  energy without entropy =       -9.50812896  energy(sigma->0) =       -9.50812896


--------------------------------------------------------------------------------------------------------




----------------------------------------- Iteration    2(   4)  ---------------------------------------


    POTLOK:  cpu time    0.3117: real time    0.3118
    SETDIJ:  cpu time    0.0059: real time    0.0059
     EDDAV:  cpu time    0.2355: real time    0.2357
       DOS:  cpu time    0.0001: real time    0.0001
    CHARGE:  cpu time    0.0818: real time    0.0819
    MIXING:  cpu time    0.0129: real time    0.0129
    --------------------------------------------
      LOOP:  cpu time    0.6490: real time    0.6614

 eigenvalue-minimisations  :    80
 total energy-change (2. order) :-0.5344516E-04  (-0.1812735E-02)
 number of electron      12.0000116 magnetization       1.9998845
 augmentation part        1.1962434 magnetization       0.4881619

 Broyden mixing:
  rms(total) = 0.16079E-01    rms(broyden)= 0.15998E-01
  rms(prec ) = 0.17606E-01
  weight for this iteration     100.00

 eigenvalues of (default mixing * dielectric matrix)
  average eigenvalue GAMMA=   1.0971
  1.6623  0.9363  0.6926

 Free energy of the ion-electron system (eV)
  ---------------------------------------------------
  alpha Z        PSCENC =         0.32165383
  Ewald energy   TEWEN  =       208.18448819
  -Hartree energ DENC   =      -937.96500925
  -exchange      EXHF   =         0.00000000
  -V(xc)+E(xc)   XCENC  =        56.06883154
  PAW double counting   =       964.50873624     -968.17303367
  entropy T*S    EENTRO =        -0.00000000
  eigenvalues    EBANDS =      -196.98024135
  atomic energy  EATOM  =       864.52639207
  Solvation  Ediel_sol  =         0.00000000
  ---------------------------------------------------
  free energy    TOTEN  =        -9.50818240 eV

  energy without entropy =       -9.50818240  energy(sigma->0) =       -9.50818240


--------------------------------------------------------------------------------------------------------




----------------------------------------- Iteration    2(   5)  ---------------------------------------


    POTLOK:  cpu time    0.3104: real time    0.3108
    SETDIJ:  cpu time    0.0059: real time    0.0059
     EDDAV:  cpu time    0.2037: real time    0.2038
       DOS:  cpu time    0.0004: real time    0.0004
    CHARGE:  cpu time    0.0799: real time    0.0800
    MIXING:  cpu time    0.0126: real time    0.0127
    --------------------------------------------
      LOOP:  cpu time    0.6142: real time    0.6223

 eigenvalue-minimisations  :    64
 total energy-change (2. order) :-0.1480616E-02  (-0.1292615E-03)
 number of electron      12.0000117 magnetization       1.9999664
 augmentation part        1.1973741 magnetization       0.4887106

 Broyden mixing:
  rms(total) = 0.87457E-02    rms(broyden)= 0.87456E-02
  rms(prec ) = 0.95605E-02
  weight for this iteration     100.00

 eigenvalues of (default mixing * dielectric matrix)
  average eigenvalue GAMMA=   1.1743
  1.7527  1.4692  0.6726  0.8025

 Free energy of the ion-electron system (eV)
  ---------------------------------------------------
  alpha Z        PSCENC =         0.32165383
  Ewald energy   TEWEN  =       208.18448819
  -Hartree energ DENC   =      -937.58741094
  -exchange      EXHF   =         0.00000000
  -V(xc)+E(xc)   XCENC  =        56.04639756
  PAW double counting   =       967.63696993     -971.29651810
  entropy T*S    EENTRO =        -0.00000000
  eigenvalues    EBANDS =      -197.34163556
  atomic energy  EATOM  =       864.52639207
  Solvation  Ediel_sol  =         0.00000000
  ---------------------------------------------------
  free energy    TOTEN  =        -9.50966302 eV

  energy without entropy =       -9.50966302  energy(sigma->0) =       -9.50966302


--------------------------------------------------------------------------------------------------------




----------------------------------------- Iteration    2(   6)  ---------------------------------------


    POTLOK:  cpu time    0.3108: real time    0.3111
    SETDIJ:  cpu time    0.0059: real time    0.0059
     EDDAV:  cpu time    0.2438: real time    0.2442
       DOS:  cpu time    0.0001: real time    0.0001
    CHARGE:  cpu time    0.0822: real time    0.0825
    MIXING:  cpu time    0.0140: real time    0.0140
    --------------------------------------------
      LOOP:  cpu time    0.6579: real time    0.6661

 eigenvalue-minimisations  :    80
 total energy-change (2. order) :-0.2740627E-03  (-0.1362423E-04)
 number of electron      12.0000117 magnetization       1.9999956
 augmentation part        1.1975036 magnetization       0.4888879

 Broyden mixing:
  rms(total) = 0.30761E-02    rms(broyden)= 0.30757E-02
  rms(prec ) = 0.35017E-02
  weight for this iteration     100.00

 eigenvalues of (default mixing * dielectric matrix)
  average eigenvalue GAMMA=   1.2438
  2.4774  1.3439  1.0372  0.7186  0.6417

 Free energy of the ion-electron system (eV)
  ---------------------------------------------------
  alpha Z        PSCENC =         0.32165383
  Ewald energy   TEWEN  =       208.18448819
  -Hartree energ DENC   =      -937.45137391
  -exchange      EXHF   =         0.00000000
  -V(xc)+E(xc)   XCENC  =        56.03996944
  PAW double counting   =       973.73851951     -977.40185531
  entropy T*S    EENTRO =        -0.00000000
  eigenvalues    EBANDS =      -197.46773091
  atomic energy  EATOM  =       864.52639207
  Solvation  Ediel_sol  =         0.00000000
  ---------------------------------------------------
  free energy    TOTEN  =        -9.50993708 eV

  energy without entropy =       -9.50993708  energy(sigma->0) =       -9.50993708


--------------------------------------------------------------------------------------------------------




----------------------------------------- Iteration    2(   7)  ---------------------------------------


    POTLOK:  cpu time    0.3157: real time    0.3159
    SETDIJ:  cpu time    0.0061: real time    0.0061
     EDDAV:  cpu time    0.2388: real time    0.2390
       DOS:  cpu time    0.0001: real time    0.0001
    CHARGE:  cpu time    0.0823: real time    0.0824
    MIXING:  cpu time    0.0148: real time    0.0148
    --------------------------------------------
      LOOP:  cpu time    0.6589: real time    0.6690

 eigenvalue-minimisations  :    80
 total energy-change (2. order) :-0.2846955E-03  (-0.2985392E-05)
 number of electron      12.0000117 magnetization       2.0000014
 augmentation part        1.1973665 magnetization       0.4888282

 Broyden mixing:
  rms(total) = 0.63942E-03    rms(broyden)= 0.63889E-03
  rms(prec ) = 0.12590E-02
  weight for this iteration     100.00

 eigenvalues of (default mixing * dielectric matrix)
  average eigenvalue GAMMA=   1.1833
  2.5470  1.3167  1.1046  0.8060  0.6308  0.6945

 Free energy of the ion-electron system (eV)
  ---------------------------------------------------
  alpha Z        PSCENC =         0.32165383
  Ewald energy   TEWEN  =       208.18448819
  -Hartree energ DENC   =      -937.47057900
  -exchange      EXHF   =         0.00000000
  -V(xc)+E(xc)   XCENC  =        56.04132541
  PAW double counting   =       975.71591946     -979.38135144
  entropy T*S    EENTRO =        -0.00000000
  eigenvalues    EBANDS =      -197.44807030
  atomic energy  EATOM  =       864.52639207
  Solvation  Ediel_sol  =         0.00000000
  ---------------------------------------------------
  free energy    TOTEN  =        -9.51022178 eV

  energy without entropy =       -9.51022178  energy(sigma->0) =       -9.51022178


--------------------------------------------------------------------------------------------------------




----------------------------------------- Iteration    2(   8)  ---------------------------------------


    POTLOK:  cpu time    0.3113: real time    0.3116
    SETDIJ:  cpu time    0.0059: real time    0.0059
     EDDAV:  cpu time    0.2024: real time    0.2025
       DOS:  cpu time    0.0001: real time    0.0001
    CHARGE:  cpu time    0.0794: real time    0.0796
    MIXING:  cpu time    0.0144: real time    0.0144
    --------------------------------------------
      LOOP:  cpu time    0.6149: real time    0.6258

 eigenvalue-minimisations  :    64
 total energy-change (2. order) :-0.1340651E-03  (-0.5055580E-06)
 number of electron      12.0000117 magnetization       2.0000120
 augmentation part        1.1973634 magnetization       0.4888372

 Broyden mixing:
  rms(total) = 0.42641E-03    rms(broyden)= 0.42637E-03
  rms(prec ) = 0.99176E-03
  weight for this iteration     100.00

 eigenvalues of (default mixing * dielectric matrix)
  average eigenvalue GAMMA=   1.2610
  2.5506  1.8090  1.3166  1.0659  0.7672  0.6890  0.6287

 Free energy of the ion-electron system (eV)
  ---------------------------------------------------
  alpha Z        PSCENC =         0.32165383
  Ewald energy   TEWEN  =       208.18448819
  -Hartree energ DENC   =      -937.46884693
  -exchange      EXHF   =         0.00000000
  -V(xc)+E(xc)   XCENC  =        56.04107395
  PAW double counting   =       975.74331156     -979.40855381
  entropy T*S    EENTRO =        -0.00000000
  eigenvalues    EBANDS =      -197.44987471
  atomic energy  EATOM  =       864.52639207
  Solvation  Ediel_sol  =         0.00000000
  ---------------------------------------------------
  free energy    TOTEN  =        -9.51035584 eV

  energy without entropy =       -9.51035584  energy(sigma->0) =       -9.51035584


--------------------------------------------------------------------------------------------------------




----------------------------------------- Iteration    2(   9)  ---------------------------------------


    POTLOK:  cpu time    0.3208: real time    0.3215
    SETDIJ:  cpu time    0.0058: real time    0.0058
     EDDAV:  cpu time    0.2057: real time    0.2060
       DOS:  cpu time    0.0001: real time    0.0001
    CHARGE:  cpu time    0.0822: real time    0.0823
    MIXING:  cpu time    0.0158: real time    0.0158
    --------------------------------------------
      LOOP:  cpu time    0.6316: real time    0.6425

 eigenvalue-minimisations  :    64
 total energy-change (2. order) :-0.2191583E-03  (-0.1983045E-05)
 number of electron      12.0000117 magnetization       2.0000128
 augmentation part        1.1973725 magnetization       0.4888421

 Broyden mixing:
  rms(total) = 0.20235E-03    rms(broyden)= 0.20226E-03
  rms(prec ) = 0.52414E-03
  weight for this iteration     100.00

 eigenvalues of (default mixing * dielectric matrix)
  average eigenvalue GAMMA=   1.3694
  3.0815  2.5373  1.3444  1.0726  0.8916  0.7243  0.6272  0.6765

 Free energy of the ion-electron system (eV)
  ---------------------------------------------------
  alpha Z        PSCENC =         0.32165383
  Ewald energy   TEWEN  =       208.18448819
  -Hartree energ DENC   =      -937.46492489
  -exchange      EXHF   =         0.00000000
  -V(xc)+E(xc)   XCENC  =        56.04062320
  PAW double counting   =       975.62516432     -979.28981532
  entropy T*S    EENTRO =        -0.00000000
  eigenvalues    EBANDS =      -197.45415639
  atomic energy  EATOM  =       864.52639207
  Solvation  Ediel_sol  =         0.00000000
  ---------------------------------------------------
  free energy    TOTEN  =        -9.51057500 eV

  energy without entropy =       -9.51057500  energy(sigma->0) =       -9.51057500


--------------------------------------------------------------------------------------------------------




----------------------------------------- Iteration    2(  10)  ---------------------------------------


    POTLOK:  cpu time    0.3407: real time    0.3410
[...]
 


 magnetization (x)
 
# of ion     s       p       d       tot
----------------------------------------
  1        0.010   0.805   0.000   0.815
  2        0.010   0.805   0.000   0.815
------------------------------------------------
tot        0.020   1.609   0.000   1.630
 
    CHARGE:  cpu time    0.0821: real time    0.0821
    FORLOC:  cpu time    0.0079: real time    0.0079
    FORNL :  cpu time    0.0584: real time    0.0584
    STRESS:  cpu time    0.1763: real time    0.1763
    FORCOR:  cpu time    0.3161: real time    0.3162
    FORHAR:  cpu time    0.0379: real time    0.0379
    MIXING:  cpu time    0.0144: real time    0.0144
    OFIELD:  cpu time    0.0001: real time    0.0001

  FORCE on cell =-STRESS in cart. coord.  units (eV):
  Direction    XX          YY          ZZ          XY          YZ          ZX
  --------------------------------------------------------------------------------------
  Alpha Z     0.32165     0.32165     0.32165
  Ewald     339.80921   -82.18924   -82.18924    -0.00000    -0.00000    -0.00000
  Hartree   434.84319   237.37906   237.37906    -0.00000    -0.00000    -0.00000
  E(xc)     -57.92649   -59.08361   -59.08361    -0.00000     0.00000     0.00000
  Local    -913.65992  -338.45001  -338.45001    -0.00000    -0.00000     0.00000
  n-local   -47.61419   -44.19728   -44.19729    -0.00000     0.00000    -0.00000
  augment    10.38767    12.94559    12.94559     0.00000    -0.00000     0.00000
  Kinetic   232.59029   271.80692   271.80693     0.00000    -0.00002     0.00000
  Fock        0.00000     0.00000     0.00000     0.00000     0.00000     0.00000
  -------------------------------------------------------------------------------------
  Total      -1.24860    -1.46693    -1.46693     0.00000    -0.00000     0.00000
  in kB      -1.15768    -1.36011    -1.36011     0.00000    -0.00000     0.00000
  external pressure =       -1.29 kB  Pullay stress =        0.00 kB


 VOLUME and BASIS-vectors are now :
 -----------------------------------------------------------------------------
  energy-cutoff  :      400.00
  volume of cell :     1728.00
      direct lattice vectors                 reciprocal lattice vectors
    12.000000000  0.000000000  0.000000000     0.083333333  0.000000000  0.000000000
     0.000000000 12.000000000  0.000000000     0.000000000  0.083333333  0.000000000
     0.000000000  0.000000000 12.000000000     0.000000000  0.000000000  0.083333333

  length of vectors
    12.000000000 12.000000000 12.000000000     0.083333333  0.083333333  0.083333333


 FORCES acting on ions
    electron-ion (+dipol)            ewald-force                    non-local-force                 convergence-correction
 -----------------------------------------------------------------------------------------------
   0.286E+03 0.144E-11 -.149E-04   -.338E+03 0.149E-16 -.920E-17   0.519E+02 0.000E+00 0.808E-27   -.168E-01 -.479E-12 -.355E-11
   -.286E+03 -.373E-12 0.149E-04   0.338E+03 -.585E-17 0.454E-17   -.519E+02 -.162E-26 -.606E-27   0.168E-01 -.277E-12 0.427E-13
 -----------------------------------------------------------------------------------------------
   0.142E-11 0.106E-11 0.284E-10   0.000E+00 0.908E-17 -.466E-17   0.000E+00 -.162E-26 0.202E-27   -.616E-12 -.756E-12 -.351E-11
 
 
 POSITION                                       TOTAL-FORCE (eV/Angst)
 -----------------------------------------------------------------------------------
      5.38227      6.00000      6.00000         0.109877      0.000000      0.000000
      6.61773      6.00000      6.00000        -0.109877     -0.000000     -0.000000
 -----------------------------------------------------------------------------------
    total drift:                                0.000000      0.000000      0.000000


--------------------------------------------------------------------------------------------------------



  FREE ENERGIE OF THE ION-ELECTRON SYSTEM (eV)
  ---------------------------------------------------
  free  energy   TOTEN  =        -9.86453825 eV

  energy  without entropy=       -9.86453825  energy(sigma->0) =       -9.86453825
 
 d Force = 0.7109532E-03[ 0.359E-03, 0.106E-02]  d Energy = 0.7672294E-03-0.563E-04
 d Force =-0.1102167E+01[-0.111E+01,-0.110E+01]  d Ewald  =-0.1102163E+01-0.389E-05


--------------------------------------------------------------------------------------------------------


    POTLOK:  cpu time    0.3333: real time    0.3334


--------------------------------------------------------------------------------------------------------


 Quasi-Newton relaxation of ions (Broydens 2nd method)
  g(Force)  = 0.116E-02   g(Stress)= 0.000E+00

 retain information from N=  1 steps
 eigenvalues of (default step * inverse Hessian matrix)
  average eigenvalue of G=   0.1575
 eigenvalue spectrum of G is  0.1575


--------------------------------------------------------------------------------------------------------


    WAVPRE:  cpu time    0.0287: real time    0.0378
 FEWALD executed in parallel
    FEWALD:  cpu time    0.0016: real time    0.0016
    ORTHCH:  cpu time    0.0142: real time    0.0142
     LOOP+:  cpu time    2.3564: real time    2.3919


----------------------------------------- Iteration    5(   1)  ---------------------------------------


    POTLOK:  cpu time    0.3160: real time    0.3172
    SETDIJ:  cpu time    0.0059: real time    0.0059
     EDDAV:  cpu time    0.2752: real time    0.2752
       DOS:  cpu time    0.0001: real time    0.0001
    CHARGE:  cpu time    0.0832: real time    0.0832
    MIXING:  cpu time    0.0109: real time    0.0109
    --------------------------------------------
      LOOP:  cpu time    0.6923: real time    0.6937

 eigenvalue-minimisations  :    96
 total energy-change (2. order) :-0.1499717E-03  (-0.8534616E-03)
 number of electron      12.0000158 magnetization       2.0000084
 augmentation part        1.1341149 magnetization       0.4915967

 Broyden mixing:
  rms(total) = 0.45419E-02    rms(broyden)= 0.44701E-02
  rms(prec ) = 0.47382E-02
  weight for this iteration     100.00

 Free energy of the ion-electron system (eV)
  ---------------------------------------------------
  alpha Z        PSCENC =         0.32165383
  Ewald energy   TEWEN  =       175.99585259
  -Hartree energ DENC   =      -909.91091317
  -exchange      EXHF   =         0.00000000
  -V(xc)+E(xc)   XCENC  =        55.32469138
  PAW double counting   =       896.31637944     -899.81420016
  entropy T*S    EENTRO =        -0.00000000
  eigenvalues    EBANDS =      -192.62450178
  atomic energy  EATOM  =       864.52639207
  Solvation  Ediel_sol  =         0.00000000
  ---------------------------------------------------
  free energy    TOTEN  =        -9.86464580 eV

  energy without entropy =       -9.86464580  energy(sigma->0) =       -9.86464580


--------------------------------------------------------------------------------------------------------




----------------------------------------- Iteration    5(   2)  ---------------------------------------


    POTLOK:  cpu time    0.3292: real time    0.3293
    SETDIJ:  cpu time    0.0054: real time    0.0054
     EDDAV:  cpu time    0.2637: real time    0.2638
       DOS:  cpu time    0.0002: real time    0.0002
    --------------------------------------------
      LOOP:  cpu time    0.5998: real time    0.6067

 eigenvalue-minimisations  :    72
 total energy-change (2. order) :-0.1490139E-04  (-0.1363171E-04)
 number of electron      12.0000158 magnetization       2.0000084
 augmentation part        1.1341149 magnetization       0.4915967

 Free energy of the ion-electron system (eV)
  ---------------------------------------------------
  alpha Z        PSCENC =         0.32165383
  Ewald energy   TEWEN  =       175.99585259
  -Hartree energ DENC   =      -909.97710653
  -exchange      EXHF   =         0.00000000
  -V(xc)+E(xc)   XCENC  =        55.32882530
  PAW double counting   =       897.24000657     -900.73964363
  entropy T*S    EENTRO =        -0.00000000
  eigenvalues    EBANDS =      -192.56064090
  atomic energy  EATOM  =       864.52639207
  Solvation  Ediel_sol  =         0.00000000
  ---------------------------------------------------
  free energy    TOTEN  =        -9.86466070 eV

  energy without entropy =       -9.86466070  energy(sigma->0) =       -9.86466070


--------------------------------------------------------------------------------------------------------




 average (electrostatic) potential at core
  the test charge radii are     0.7215
  (the norm of the test charge is              1.0000)
       1 -83.8934       2 -83.8934
 
 
 
 E-fermi :  -6.8890     XC(G=0):  -0.3755     alpha+bet : -0.0867


 spin component 1

 k-point     1 :       0.0000    0.0000    0.0000
  band No.  band energies     occupation 
      1     -32.5307      1.00000
      2     -20.6535      1.00000
      3     -13.4211      1.00000
      4     -13.2716      1.00000
      5     -13.2716      1.00000
      6      -6.9503      1.00000
      7      -6.9503      1.00000
      8      -0.2854      0.00000
      9       0.5261      0.00000
     10       0.6503      0.00000
     11       0.7846      0.00000
     12       0.7846      0.00000
     13       0.9029      0.00000
     14       0.9870      0.00000
     15       1.5080      0.00000
     16       1.7227      0.00000

 spin component 2

 k-point     1 :       0.0000    0.0000    0.0000
  band No.  band energies     occupation 
      1     -31.3039      1.00000
      2     -18.8576      1.00000
      3     -12.4940      1.00000
      4     -11.4280      1.00000
      5     -11.4280      1.00000
      6      -4.6767      0.00000
      7      -4.6767      0.00000
      8      -0.1906      0.00000
      9       0.7235      0.00000
     10       0.7515      0.00000
     11       0.8693      0.00000
     12       0.8693      0.00000
     13       0.9314      0.00000
     14       1.0320      0.00000
     15       1.6527      0.00000
     16       1.8147      0.00000


--------------------------------------------------------------------------------------------------------


 soft charge-density along one line, spin component           1
         0         1         2         3         4         5         6         7         8         9
 total charge-density along one line
 
 soft charge-density along one line, spin component           2
         0         1         2         3         4         5         6         7         8         9
 total charge-density along one line
 
 pseudopotential strength for first ion, spin component:           1
 14.566 -17.911   0.000   0.000  -0.129  -0.000  -0.000   0.162
-17.911  22.060  -0.000  -0.000   0.165   0.000   0.000  -0.207
  0.000  -0.000 -11.435   0.000   0.000  14.334  -0.000  -0.000
  0.000  -0.000   0.000 -11.435   0.000  -0.000  14.334  -0.000
 -0.129   0.165   0.000   0.000 -11.439  -0.000  -0.000  14.326
 -0.000   0.000  14.334  -0.000  -0.000 -17.927   0.000   0.000
 -0.000   0.000  -0.000  14.334  -0.000   0.000 -17.927   0.000
  0.162  -0.207  -0.000  -0.000  14.326   0.000   0.000 -17.900
 pseudopotential strength for first ion, spin component:           2
 14.039 -17.231   0.000   0.000  -0.128  -0.000  -0.000   0.161
-17.231  21.182  -0.000  -0.000   0.163   0.000   0.000  -0.205
  0.000  -0.000 -10.827   0.000   0.000  13.480  -0.000  -0.000
  0.000  -0.000   0.000 -10.827   0.000  -0.000  13.480  -0.000
 -0.128   0.163   0.000   0.000 -11.227  -0.000  -0.000  14.029
 -0.000   0.000  13.480  -0.000  -0.000 -16.724   0.000   0.000
 -0.000   0.000  -0.000  13.480  -0.000   0.000 -16.724   0.000
  0.161  -0.205  -0.000  -0.000  14.029   0.000   0.000 -17.482
 total augmentation occupancy for first ion, spin component:           1
  2.678   0.413  -0.000   0.000   0.516   0.000  -0.000   0.250
  0.413   0.189  -0.000  -0.000   0.540   0.000   0.000   0.166
 -0.000  -0.000   1.753   0.000   0.000   0.111   0.000   0.000
  0.000  -0.000   0.000   1.753   0.000   0.000   0.111   0.000
  0.516   0.540   0.000   0.000   2.449   0.000   0.000   0.552
  0.000   0.000   0.111   0.000   0.000   0.030   0.000   0.000
 -0.000   0.000   0.000   0.111   0.000   0.000   0.030   0.000
  0.250   0.166   0.000   0.000   0.552   0.000   0.000   0.156
 total augmentation occupancy for first ion, spin component:           2
 -0.104  -0.060  -0.000  -0.000  -0.016  -0.000   0.000  -0.015
 -0.060  -0.011   0.000   0.000  -0.010   0.000   0.000  -0.006
 -0.000   0.000   0.363   0.000  -0.000  -0.085   0.000   0.000
 -0.000   0.000   0.000   0.363   0.000   0.000  -0.085   0.000
 -0.016  -0.010  -0.000   0.000  -0.037   0.000  -0.000  -0.019
 -0.000   0.000  -0.085   0.000   0.000   0.003   0.000  -0.000
  0.000   0.000   0.000  -0.085  -0.000   0.000   0.003  -0.000
 -0.015  -0.006   0.000   0.000  -0.019  -0.000  -0.000  -0.006


------------------------ aborting loop because EDIFF is reached ----------------------------------------


 


 total charge     
 
# of ion     s       p       d       tot
----------------------------------------
  1        1.638   3.287   0.000   4.924
  2        1.638   3.287   0.000   4.924
------------------------------------------------
tot        3.275   6.573   0.000   9.849
 


 magnetization (x)
 
# of ion     s       p       d       tot
----------------------------------------
  1        0.010   0.804   0.000   0.814
  2        0.010   0.804   0.000   0.814
------------------------------------------------
tot        0.020   1.609   0.000   1.629
 
    CHARGE:  cpu time    0.1546: real time    0.1546
    FORLOC:  cpu time    0.0149: real time    0.0149
    FORNL :  cpu time    0.0671: real time    0.0671
    STRESS:  cpu time    0.1856: real time    0.1856
    FORCOR:  cpu time    0.3041: real time    0.3052
    FORHAR:  cpu time    0.0368: real time    0.0368
    MIXING:  cpu time    0.0119: real time    0.0119
    OFIELD:  cpu time    0.0000: real time    0.0000

  FORCE on cell =-STRESS in cart. coord.  units (eV):
  Direction    XX          YY          ZZ          XY          YZ          ZX
  --------------------------------------------------------------------------------------
  Alpha Z     0.32165     0.32165     0.32165
  Ewald     340.37182   -82.18800   -82.18800     0.00000    -0.00000     0.00000
  Hartree   434.97365   237.54242   237.54242    -0.00000    -0.00000    -0.00000
  E(xc)     -57.93889   -59.09803   -59.09803     0.00000     0.00000     0.00000
  Local    -914.23135  -338.65543  -338.65543     0.00000     0.00000     0.00000
  n-local   -47.66900   -44.20343   -44.20344     0.00000    -0.00000     0.00000
  augment    10.39171    12.95085    12.95085    -0.00000    -0.00000     0.00000
  Kinetic   232.66204   271.83499   271.83502    -0.00000     0.00000     0.00000
  Fock        0.00000     0.00000     0.00000     0.00000     0.00000     0.00000
  -------------------------------------------------------------------------------------
  Total      -1.11838    -1.49498    -1.49498    -0.00000     0.00000    -0.00000
  in kB      -1.03694    -1.38612    -1.38612    -0.00000     0.00000    -0.00000
  external pressure =       -1.27 kB  Pullay stress =        0.00 kB


 VOLUME and BASIS-vectors are now :
 -----------------------------------------------------------------------------
  energy-cutoff  :      400.00
  volume of cell :     1728.00
      direct lattice vectors                 reciprocal lattice vectors
    12.000000000  0.000000000  0.000000000     0.083333333  0.000000000  0.000000000
     0.000000000 12.000000000  0.000000000     0.000000000  0.083333333  0.000000000
     0.000000000  0.000000000 12.000000000     0.000000000  0.000000000  0.083333333

  length of vectors
    12.000000000 12.000000000 12.000000000     0.083333333  0.083333333  0.083333333


 FORCES acting on ions
    electron-ion (+dipol)            ewald-force                    non-local-force                 convergence-correction
 -----------------------------------------------------------------------------------------------
   0.287E+03 0.339E-12 -.145E-04   -.339E+03 -.107E-16 -.949E-18   0.520E+02 0.808E-27 0.000E+00   -.733E-02 -.299E-12 -.281E-11
   -.287E+03 0.745E-12 0.145E-04   0.339E+03 0.198E-16 -.371E-17   -.520E+02 -.162E-26 0.808E-27   0.733E-02 -.516E-12 -.269E-12
 -----------------------------------------------------------------------------------------------
   0.145E-11 0.108E-11 0.294E-10   0.000E+00 0.908E-17 -.466E-17   0.000E+00 -.808E-27 0.808E-27   -.353E-12 -.815E-12 -.308E-11
 
 
 POSITION                                       TOTAL-FORCE (eV/Angst)
 -----------------------------------------------------------------------------------
      5.38311      6.00000      6.00000        -0.015521      0.000000      0.000000
      6.61689      6.00000      6.00000         0.015521      0.000000     -0.000000
 -----------------------------------------------------------------------------------
    total drift:                                0.000000      0.000000      0.000000


--------------------------------------------------------------------------------------------------------



  FREE ENERGIE OF THE ION-ELECTRON SYSTEM (eV)
  ---------------------------------------------------
  free  energy   TOTEN  =        -9.86466070 eV

  energy  without entropy=       -9.86466070  energy(sigma->0) =       -9.86466070
 
 d Force = 0.7875975E-04[-0.259E-04, 0.183E-03]  d Energy = 0.1224527E-03-0.437E-04
 d Force =-0.5650760E+00[-0.566E+00,-0.564E+00]  d Ewald  =-0.5650755E+00-0.517E-06


--------------------------------------------------------------------------------------------------------


    POTLOK:  cpu time    0.3154: real time    0.3156


--------------------------------------------------------------------------------------------------------


 Quasi-Newton relaxation of ions (Broydens 2nd method)
  g(Force)  = 0.232E-04   g(Stress)= 0.000E+00

 retain information from N=  1 steps
 eigenvalues of (default step * inverse Hessian matrix)
  average eigenvalue of G=   0.1380
 eigenvalue spectrum of G is  0.1380


--------------------------------------------------------------------------------------------------------


  
 reached required accuracy - stopping structural energy minimisation
     LOOP+:  cpu time    2.3943: real time    2.4157
    4ORBIT:  cpu time    0.0000: real time    0.0000
 


 total charge     
 
# of ion     s       p       d       tot
----------------------------------------
  1        1.638   3.287   0.000   4.924
  2        1.638   3.287   0.000   4.924
------------------------------------------------
tot        3.275   6.573   0.000   9.849
 


 magnetization (x)
 
# of ion     s       p       d       tot
----------------------------------------
  1        0.010   0.804   0.000   0.814
  2        0.010   0.804   0.000   0.814
------------------------------------------------
tot        0.020   1.609   0.000   1.629
 

 total amount of memory used by VASP on root node    76450. kBytes
========================================================================

   base      :      30000. kBytes
   nonl-proj :       3018. kBytes
   fftplans  :       8259. kBytes
   grid      :      33148. kBytes
   one-center:         12. kBytes
   wavefun   :       2013. kBytes
 
  
  
 General timing and accounting informations for this job:
 ========================================================
  
                  Total CPU time used (sec):       30.678
                            User time (sec):       28.986
                          System time (sec):        1.692
                         Elapsed time (sec):       31.165
  
                   Maximum memory used (kb):      118220.
                   Average memory used (kb):           0.
  
                          Minor page faults:       211082
                          Major page faults:            9
                 Voluntary context switches:          878
