PROCAR lm decomposed
# of k-points:    1         # of bands:  16         # of ions:   2

 k-point    1 :    0.00000000 0.00000000 0.00000000     weight = 1.00000000

band   1 # energy  -32.53072510 # occ.  1.00000000
 
ion      s     py     pz     px    dxy    dyz    dz2    dxz    dx2    tot
  1  0.405  0.000  0.000  0.095  0.000  0.000  0.000  0.000  0.000  0.501
  2  0.405  0.000  0.000  0.095  0.000  0.000  0.000  0.000  0.000  0.501
tot  0.811  0.000  0.000  0.191  0.000  0.000  0.000  0.000  0.000  1.001
 
band   2 # energy  -20.65347981 # occ.  1.00000000
 
ion      s     py     pz     px    dxy    dyz    dz2    dxz    dx2    tot
  1  0.377  0.000  0.000  0.040  0.000  0.000  0.000  0.000  0.000  0.417
  2  0.377  0.000  0.000  0.040  0.000  0.000  0.000  0.000  0.000  0.417
tot  0.753  0.000  0.000  0.081  0.000  0.000  0.000  0.000  0.000  0.834
 
band   3 # energy  -13.42113313 # occ.  1.00000000
 
ion      s     py     pz     px    dxy    dyz    dz2    dxz    dx2    tot
  1  0.042  0.000  0.000  0.382  0.000  0.000  0.000  0.000  0.000  0.424
  2  0.042  0.000  0.000  0.382  0.000  0.000  0.000  0.000  0.000  0.424
tot  0.084  0.000  0.000  0.765  0.000  0.000  0.000  0.000  0.000  0.849
 
band   4 # energy  -13.27159194 # occ.  1.00000000
 
ion      s     py     pz     px    dxy    dyz    dz2    dxz    dx2    tot
  1  0.000  0.129  0.245  0.000  0.000  0.000  0.000  0.000  0.000  0.374
  2  0.000  0.129  0.245  0.000  0.000  0.000  0.000  0.000  0.000  0.374
tot  0.000  0.258  0.490  0.000  0.000  0.000  0.000  0.000  0.000  0.748
 
band   5 # energy  -13.27159194 # occ.  1.00000000
 
ion      s     py     pz     px    dxy    dyz    dz2    dxz    dx2    tot
  1  0.000  0.245  0.129  0.000  0.000  0.000  0.000  0.000  0.000  0.374
  2  0.000  0.245  0.129  0.000  0.000  0.000  0.000  0.000  0.000  0.374
tot  0.000  0.490  0.258  0.000  0.000  0.000  0.000  0.000  0.000  0.748
 
band   6 # energy   -6.95034365 # occ.  1.00000000
 
ion      s     py     pz     px    dxy    dyz    dz2    dxz    dx2    tot
  1  0.000  0.317  0.072  0.000  0.000  0.000  0.000  0.000  0.000  0.390
  2  0.000  0.317  0.072  0.000  0.000  0.000  0.000  0.000  0.000  0.390
tot  0.000  0.634  0.145  0.000  0.000  0.000  0.000  0.000  0.000  0.779
 
band   7 # energy   -6.95034365 # occ.  1.00000000
 
ion      s     py     pz     px    dxy    dyz    dz2    dxz    dx2    tot
  1  0.000  0.072  0.317  0.000  0.000  0.000  0.000  0.000  0.000  0.390
  2  0.000  0.072  0.317  0.000  0.000  0.000  0.000  0.000  0.000  0.390
tot  0.000  0.145  0.634  0.000  0.000  0.000  0.000  0.000  0.000  0.779
 
band   8 # energy   -0.28544193 # occ.  0.00000000
 
ion      s     py     pz     px    dxy    dyz    dz2    dxz    dx2    tot
  1  0.004  0.000  0.000  0.002  0.000  0.000  0.000  0.000  0.000  0.006
  2  0.004  0.000  0.000  0.002  0.000  0.000  0.000  0.000  0.000  0.006
tot  0.007  0.000  0.000  0.004  0.000  0.000  0.000  0.000  0.000  0.011
 
band   9 # energy    0.52609130 # occ.  0.00000000
 
ion      s     py     pz     px    dxy    dyz    dz2    dxz    dx2    tot
  1  0.014  0.000  0.000  0.015  0.000  0.000  0.000  0.000  0.000  0.029
  2  0.014  0.000  0.000  0.015  0.000  0.000  0.000  0.000  0.000  0.029
tot  0.027  0.000  0.000  0.031  0.000  0.000  0.000  0.000  0.000  0.058
 
band  10 # energy    0.65030865 # occ.  0.00000000
 
ion      s     py     pz     px    dxy    dyz    dz2    dxz    dx2    tot
  1  0.005  0.000  0.000  0.002  0.000  0.000  0.000  0.000  0.000  0.007
  2  0.005  0.000  0.000  0.002  0.000  0.000  0.000  0.000  0.000  0.007
tot  0.009  0.000  0.000  0.004  0.000  0.000  0.000  0.000  0.000  0.013
 
band  11 # energy    0.78455727 # occ.  0.00000000
 
ion      s     py     pz     px    dxy    dyz    dz2    dxz    dx2    tot
  1  0.000  0.001  0.002  0.000  0.000  0.000  0.000  0.000  0.000  0.003
  2  0.000  0.001  0.002  0.000  0.000  0.000  0.000  0.000  0.000  0.003
tot  0.000  0.002  0.004  0.000  0.000  0.000  0.000  0.000  0.000  0.007
 
band  12 # energy    0.78455727 # occ.  0.00000000
 
ion      s     py     pz     px    dxy    dyz    dz2    dxz    dx2    tot
  1  0.000  0.002  0.001  0.000  0.000  0.000  0.000  0.000  0.000  0.003
  2  0.000  0.002  0.001  0.000  0.000  0.000  0.000  0.000  0.000  0.003
tot  0.000  0.004  0.002  0.000  0.000  0.000  0.000  0.000  0.000  0.007
 
band  13 # energy    0.90285244 # occ.  0.00000000
 
ion      s     py     pz     px    dxy    dyz    dz2    dxz    dx2    tot
  1  0.000  0.000  0.000  0.000  0.000  0.000  0.000  0.000  0.000  0.000
  2  0.000  0.000  0.000  0.000  0.000  0.000  0.000  0.000  0.000  0.000
tot  0.000  0.000  0.000  0.000  0.000  0.000  0.000  0.000  0.000  0.000
 
band  14 # energy    0.98700409 # occ.  0.00000000
 
ion      s     py     pz     px    dxy    dyz    dz2    dxz    dx2    tot
  1  0.000  0.000  0.000  0.000  0.000  0.000  0.000  0.000  0.000  0.000
  2  0.000  0.000  0.000  0.000  0.000  0.000  0.000  0.000  0.000  0.000
tot  0.000  0.000  0.000  0.000  0.000  0.000  0.000  0.000  0.000  0.000
 
band  15 # energy    1.50803933 # occ.  0.00000000
 
ion      s     py     pz     px    dxy    dyz    dz2    dxz    dx2    tot
  1  0.011  0.000  0.000  0.021  0.000  0.000  0.000  0.000  0.000  0.032
  2  0.011  0.000  0.000  0.021  0.000  0.000  0.000  0.000  0.000  0.032
tot  0.021  0.000  0.000  0.043  0.000  0.000  0.000  0.000  0.000  0.064
 
band  16 # energy    1.72272747 # occ.  0.00000000
 
ion      s     py     pz     px    dxy    dyz    dz2    dxz    dx2    tot
  1  0.000  0.002  0.003  0.000  0.000  0.000  0.000  0.000  0.000  0.004
  2  0.000  0.002  0.003  0.000  0.000  0.000  0.000  0.000  0.000  0.004
tot  0.000  0.003  0.006  0.000  0.000  0.000  0.000  0.000  0.000  0.009
 
# of k-points:    1         # of bands:  16         # of ions:   2

 k-point    1 :    0.00000000 0.00000000 0.00000000     weight = 1.00000000

band   1 # energy  -31.30387287 # occ.  1.00000000
 
ion      s     py     pz     px    dxy    dyz    dz2    dxz    dx2    tot
  1  0.398  0.000  0.000  0.106  0.000  0.000  0.000  0.000  0.000  0.504
  2  0.398  0.000  0.000  0.106  0.000  0.000  0.000  0.000  0.000  0.504
tot  0.796  0.000  0.000  0.211  0.000  0.000  0.000  0.000  0.000  1.008
 
band   2 # energy  -18.85759065 # occ.  1.00000000
 
ion      s     py     pz     px    dxy    dyz    dz2    dxz    dx2    tot
  1  0.369  0.000  0.000  0.045  0.000  0.000  0.000  0.000  0.000  0.414
  2  0.369  0.000  0.000  0.045  0.000  0.000  0.000  0.000  0.000  0.414
tot  0.737  0.000  0.000  0.090  0.000  0.000  0.000  0.000  0.000  0.827
 
band   3 # energy  -12.49396074 # occ.  1.00000000
 
ion      s     py     pz     px    dxy    dyz    dz2    dxz    dx2    tot
  1  0.047  0.000  0.000  0.371  0.000  0.000  0.000  0.000  0.000  0.417
  2  0.047  0.000  0.000  0.371  0.000  0.000  0.000  0.000  0.000  0.417
tot  0.094  0.000  0.000  0.741  0.000  0.000  0.000  0.000  0.000  0.835
 
band   4 # energy  -11.42800371 # occ.  1.00000000
 
ion      s     py     pz     px    dxy    dyz    dz2    dxz    dx2    tot
  1  0.000  0.337  0.023  0.000  0.000  0.000  0.000  0.000  0.000  0.360
  2  0.000  0.337  0.023  0.000  0.000  0.000  0.000  0.000  0.000  0.360
tot  0.000  0.673  0.047  0.000  0.000  0.000  0.000  0.000  0.000  0.720
 
band   5 # energy  -11.42800371 # occ.  1.00000000
 
ion      s     py     pz     px    dxy    dyz    dz2    dxz    dx2    tot
  1  0.000  0.023  0.337  0.000  0.000  0.000  0.000  0.000  0.000  0.360
  2  0.000  0.023  0.337  0.000  0.000  0.000  0.000  0.000  0.000  0.360
tot  0.000  0.047  0.673  0.000  0.000  0.000  0.000  0.000  0.000  0.720
 
band   6 # energy   -4.67672073 # occ.  0.00000000
 
ion      s     py     pz     px    dxy    dyz    dz2    dxz    dx2    tot
  1  0.000  0.323  0.051  0.000  0.000  0.000  0.000  0.000  0.000  0.374
  2  0.000  0.323  0.051  0.000  0.000  0.000  0.000  0.000  0.000  0.374
tot  0.000  0.646  0.103  0.000  0.000  0.000  0.000  0.000  0.000  0.749
 
band   7 # energy   -4.67672073 # occ.  0.00000000
 
ion      s     py     pz     px    dxy    dyz    dz2    dxz    dx2    tot
  1  0.000  0.051  0.323  0.000  0.000  0.000  0.000  0.000  0.000  0.374
  2  0.000  0.051  0.323  0.000  0.000  0.000  0.000  0.000  0.000  0.374
tot  0.000  0.103  0.646  0.000  0.000  0.000  0.000  0.000  0.000  0.749
 
band   8 # energy   -0.19058570 # occ.  0.00000000
 
ion      s     py     pz     px    dxy    dyz    dz2    dxz    dx2    tot
  1  0.003  0.000  0.000  0.002  0.000  0.000  0.000  0.000  0.000  0.005
  2  0.003  0.000  0.000  0.002  0.000  0.000  0.000  0.000  0.000  0.005
tot  0.006  0.000  0.000  0.004  0.000  0.000  0.000  0.000  0.000  0.010
 
band   9 # energy    0.72352310 # occ.  0.00000000
 
ion      s     py     pz     px    dxy    dyz    dz2    dxz    dx2    tot
  1  0.008  0.000  0.000  0.005  0.000  0.000  0.000  0.000  0.000  0.013
  2  0.008  0.000  0.000  0.005  0.000  0.000  0.000  0.000  0.000  0.013
tot  0.017  0.000  0.000  0.009  0.000  0.000  0.000  0.000  0.000  0.026
 
band  10 # energy    0.75150993 # occ.  0.00000000
 
ion      s     py     pz     px    dxy    dyz    dz2    dxz    dx2    tot
  1  0.005  0.000  0.000  0.002  0.000  0.000  0.000  0.000  0.000  0.007
  2  0.005  0.000  0.000  0.002  0.000  0.000  0.000  0.000  0.000  0.007
tot  0.010  0.000  0.000  0.004  0.000  0.000  0.000  0.000  0.000  0.014
 
band  11 # energy    0.86929601 # occ.  0.00000000
 
ion      s     py     pz     px    dxy    dyz    dz2    dxz    dx2    tot
  1  0.000  0.000  0.003  0.000  0.000  0.000  0.000  0.000  0.000  0.003
  2  0.000  0.000  0.003  0.000  0.000  0.000  0.000  0.000  0.000  0.003
tot  0.000  0.000  0.006  0.000  0.000  0.000  0.000  0.000  0.000  0.006
 
band  12 # energy    0.86929608 # occ.  0.00000000
 
ion      s     py     pz     px    dxy    dyz    dz2    dxz    dx2    tot
  1  0.000  0.003  0.000  0.000  0.000  0.000  0.000  0.000  0.000  0.003
  2  0.000  0.003  0.000  0.000  0.000  0.000  0.000  0.000  0.000  0.003
tot  0.000  0.006  0.000  0.000  0.000  0.000  0.000  0.000  0.000  0.006
 
band  13 # energy    0.93139376 # occ.  0.00000000
 
ion      s     py     pz     px    dxy    dyz    dz2    dxz    dx2    tot
  1  0.000  0.000  0.000  0.000  0.000  0.000  0.000  0.000  0.000  0.000
  2  0.000  0.000  0.000  0.000  0.000  0.000  0.000  0.000  0.000  0.000
tot  0.000  0.000  0.000  0.000  0.000  0.000  0.000  0.000  0.000  0.000
 
band  14 # energy    1.03196895 # occ.  0.00000000
 
ion      s     py     pz     px    dxy    dyz    dz2    dxz    dx2    tot
  1  0.000  0.000  0.000  0.000  0.000  0.000  0.000  0.000  0.000  0.000
  2  0.000  0.000  0.000  0.000  0.000  0.000  0.000  0.000  0.000  0.000
tot  0.000  0.000  0.000  0.000  0.000  0.000  0.000  0.000  0.000  0.000
 
band  15 # energy    1.65268658 # occ.  0.00000000
 
ion      s     py     pz     px    dxy    dyz    dz2    dxz    dx2    tot
  1  0.008  0.000  0.000  0.008  0.000  0.000  0.000  0.000  0.000  0.017
  2  0.008  0.000  0.000  0.008  0.000  0.000  0.000  0.000  0.000  0.017
tot  0.017  0.000  0.000  0.017  0.000  0.000  0.000  0.000  0.000  0.034
 
band  16 # energy    1.81472432 # occ.  0.00000000
 
ion      s     py     pz     px    dxy    dyz    dz2    dxz    dx2    tot
  1  0.000  0.005  0.000  0.000  0.000  0.000  0.000  0.000  0.000  0.005
  2  0.000  0.005  0.000  0.000  0.000  0.000  0.000  0.000  0.000  0.005
tot  0.000  0.009  0.001  0.000  0.000  0.000  0.000  0.000  0.000  0.010
 
