<?xml version="1.0" encoding="ISO-8859-1"?>
<modeling>
 <generator>
  <i name="program" type="string">vasp </i>
  <i name="version" type="string">5.4.1  </i>
  <i name="subversion" type="string">05Feb16 (build Feb 08 2018 09:21:51) complex                          parallel </i>
  <i name="platform" type="string">LinuxIFC </i>
  <i name="date" type="string">2019 11 08 </i>
  <i name="time" type="string">08:41:14 </i>
 </generator>
 <incar>
  <i type="string" name="PREC">normal</i>
  <i type="int" name="ISPIN">     2</i>
  <i type="int" name="IBRION">     1</i>
  <i type="int" name="NSW">    20</i>
  <i name="ENCUT">    400.00000000</i>
  <v name="MAGMOM">      0.00000000      0.00000000</v>
  <i type="int" name="ISMEAR">     0</i>
  <i name="SIGMA">      0.01000000</i>
  <i type="logical" name="LWAVE"> F  </i>
  <i type="logical" name="LCHARG"> F  </i>
  <i type="logical" name="LORBIT"> F  </i>
  <v type="int" name="KPOINT_BSE">    -1     0     0     0</v>
 </incar>
 <kpoints>
  <generation param="Monkhorst-Pack">
   <v type="int" name="divisions">       1        1        1 </v>
   <v name="usershift">      0.00000000       0.00000000       0.00000000 </v>
   <v name="genvec1">      1.00000000       0.00000000       0.00000000 </v>
   <v name="genvec2">      0.00000000       1.00000000       0.00000000 </v>
   <v name="genvec3">      0.00000000       0.00000000       1.00000000 </v>
   <v name="shift">      0.00000000       0.00000000       0.00000000 </v>
  </generation>
  <varray name="kpointlist" >
   <v>       0.00000000       0.00000000       0.00000000 </v>
  </varray>
  <varray name="weights" >
   <v>       1.00000000 </v>
  </varray>
 </kpoints>
 <parameters>
  <separator name="general" >
   <i type="string" name="SYSTEM">unknown system</i>
   <i type="logical" name="LCOMPAT"> F  </i>
  </separator>
  <separator name="electronic" >
   <i type="string" name="PREC">normal</i>
   <i name="ENMAX">    400.00000000</i>
   <i name="ENAUG">    605.39200000</i>
   <i name="EDIFF">      0.00010000</i>
   <i type="int" name="IALGO">    38</i>
   <i type="int" name="IWAVPR">    11</i>
   <i type="int" name="NBANDS">    16</i>
   <i name="NELECT">     12.00000000</i>
   <i type="int" name="TURBO">     0</i>
   <i type="int" name="IRESTART">     0</i>
   <i type="int" name="NREBOOT">     0</i>
   <i type="int" name="NMIN">     0</i>
   <i name="EREF">      0.00000000</i>
   <separator name="electronic smearing" >
    <i type="int" name="ISMEAR">     0</i>
    <i name="SIGMA">      0.01000000</i>
    <i name="KSPACING">      0.50000000</i>
    <i type="logical" name="KGAMMA"> T  </i>
   </separator>
   <separator name="electronic projectors" >
    <i type="logical" name="LREAL"> F  </i>
    <v name="ROPT">      0.00000000</v>
    <i type="int" name="LMAXPAW">  -100</i>
    <i type="int" name="LMAXMIX">     2</i>
    <i type="logical" name="NLSPLINE"> F  </i>
   </separator>
   <separator name="electronic startup" >
    <i type="int" name="ISTART">     0</i>
    <i type="int" name="ICHARG">     2</i>
    <i type="int" name="INIWAV">     1</i>
   </separator>
   <separator name="electronic spin" >
    <i type="int" name="ISPIN">     2</i>
    <i type="logical" name="LNONCOLLINEAR"> F  </i>
    <v name="MAGMOM">      0.00000000      0.00000000</v>
    <i name="NUPDOWN">     -1.00000000</i>
    <i type="logical" name="LSORBIT"> F  </i>
    <v name="SAXIS">      0.00000000      0.00000000      1.00000000</v>
    <i type="logical" name="LSPIRAL"> F  </i>
    <v name="QSPIRAL">      0.00000000      0.00000000      0.00000000</v>
    <i type="logical" name="LZEROZ"> F  </i>
   </separator>
   <separator name="electronic exchange-correlation" >
    <i type="logical" name="LASPH"> F  </i>
    <i type="logical" name="LMETAGGA"> F  </i>
   </separator>
   <separator name="electronic convergence" >
    <i type="int" name="NELM">    60</i>
    <i type="int" name="NELMDL">    -5</i>
    <i type="int" name="NELMIN">     2</i>
    <i name="ENINI">    400.00000000</i>
    <separator name="electronic convergence detail" >
     <i type="logical" name="LDIAG"> T  </i>
     <i type="logical" name="LSUBROT"> F  </i>
     <i name="WEIMIN">      0.00100000</i>
     <i name="EBREAK">      0.00000156</i>
     <i name="DEPER">      0.30000000</i>
     <i type="int" name="NRMM">     4</i>
     <i name="TIME">      0.40000000</i>
    </separator>
   </separator>
   <separator name="electronic mixer" >
    <i name="AMIX">      0.40000000</i>
    <i name="BMIX">      1.00000000</i>
    <i name="AMIN">      0.10000000</i>
    <i name="AMIX_MAG">      1.60000000</i>
    <i name="BMIX_MAG">      1.00000000</i>
    <separator name="electronic mixer details" >
     <i type="int" name="IMIX">     4</i>
     <i type="logical" name="MIXFIRST"> F  </i>
     <i type="int" name="MAXMIX">   -45</i>
     <i name="WC">    100.00000000</i>
     <i type="int" name="INIMIX">     1</i>
     <i type="int" name="MIXPRE">     1</i>
     <i type="int" name="MREMOVE">     5</i>
    </separator>
   </separator>
   <separator name="electronic dipolcorrection" >
    <i type="logical" name="LDIPOL"> F  </i>
    <i type="logical" name="LMONO"> F  </i>
    <i type="int" name="IDIPOL">     0</i>
    <i name="EPSILON">      1.00000000</i>
    <v name="DIPOL">   -100.00000000   -100.00000000   -100.00000000</v>
    <i name="EFIELD">      0.00000000</i>
   </separator>
  </separator>
  <separator name="grids" >
   <i type="int" name="NGX">    60</i>
   <i type="int" name="NGY">    60</i>
   <i type="int" name="NGZ">    60</i>
   <i type="int" name="NGXF">   120</i>
   <i type="int" name="NGYF">   120</i>
   <i type="int" name="NGZF">   120</i>
   <i type="logical" name="ADDGRID"> F  </i>
  </separator>
  <separator name="ionic" >
   <i type="int" name="NSW">    20</i>
   <i type="int" name="IBRION">     1</i>
   <i type="int" name="ISIF">     2</i>
   <i name="PSTRESS">      0.00000000</i>
   <i name="EDIFFG">      0.00100000</i>
   <i type="int" name="NFREE">     0</i>
   <i name="POTIM">      0.50000000</i>
   <i name="SMASS">     -3.00000000</i>
   <i name="SCALEE">      1.00000000</i>
  </separator>
  <separator name="ionic md" >
   <i name="TEBEG">      0.00010000</i>
   <i name="TEEND">      0.00010000</i>
   <i type="int" name="NBLOCK">     1</i>
   <i type="int" name="KBLOCK">    20</i>
   <i type="int" name="NPACO">   256</i>
   <i name="APACO">     16.00000000</i>
  </separator>
  <separator name="symmetry" >
   <i type="int" name="ISYM">     2</i>
   <i name="SYMPREC">      0.00001000</i>
  </separator>
  <separator name="dos" >
   <i type="logical" name="LORBIT"> F  </i>
   <v name="RWIGS">     -1.00000000</v>
   <i type="int" name="NEDOS">   301</i>
   <i name="EMIN">     10.00000000</i>
   <i name="EMAX">    -10.00000000</i>
   <i name="EFERMI">      0.00000000</i>
  </separator>
  <separator name="writing" >
   <i type="int" name="NWRITE">     2</i>
   <i type="logical" name="LWAVE"> F  </i>
   <i type="logical" name="LCHARG"> F  </i>
   <i type="logical" name="LPARD"> F  </i>
   <i type="logical" name="LVTOT"> F  </i>
   <i type="logical" name="LVHAR"> F  </i>
   <i type="logical" name="LELF"> F  </i>
   <i type="logical" name="LOPTICS"> F  </i>
   <v name="STM">      0.00000000      0.00000000      0.00000000      0.00000000      0.00000000      0.00000000      0.00000000</v>
  </separator>
  <separator name="performance" >
   <i type="int" name="NPAR">     8</i>
   <i type="int" name="NSIM">     4</i>
   <i type="int" name="NBLK">    -1</i>
   <i type="logical" name="LPLANE"> T  </i>
   <i type="logical" name="LSCALAPACK"> F  </i>
   <i type="logical" name="LSCAAWARE"> F  </i>
   <i type="logical" name="LSCALU"> F  </i>
   <i type="logical" name="LASYNC"> F  </i>
   <i type="logical" name="LORBITALREAL"> F  </i>
  </separator>
  <separator name="miscellaneous" >
   <i type="int" name="IDIOT">     3</i>
   <i type="logical" name="LMUSIC"> F  </i>
   <v name="POMASS">     16.00000000</v>
   <v name="DARWINR">      0.00000000</v>
   <v name="DARWINV">      1.00000000</v>
   <i type="logical" name="LCORR"> T  </i>
  </separator>
  <i type="logical" name="GGA_COMPAT"> T  </i>
  <i type="logical" name="LBERRY"> F  </i>
  <i type="int" name="ICORELEVEL">     0</i>
  <i type="logical" name="LDAU"> F  </i>
  <i type="int" name="I_CONSTRAINED_M">     0</i>
  <separator name="electronic exchange-correlation" >
   <i type="string" name="GGA">--</i>
   <i type="int" name="VOSKOWN">     0</i>
   <i type="logical" name="LHFCALC"> F  </i>
   <i type="string" name="PRECFOCK"></i>
   <i type="logical" name="LSYMGRAD"> F  </i>
   <i type="logical" name="LHFONE"> F  </i>
   <i type="logical" name="LRHFCALC"> F  </i>
   <i type="logical" name="LTHOMAS"> F  </i>
   <i type="logical" name="LMODELHF"> F  </i>
   <i name="ENCUT4O">     -1.00000000</i>
   <i type="int" name="EXXOEP">     0</i>
   <i type="int" name="FOURORBIT">     0</i>
   <i name="AEXX">      0.00000000</i>
   <i name="HFALPHA">      0.00000000</i>
   <i name="MCALPHA">      0.00000000</i>
   <i name="ALDAX">      1.00000000</i>
   <i name="AGGAX">      1.00000000</i>
   <i name="ALDAC">      1.00000000</i>
   <i name="AGGAC">      1.00000000</i>
   <i type="int" name="NKREDX">     1</i>
   <i type="int" name="NKREDY">     1</i>
   <i type="int" name="NKREDZ">     1</i>
   <i type="logical" name="SHIFTRED"> F  </i>
   <i type="logical" name="ODDONLY"> F  </i>
   <i type="logical" name="EVENONLY"> F  </i>
   <i type="int" name="LMAXFOCK">     0</i>
   <i type="int" name="NMAXFOCKAE">     0</i>
   <i type="logical" name="LFOCKAEDFT"> F  </i>
   <i name="HFSCREEN">      0.00000000</i>
   <i name="HFSCREENC">      0.00000000</i>
   <i type="int" name="NBANDSGWLOW">     0</i>
  </separator>
  <separator name="vdW DFT" >
   <i type="logical" name="LUSE_VDW"> F  </i>
   <i name="Zab_VDW">     -0.84910000</i>
   <i name="PARAM1">      0.12340000</i>
   <i name="PARAM2">      1.00000000</i>
   <i name="PARAM3">      0.00000000</i>
  </separator>
  <separator name="model GW" >
   <i type="int" name="MODEL_GW">     0</i>
   <i name="MODEL_EPS0">    518.40000000</i>
   <i name="MODEL_ALPHA">      1.00000000</i>
  </separator>
  <separator name="linear response parameters" >
   <i type="logical" name="LEPSILON"> F  </i>
   <i type="logical" name="LRPA"> F  </i>
   <i type="logical" name="LNABLA"> F  </i>
   <i type="logical" name="LVEL"> F  </i>
   <i type="int" name="KINTER">     0</i>
   <i name="CSHIFT">      0.10000000</i>
   <i name="OMEGAMAX">     -1.00000000</i>
   <i name="DEG_THRESHOLD">      0.00200000</i>
  </separator>
  <separator name="orbital magnetization" >
   <i type="logical" name="NUCIND"> F  </i>
   <v name="MAGPOS">      0.00000000      0.00000000      0.00000000</v>
   <i type="logical" name="LNICSALL"> T  </i>
   <i type="logical" name="ORBITALMAG"> F  </i>
   <i type="logical" name="LMAGBLOCH"> F  </i>
   <i type="logical" name="LCHIMAG"> F  </i>
   <i type="logical" name="LGAUGE"> T  </i>
   <i type="int" name="MAGATOM">     0</i>
   <v name="MAGDIPOL">      0.00000000      0.00000000      0.00000000</v>
   <v name="AVECCONST">      0.00000000      0.00000000      0.00000000</v>
  </separator>
  <separator name="response functions" >
   <i type="logical" name="LADDER"> F  </i>
   <i type="logical" name="LFXC"> F  </i>
   <i type="logical" name="LHARTREE"> T  </i>
   <i type="int" name="IBSE">     0</i>
   <v type="int" name="KPOINT">    -1     0     0     0</v>
   <i type="logical" name="LTCTE"> F  </i>
   <i type="logical" name="LTETE"> F  </i>
   <i type="logical" name="LTRIPLET"> F  </i>
   <i type="logical" name="LFXCEPS"> F  </i>
   <i type="logical" name="LFXHEG"> F  </i>
   <i type="int" name="NATURALO">     0</i>
   <i type="logical" name="L2ORDER"> F  </i>
   <i type="logical" name="LUSEW"> F  </i>
   <i name="ENCUTGW">     -2.00000000</i>
   <i name="ENCUTGWSOFT">     -2.00000000</i>
   <i name="ENCUTLF">     -1.00000000</i>
   <i type="int" name="LMAXMP2">    -1</i>
   <i name="SCISSOR">      0.00000000</i>
   <i type="int" name="NOMEGA">     0</i>
   <i type="int" name="NOMEGAR">     0</i>
   <i type="int" name="NBANDSGW">    -1</i>
   <i type="int" name="NBANDSO">    -1</i>
   <i type="int" name="NBANDSV">    -1</i>
   <i type="int" name="NELM">     1</i>
   <i type="int" name="NELMHF">     1</i>
   <i type="int" name="DIM">     3</i>
   <i type="int" name="ANTIRES">     0</i>
   <i name="OMEGAMAX">    -30.00000000</i>
   <i name="OMEGAMIN">    -30.00000000</i>
   <i name="OMEGATL">   -200.00000000</i>
   <i type="int" name="OMEGAGRID">     0</i>
   <i name="CSHIFT">     -0.10000000</i>
   <i type="logical" name="SELFENERGY"> F  </i>
   <i type="logical" name="LSPECTRAL"> F  </i>
   <i type="logical" name="LSPECTRALGW"> F  </i>
   <i type="logical" name="LSINGLES"> F  </i>
   <i type="logical" name="LFERMIGW"> F  </i>
   <i type="logical" name="ODDONLYGW"> F  </i>
   <i type="logical" name="EVENONLYGW"> F  </i>
   <i type="int" name="NKREDLFX">     1</i>
   <i type="int" name="NKREDLFY">     1</i>
   <i type="int" name="NKREDLFZ">     1</i>
   <i type="int" name="MAXMEM">  1800</i>
   <i type="int" name="TELESCOPE">     0</i>
   <i type="int" name="TAUPAR">     1</i>
   <i type="int" name="OMEGAPAR">    -1</i>
   <i name="LAMBDA">      1.00000000</i>
  </separator>
  <separator name="External order field" >
   <i name="OFIELD_KAPPA">      0.00000000</i>
   <v name="OFIELD_K">      0.00000000      0.00000000      0.00000000</v>
   <i name="OFIELD_Q6_NEAR">      0.00000000</i>
   <i name="OFIELD_Q6_FAR">      0.00000000</i>
   <i name="OFIELD_A">      0.00000000</i>
  </separator>
 </parameters>
 <atominfo>
  <atoms>       2 </atoms>
  <types>       1 </types>
  <array name="atoms" >
   <dimension dim="1">ion</dimension>
   <field type="string">element</field>
   <field type="int">atomtype</field>
   <set>
    <rc><c>O </c><c>   1</c></rc>
    <rc><c>O </c><c>   1</c></rc>
   </set>
  </array>
  <array name="atomtypes" >
   <dimension dim="1">type</dimension>
   <field type="int">atomspertype</field>
   <field type="string">element</field>
   <field>mass</field>
   <field>valence</field>
   <field type="string">pseudopotential</field>
   <set>
    <rc><c>   2</c><c>O </c><c>     16.00000000</c><c>      6.00000000</c><c>  PAW_PBE O 08Apr2002                   </c></rc>
   </set>
  </array>
 </atominfo>
 <structure name="initialpos" >
  <crystal>
   <varray name="basis" >
    <v>      12.00000000       0.00000000       0.00000000 </v>
    <v>       0.00000000      12.00000000       0.00000000 </v>
    <v>       0.00000000       0.00000000      12.00000000 </v>
   </varray>
   <i name="volume">   1728.00000000 </i>
   <varray name="rec_basis" >
    <v>       0.08333333       0.00000000       0.00000000 </v>
    <v>       0.00000000       0.08333333       0.00000000 </v>
    <v>       0.00000000       0.00000000       0.08333333 </v>
   </varray>
  </crystal>
  <varray name="positions" >
   <v>       0.44791667       0.50000000       0.50000000 </v>
   <v>       0.55208333       0.50000000       0.50000000 </v>
  </varray>
 </structure>
 <calculation>
  <scstep>
   <time name="dav">    0.33    0.33</time>
   <time name="total">    0.73    0.73</time>
   <energy>
    <i name="alphaZ">      0.32165383 </i>
    <i name="ewald">    170.57256435 </i>
    <i name="hartreedc">   -899.13165751 </i>
    <i name="XCdc">     54.25978282 </i>
    <i name="pawpsdc">    693.09895092 </i>
    <i name="pawaedc">   -696.69629226 </i>
    <i name="eentropy">     -0.00000000 </i>
    <i name="bandstr">   -110.05512128 </i>
    <i name="atom">    864.52639207 </i>
    <i name="e_fr_energy">     76.89627294 </i>
    <i name="e_wo_entrp">     76.89627294 </i>
    <i name="e_0_energy">     76.89627294 </i>
   </energy>
  </scstep>
  <scstep>
   <time name="dav">    0.32    0.32</time>
   <time name="total">    0.32    0.34</time>
   <energy>
    <i name="e_fr_energy">      8.48937018 </i>
    <i name="e_wo_entrp">      8.49171127 </i>
    <i name="e_0_energy">      8.49054072 </i>
   </energy>
  </scstep>
  <scstep>
   <time name="dav">    0.40    0.40</time>
   <time name="total">    0.40    0.40</time>
   <energy>
    <i name="e_fr_energy">     -7.96931770 </i>
    <i name="e_wo_entrp">     -7.96931770 </i>
    <i name="e_0_energy">     -7.96931770 </i>
   </energy>
  </scstep>
  <scstep>
   <time name="dav">    0.32    0.32</time>
   <time name="total">    0.32    0.32</time>
   <energy>
    <i name="e_fr_energy">     -8.97954867 </i>
    <i name="e_wo_entrp">     -8.97512562 </i>
    <i name="e_0_energy">     -8.97733714 </i>
   </energy>
  </scstep>
  <scstep>
   <time name="dav">    0.32    0.32</time>
   <time name="total">    0.43    0.43</time>
   <energy>
    <i name="e_fr_energy">     -9.01316441 </i>
    <i name="e_wo_entrp">     -9.00192106 </i>
    <i name="e_0_energy">     -9.00754273 </i>
   </energy>
  </scstep>
  <scstep>
   <time name="dav">    0.24    0.24</time>
   <time name="total">    0.69    0.72</time>
   <energy>
    <i name="e_fr_energy">     -8.77403391 </i>
    <i name="e_wo_entrp">     -8.76459095 </i>
    <i name="e_0_energy">     -8.76931243 </i>
   </energy>
  </scstep>
  <scstep>
   <time name="dav">    0.29    0.29</time>
   <time name="total">    0.74    0.75</time>
   <energy>
    <i name="e_fr_energy">     -8.88569176 </i>
    <i name="e_wo_entrp">     -8.88569176 </i>
    <i name="e_0_energy">     -8.88569176 </i>
   </energy>
  </scstep>
  <scstep>
   <time name="dav">    0.27    0.27</time>
   <time name="total">    0.71    0.72</time>
   <energy>
    <i name="e_fr_energy">     -6.98764920 </i>
    <i name="e_wo_entrp">     -6.98764920 </i>
    <i name="e_0_energy">     -6.98764920 </i>
   </energy>
  </scstep>
  <scstep>
   <time name="dav">    0.31    0.31</time>
   <time name="total">    0.74    0.75</time>
   <energy>
    <i name="e_fr_energy">     -9.08040362 </i>
    <i name="e_wo_entrp">     -9.08040362 </i>
    <i name="e_0_energy">     -9.08040362 </i>
   </energy>
  </scstep>
  <scstep>
   <time name="dav">    0.23    0.23</time>
   <time name="total">    0.67    0.67</time>
   <energy>
    <i name="e_fr_energy">     -8.60747086 </i>
    <i name="e_wo_entrp">     -8.60747086 </i>
    <i name="e_0_energy">     -8.60747086 </i>
   </energy>
  </scstep>
  <scstep>
   <time name="dav">    0.24    0.24</time>
   <time name="total">    0.66    0.66</time>
   <energy>
    <i name="e_fr_energy">     -8.38285930 </i>
    <i name="e_wo_entrp">     -8.38285930 </i>
    <i name="e_0_energy">     -8.38285930 </i>
   </energy>
  </scstep>
  <scstep>
   <time name="dav">    0.21    0.21</time>
   <time name="total">    0.64    0.64</time>
   <energy>
    <i name="e_fr_energy">     -8.53315495 </i>
    <i name="e_wo_entrp">     -8.53315495 </i>
    <i name="e_0_energy">     -8.53315495 </i>
   </energy>
  </scstep>
  <scstep>
   <time name="dav">    0.26    0.26</time>
   <time name="total">    0.69    0.69</time>
   <energy>
    <i name="e_fr_energy">     -9.50027820 </i>
    <i name="e_wo_entrp">     -9.50027820 </i>
    <i name="e_0_energy">     -9.50027820 </i>
   </energy>
  </scstep>
  <scstep>
   <time name="dav">    0.25    0.25</time>
   <time name="total">    0.67    0.68</time>
   <energy>
    <i name="e_fr_energy">     -9.75950499 </i>
    <i name="e_wo_entrp">     -9.75950499 </i>
    <i name="e_0_energy">     -9.75950499 </i>
   </energy>
  </scstep>
  <scstep>
   <time name="dav">    0.24    0.24</time>
   <time name="total">    0.68    0.69</time>
   <energy>
    <i name="e_fr_energy">     -9.81737676 </i>
    <i name="e_wo_entrp">     -9.81737676 </i>
    <i name="e_0_energy">     -9.81737676 </i>
   </energy>
  </scstep>
  <scstep>
   <time name="dav">    0.25    0.25</time>
   <time name="total">    0.71    0.72</time>
   <energy>
    <i name="e_fr_energy">     -9.85378029 </i>
    <i name="e_wo_entrp">     -9.85378029 </i>
    <i name="e_0_energy">     -9.85378029 </i>
   </energy>
  </scstep>
  <scstep>
   <time name="dav">    0.25    0.25</time>
   <time name="total">    0.72    0.72</time>
   <energy>
    <i name="e_fr_energy">     -9.85552191 </i>
    <i name="e_wo_entrp">     -9.85552191 </i>
    <i name="e_0_energy">     -9.85552191 </i>
   </energy>
  </scstep>
  <scstep>
   <time name="dav">    0.21    0.21</time>
   <time name="total">    0.54    0.55</time>
   <energy>
    <i name="alphaZ">      0.32165383 </i>
    <i name="ewald">    170.57256435 </i>
    <i name="hartreedc">   -905.17752905 </i>
    <i name="XCdc">     55.20963505 </i>
    <i name="pawpsdc">    886.48067210 </i>
    <i name="pawaedc">   -889.95937061 </i>
    <i name="eentropy">     -0.00000000 </i>
    <i name="bandstr">   -191.82963898 </i>
    <i name="atom">    864.52639207 </i>
    <i name="e_fr_energy">     -9.85562124 </i>
    <i name="e_wo_entrp">     -9.85562124 </i>
    <i name="e_0_energy">     -9.85562124 </i>
   </energy>
  </scstep>
  <structure>
   <crystal>
    <varray name="basis" >
     <v>      12.00000000       0.00000000       0.00000000 </v>
     <v>       0.00000000      12.00000000       0.00000000 </v>
     <v>       0.00000000       0.00000000      12.00000000 </v>
    </varray>
    <i name="volume">   1728.00000000 </i>
    <varray name="rec_basis" >
     <v>       0.08333333       0.00000000       0.00000000 </v>
     <v>       0.00000000       0.08333333       0.00000000 </v>
     <v>       0.00000000       0.00000000       0.08333333 </v>
    </varray>
   </crystal>
   <varray name="positions" >
    <v>       0.44791667       0.50000000       0.50000000 </v>
    <v>       0.55208333       0.50000000       0.50000000 </v>
   </varray>
  </structure>
  <varray name="forces" >
   <v>       1.08151184      -0.00000000      -0.00000000 </v>
   <v>      -1.08151184       0.00000000       0.00000000 </v>
  </varray>
  <varray name="stress" >
   <v>      -2.29460500       0.00000000       0.00000000 </v>
   <v>       0.00000000      -1.41239074      -0.00000000 </v>
   <v>      -0.00000000       0.00000000      -1.41239074 </v>
  </varray>
  <energy>
   <i name="e_fr_energy">     -9.85562124 </i>
   <i name="e_wo_entrp">     -9.85562124 </i>
   <i name="e_0_energy">     -0.00000000 </i>
  </energy>
  <time name="totalsc">   12.13   12.25</time>
 </calculation>
 <calculation>
  <scstep>
   <time name="dav">    0.26    0.26</time>
   <time name="total">    0.67    0.67</time>
   <energy>
    <i name="alphaZ">      0.32165383 </i>
    <i name="ewald">    208.18448819 </i>
    <i name="hartreedc">   -932.12892933 </i>
    <i name="XCdc">     55.72106577 </i>
    <i name="pawpsdc">    886.62780481 </i>
    <i name="pawaedc">   -890.10788866 </i>
    <i name="eentropy">     -0.00000000 </i>
    <i name="bandstr">   -202.62157297 </i>
    <i name="atom">    864.52639207 </i>
    <i name="e_fr_energy">     -9.47698629 </i>
    <i name="e_wo_entrp">     -9.47698629 </i>
    <i name="e_0_energy">     -9.47698629 </i>
   </energy>
  </scstep>
  <scstep>
   <time name="dav">    0.20    0.20</time>
   <time name="total">    0.61    0.63</time>
   <energy>
    <i name="e_fr_energy">     -9.50131918 </i>
    <i name="e_wo_entrp">     -9.50131918 </i>
    <i name="e_0_energy">     -9.50131918 </i>
   </energy>
  </scstep>
  <scstep>
   <time name="dav">    0.24    0.24</time>
   <time name="total">    0.65    0.66</time>
   <energy>
    <i name="e_fr_energy">     -9.50812896 </i>
    <i name="e_wo_entrp">     -9.50812896 </i>
    <i name="e_0_energy">     -9.50812896 </i>
   </energy>
  </scstep>
  <scstep>
   <time name="dav">    0.24    0.24</time>
   <time name="total">    0.65    0.66</time>
   <energy>
    <i name="e_fr_energy">     -9.50818240 </i>
    <i name="e_wo_entrp">     -9.50818240 </i>
    <i name="e_0_energy">     -9.50818240 </i>
   </energy>
  </scstep>
  <scstep>
   <time name="dav">    0.20    0.20</time>
   <time name="total">    0.61    0.62</time>
   <energy>
    <i name="e_fr_energy">     -9.50966302 </i>
    <i name="e_wo_entrp">     -9.50966302 </i>
    <i name="e_0_energy">     -9.50966302 </i>
   </energy>
  </scstep>
  <scstep>
   <time name="dav">    0.24    0.24</time>
   <time name="total">    0.66    0.67</time>
   <energy>
    <i name="e_fr_energy">     -9.50993708 </i>
    <i name="e_wo_entrp">     -9.50993708 </i>
    <i name="e_0_energy">     -9.50993708 </i>
   </energy>
  </scstep>
  <scstep>
   <time name="dav">    0.24    0.24</time>
   <time name="total">    0.66    0.67</time>
   <energy>
    <i name="e_fr_energy">     -9.51022178 </i>
    <i name="e_wo_entrp">     -9.51022178 </i>
    <i name="e_0_energy">     -9.51022178 </i>
   </energy>
  </scstep>
  <scstep>
   <time name="dav">    0.20    0.20</time>
   <time name="total">    0.61    0.63</time>
   <energy>
    <i name="e_fr_energy">     -9.51035584 </i>
    <i name="e_wo_entrp">     -9.51035584 </i>
    <i name="e_0_energy">     -9.51035584 </i>
   </energy>
  </scstep>
  <scstep>
   <time name="dav">    0.21    0.21</time>
   <time name="total">    0.63    0.64</time>
   <energy>
    <i name="e_fr_energy">     -9.51057500 </i>
    <i name="e_wo_entrp">     -9.51057500 </i>
    <i name="e_0_energy">     -9.51057500 </i>
   </energy>
  </scstep>
  <scstep>
   <time name="dav">    0.25    0.25</time>
   <time name="total">    0.60    0.61</time>
   <energy>
    <i name="alphaZ">      0.32165383 </i>
    <i name="ewald">    208.18448819 </i>
    <i name="hartreedc">   -937.46867582 </i>
    <i name="XCdc">     56.04070428 </i>
    <i name="pawpsdc">    975.61232598 </i>
    <i name="pawaedc">   -979.27698047 </i>
    <i name="eentropy">     -0.00000000 </i>
    <i name="bandstr">   -197.45055368 </i>
    <i name="atom">    864.52639207 </i>
    <i name="e_fr_energy">     -9.51064561 </i>
    <i name="e_wo_entrp">     -9.51064561 </i>
    <i name="e_0_energy">     -9.51064561 </i>
   </energy>
  </scstep>
  <structure>
   <crystal>
    <varray name="basis" >
     <v>      12.00000000       0.00000000       0.00000000 </v>
     <v>       0.00000000      12.00000000       0.00000000 </v>
     <v>       0.00000000       0.00000000      12.00000000 </v>
    </varray>
    <i name="volume">   1728.00000000 </i>
    <varray name="rec_basis" >
     <v>       0.08333333       0.00000000       0.00000000 </v>
     <v>       0.00000000       0.08333333       0.00000000 </v>
     <v>       0.00000000       0.00000000       0.08333333 </v>
    </varray>
   </crystal>
   <varray name="positions" >
    <v>       0.45226458       0.50000000       0.50000000 </v>
    <v>       0.54773542       0.50000000       0.50000000 </v>
   </varray>
  </structure>
  <varray name="forces" >
   <v>      -8.92924126      -0.00000000      -0.00000000 </v>
   <v>       8.92924126       0.00000000       0.00000000 </v>
  </varray>
  <varray name="stress" >
   <v>       8.26657325      -0.00000000       0.00000000 </v>
   <v>      -0.00000000      -1.42156725       0.00000000 </v>
   <v>       0.00000000      -0.00000000      -1.42156725 </v>
  </varray>
  <energy>
   <i name="e_fr_energy">     -9.51064561 </i>
   <i name="e_wo_entrp">     -9.51064561 </i>
   <i name="e_0_energy">     -0.00000000 </i>
  </energy>
  <time name="totalsc">    7.43    7.52</time>
 </calculation>
 <calculation>
  <scstep>
   <time name="dav">    0.27    0.27</time>
   <time name="total">    0.68    0.68</time>
   <energy>
    <i name="alphaZ">      0.32165383 </i>
    <i name="ewald">    174.32861435 </i>
    <i name="hartreedc">   -913.34961048 </i>
    <i name="XCdc">     55.59106343 </i>
    <i name="pawpsdc">    975.61163993 </i>
    <i name="pawaedc">   -979.27639109 </i>
    <i name="eentropy">     -0.00000000 </i>
    <i name="bandstr">   -187.61006185 </i>
    <i name="atom">    864.52639207 </i>
    <i name="e_fr_energy">     -9.85669979 </i>
    <i name="e_wo_entrp">     -9.85669979 </i>
    <i name="e_0_energy">     -9.85669979 </i>
   </energy>
  </scstep>
  <scstep>
   <time name="dav">    0.21    0.21</time>
   <time name="total">    0.62    0.62</time>
   <energy>
    <i name="e_fr_energy">     -9.85128233 </i>
    <i name="e_wo_entrp">     -9.85128233 </i>
    <i name="e_0_energy">     -9.85128233 </i>
   </energy>
  </scstep>
  <scstep>
   <time name="dav">    0.20    0.20</time>
   <time name="total">    0.61    0.62</time>
   <energy>
    <i name="e_fr_energy">     -9.85967010 </i>
    <i name="e_wo_entrp">     -9.85967010 </i>
    <i name="e_0_energy">     -9.85967010 </i>
   </energy>
  </scstep>
  <scstep>
   <time name="dav">    0.22    0.22</time>
   <time name="total">    0.63    0.64</time>
   <energy>
    <i name="e_fr_energy">     -9.86208887 </i>
    <i name="e_wo_entrp">     -9.86208887 </i>
    <i name="e_0_energy">     -9.86208887 </i>
   </energy>
  </scstep>
  <scstep>
   <time name="dav">    0.25    0.25</time>
   <time name="total">    0.70    0.71</time>
   <energy>
    <i name="e_fr_energy">     -9.86330010 </i>
    <i name="e_wo_entrp">     -9.86330010 </i>
    <i name="e_0_energy">     -9.86330010 </i>
   </energy>
  </scstep>
  <scstep>
   <time name="dav">    0.22    0.22</time>
   <time name="total">    0.64    0.65</time>
   <energy>
    <i name="e_fr_energy">     -9.86367916 </i>
    <i name="e_wo_entrp">     -9.86367916 </i>
    <i name="e_0_energy">     -9.86367916 </i>
   </energy>
  </scstep>
  <scstep>
   <time name="dav">    0.21    0.21</time>
   <time name="total">    0.53    0.53</time>
   <energy>
    <i name="alphaZ">      0.32165383 </i>
    <i name="ewald">    174.32861435 </i>
    <i name="hartreedc">   -908.55308953 </i>
    <i name="XCdc">     55.29490249 </i>
    <i name="pawpsdc">    894.78512218 </i>
    <i name="pawaedc">   -898.27917199 </i>
    <i name="eentropy">     -0.00000000 </i>
    <i name="bandstr">   -192.28819442 </i>
    <i name="atom">    864.52639207 </i>
    <i name="e_fr_energy">     -9.86377102 </i>
    <i name="e_wo_entrp">     -9.86377102 </i>
    <i name="e_0_energy">     -9.86377102 </i>
   </energy>
  </scstep>
  <structure>
   <crystal>
    <varray name="basis" >
     <v>      12.00000000       0.00000000       0.00000000 </v>
     <v>       0.00000000      12.00000000       0.00000000 </v>
     <v>       0.00000000       0.00000000      12.00000000 </v>
    </varray>
    <i name="volume">   1728.00000000 </i>
    <varray name="rec_basis" >
     <v>       0.08333333       0.00000000       0.00000000 </v>
     <v>       0.00000000       0.08333333       0.00000000 </v>
     <v>       0.00000000       0.00000000       0.08333333 </v>
    </varray>
   </crystal>
   <varray name="positions" >
    <v>       0.44838639       0.50000000       0.50000000 </v>
    <v>       0.55161361       0.50000000       0.50000000 </v>
   </varray>
  </structure>
  <varray name="forces" >
   <v>       0.32505316      -0.00000000      -0.00000000 </v>
   <v>      -0.32505316       0.00000000       0.00000000 </v>
  </varray>
  <varray name="stress" >
   <v>      -1.44642505       0.00000000       0.00000000 </v>
   <v>       0.00000000      -1.42858687       0.00000000 </v>
   <v>       0.00000000      -0.00000000      -1.42858687 </v>
  </varray>
  <energy>
   <i name="e_fr_energy">     -9.86377102 </i>
   <i name="e_wo_entrp">     -9.86377102 </i>
   <i name="e_0_energy">     -0.00000000 </i>
  </energy>
  <time name="totalsc">    5.57    5.64</time>
 </calculation>
 <calculation>
  <scstep>
   <time name="dav">    0.31    0.31</time>
   <time name="total">    0.73    0.73</time>
   <energy>
    <i name="alphaZ">      0.32165383 </i>
    <i name="ewald">    175.43077711 </i>
    <i name="hartreedc">   -909.36188250 </i>
    <i name="XCdc">     55.30898484 </i>
    <i name="pawpsdc">    894.71936852 </i>
    <i name="pawaedc">   -898.21355610 </i>
    <i name="eentropy">     -0.00000000 </i>
    <i name="bandstr">   -192.59623359 </i>
    <i name="atom">    864.52639207 </i>
    <i name="e_fr_energy">     -9.86449583 </i>
    <i name="e_wo_entrp">     -9.86449583 </i>
    <i name="e_0_energy">     -9.86449583 </i>
   </energy>
  </scstep>
  <scstep>
   <time name="dav">    0.22    0.22</time>
   <time name="total">    0.54    0.56</time>
   <energy>
    <i name="alphaZ">      0.32165383 </i>
    <i name="ewald">    175.43077711 </i>
    <i name="hartreedc">   -909.45432575 </i>
    <i name="XCdc">     55.31486664 </i>
    <i name="pawpsdc">    895.80721336 </i>
    <i name="pawaedc">   -899.30359373 </i>
    <i name="eentropy">     -0.00000000 </i>
    <i name="bandstr">   -192.50752177 </i>
    <i name="atom">    864.52639207 </i>
    <i name="e_fr_energy">     -9.86453825 </i>
    <i name="e_wo_entrp">     -9.86453825 </i>
    <i name="e_0_energy">     -9.86453825 </i>
   </energy>
  </scstep>
  <structure>
   <crystal>
    <varray name="basis" >
     <v>      12.00000000       0.00000000       0.00000000 </v>
     <v>       0.00000000      12.00000000       0.00000000 </v>
     <v>       0.00000000       0.00000000      12.00000000 </v>
    </varray>
    <i name="volume">   1728.00000000 </i>
    <varray name="rec_basis" >
     <v>       0.08333333       0.00000000       0.00000000 </v>
     <v>       0.00000000       0.08333333       0.00000000 </v>
     <v>       0.00000000       0.00000000       0.08333333 </v>
    </varray>
   </crystal>
   <varray name="positions" >
    <v>       0.44852261       0.50000000       0.50000000 </v>
    <v>       0.55147739       0.50000000       0.50000000 </v>
   </varray>
  </structure>
  <varray name="forces" >
   <v>       0.10987708       0.00000000       0.00000000 </v>
   <v>      -0.10987708      -0.00000000      -0.00000000 </v>
  </varray>
  <varray name="stress" >
   <v>      -1.15768017       0.00000000       0.00000000 </v>
   <v>       0.00000000      -1.36011309      -0.00000000 </v>
   <v>       0.00000000      -0.00000000      -1.36011309 </v>
  </varray>
  <energy>
   <i name="e_fr_energy">     -9.86453825 </i>
   <i name="e_wo_entrp">     -9.86453825 </i>
   <i name="e_0_energy">     -0.00000000 </i>
  </energy>
  <time name="totalsc">    2.36    2.39</time>
 </calculation>
 <calculation>
  <scstep>
   <time name="dav">    0.28    0.28</time>
   <time name="total">    0.69    0.69</time>
   <energy>
    <i name="alphaZ">      0.32165383 </i>
    <i name="ewald">    175.99585259 </i>
    <i name="hartreedc">   -909.91091317 </i>
    <i name="XCdc">     55.32469138 </i>
    <i name="pawpsdc">    896.31637944 </i>
    <i name="pawaedc">   -899.81420016 </i>
    <i name="eentropy">     -0.00000000 </i>
    <i name="bandstr">   -192.62450178 </i>
    <i name="atom">    864.52639207 </i>
    <i name="e_fr_energy">     -9.86464580 </i>
    <i name="e_wo_entrp">     -9.86464580 </i>
    <i name="e_0_energy">     -9.86464580 </i>
   </energy>
  </scstep>
  <scstep>
   <time name="dav">    0.26    0.26</time>
   <time name="total">    0.60    0.61</time>
   <energy>
    <i name="alphaZ">      0.32165383 </i>
    <i name="ewald">    175.99585259 </i>
    <i name="hartreedc">   -909.97710653 </i>
    <i name="XCdc">     55.32882530 </i>
    <i name="pawpsdc">    897.24000657 </i>
    <i name="pawaedc">   -900.73964363 </i>
    <i name="eentropy">     -0.00000000 </i>
    <i name="bandstr">   -192.56064090 </i>
    <i name="atom">    864.52639207 </i>
    <i name="e_fr_energy">     -9.86466070 </i>
    <i name="e_wo_entrp">     -9.86466070 </i>
    <i name="e_0_energy">     -9.86466070 </i>
   </energy>
  </scstep>
  <structure>
   <crystal>
    <varray name="basis" >
     <v>      12.00000000       0.00000000       0.00000000 </v>
     <v>       0.00000000      12.00000000       0.00000000 </v>
     <v>       0.00000000       0.00000000      12.00000000 </v>
    </varray>
    <i name="volume">   1728.00000000 </i>
    <varray name="rec_basis" >
     <v>       0.08333333       0.00000000       0.00000000 </v>
     <v>       0.00000000       0.08333333       0.00000000 </v>
     <v>       0.00000000       0.00000000       0.08333333 </v>
    </varray>
   </crystal>
   <varray name="positions" >
    <v>       0.44859217       0.50000000       0.50000000 </v>
    <v>       0.55140783       0.50000000       0.50000000 </v>
   </varray>
  </structure>
  <varray name="forces" >
   <v>      -0.01552104       0.00000000       0.00000000 </v>
   <v>       0.01552104       0.00000000      -0.00000000 </v>
  </varray>
  <varray name="stress" >
   <v>      -1.03694422      -0.00000000      -0.00000000 </v>
   <v>      -0.00000000      -1.38612350       0.00000000 </v>
   <v>      -0.00000000       0.00000000      -1.38612350 </v>
  </varray>
  <energy>
   <i name="e_fr_energy">     -9.86466070 </i>
   <i name="e_wo_entrp">     -9.86466070 </i>
   <i name="e_0_energy">     -0.00000000 </i>
  </energy>
  <time name="totalsc">    2.39    2.42</time>
  <eigenvalues>
   <array>
    <dimension dim="1">band</dimension>
    <dimension dim="2">kpoint</dimension>
    <dimension dim="3">spin</dimension>
    <field>eigene</field>
    <field>occ</field>
    <set>
     <set comment="spin 1">
      <set comment="kpoint 1">
       <r>  -32.5307    1.0000 </r>
       <r>  -20.6535    1.0000 </r>
       <r>  -13.4211    1.0000 </r>
       <r>  -13.2716    1.0000 </r>
       <r>  -13.2716    1.0000 </r>
       <r>   -6.9503    1.0000 </r>
       <r>   -6.9503    1.0000 </r>
       <r>   -0.2854    0.0000 </r>
       <r>    0.5261    0.0000 </r>
       <r>    0.6503    0.0000 </r>
       <r>    0.7846    0.0000 </r>
       <r>    0.7846    0.0000 </r>
       <r>    0.9029    0.0000 </r>
       <r>    0.9870    0.0000 </r>
       <r>    1.5080    0.0000 </r>
       <r>    1.7227    0.0000 </r>
      </set>
     </set>
     <set comment="spin 2">
      <set comment="kpoint 1">
       <r>  -31.3039    1.0000 </r>
       <r>  -18.8576    1.0000 </r>
       <r>  -12.4940    1.0000 </r>
       <r>  -11.4280    1.0000 </r>
       <r>  -11.4280    1.0000 </r>
       <r>   -4.6767    0.0000 </r>
       <r>   -4.6767    0.0000 </r>
       <r>   -0.1906    0.0000 </r>
       <r>    0.7235    0.0000 </r>
       <r>    0.7515    0.0000 </r>
       <r>    0.8693    0.0000 </r>
       <r>    0.8693    0.0000 </r>
       <r>    0.9314    0.0000 </r>
       <r>    1.0320    0.0000 </r>
       <r>    1.6527    0.0000 </r>
       <r>    1.8147    0.0000 </r>
      </set>
     </set>
    </set>
   </array>
  </eigenvalues>
  <separator name="orbital magnetization" >
   <v name="MAGDIPOLOUT">      0.00000000      0.00000000      0.00000000</v>
  </separator>
  <dos>
   <i name="efermi">     -6.88898499 </i>
   <total>
    <array>
     <dimension dim="1">gridpoints</dimension>
     <dimension dim="2">spin</dimension>
     <field>energy</field>
     <field>total</field>
     <field>integrated</field>
     <set>
      <set comment="spin 1">
       <r>   -34.2480     0.0000     0.0000 </r>
       <r>   -34.1221     0.0000     0.0000 </r>
       <r>   -33.9961     0.0000     0.0000 </r>
       <r>   -33.8702     0.0000     0.0000 </r>
       <r>   -33.7443     0.0000     0.0000 </r>
       <r>   -33.6183     0.0000     0.0000 </r>
       <r>   -33.4924     0.0000     0.0000 </r>
       <r>   -33.3665     0.0000     0.0000 </r>
       <r>   -33.2405     0.0000     0.0000 </r>
       <r>   -33.1146     0.0000     0.0000 </r>
       <r>   -32.9887     0.0000     0.0000 </r>
       <r>   -32.8627     0.0000     0.0000 </r>
       <r>   -32.7368     0.0000     0.0000 </r>
       <r>   -32.6109     0.0000     0.0000 </r>
       <r>   -32.4849     7.9407     1.0000 </r>
       <r>   -32.3590     0.0000     1.0000 </r>
       <r>   -32.2331     0.0000     1.0000 </r>
       <r>   -32.1071     0.0000     1.0000 </r>
       <r>   -31.9812     0.0000     1.0000 </r>
       <r>   -31.8553     0.0000     1.0000 </r>
       <r>   -31.7293     0.0000     1.0000 </r>
       <r>   -31.6034     0.0000     1.0000 </r>
       <r>   -31.4775     0.0000     1.0000 </r>
       <r>   -31.3515     0.0000     1.0000 </r>
       <r>   -31.2256     0.0000     1.0000 </r>
       <r>   -31.0997     0.0000     1.0000 </r>
       <r>   -30.9737     0.0000     1.0000 </r>
       <r>   -30.8478     0.0000     1.0000 </r>
       <r>   -30.7219     0.0000     1.0000 </r>
       <r>   -30.5959     0.0000     1.0000 </r>
       <r>   -30.4700     0.0000     1.0000 </r>
       <r>   -30.3441     0.0000     1.0000 </r>
       <r>   -30.2181     0.0000     1.0000 </r>
       <r>   -30.0922     0.0000     1.0000 </r>
       <r>   -29.9663     0.0000     1.0000 </r>
       <r>   -29.8403     0.0000     1.0000 </r>
       <r>   -29.7144     0.0000     1.0000 </r>
       <r>   -29.5885     0.0000     1.0000 </r>
       <r>   -29.4625     0.0000     1.0000 </r>
       <r>   -29.3366     0.0000     1.0000 </r>
       <r>   -29.2107     0.0000     1.0000 </r>
       <r>   -29.0847     0.0000     1.0000 </r>
       <r>   -28.9588     0.0000     1.0000 </r>
       <r>   -28.8329     0.0000     1.0000 </r>
       <r>   -28.7069     0.0000     1.0000 </r>
       <r>   -28.5810     0.0000     1.0000 </r>
       <r>   -28.4551     0.0000     1.0000 </r>
       <r>   -28.3291     0.0000     1.0000 </r>
       <r>   -28.2032     0.0000     1.0000 </r>
       <r>   -28.0773     0.0000     1.0000 </r>
       <r>   -27.9513     0.0000     1.0000 </r>
       <r>   -27.8254     0.0000     1.0000 </r>
       <r>   -27.6995     0.0000     1.0000 </r>
       <r>   -27.5735     0.0000     1.0000 </r>
       <r>   -27.4476     0.0000     1.0000 </r>
       <r>   -27.3217     0.0000     1.0000 </r>
       <r>   -27.1957     0.0000     1.0000 </r>
       <r>   -27.0698     0.0000     1.0000 </r>
       <r>   -26.9439     0.0000     1.0000 </r>
       <r>   -26.8179     0.0000     1.0000 </r>
       <r>   -26.6920     0.0000     1.0000 </r>
       <r>   -26.5661     0.0000     1.0000 </r>
       <r>   -26.4401     0.0000     1.0000 </r>
       <r>   -26.3142     0.0000     1.0000 </r>
       <r>   -26.1883     0.0000     1.0000 </r>
       <r>   -26.0623     0.0000     1.0000 </r>
       <r>   -25.9364     0.0000     1.0000 </r>
       <r>   -25.8105     0.0000     1.0000 </r>
       <r>   -25.6845     0.0000     1.0000 </r>
       <r>   -25.5586     0.0000     1.0000 </r>
       <r>   -25.4327     0.0000     1.0000 </r>
       <r>   -25.3067     0.0000     1.0000 </r>
       <r>   -25.1808     0.0000     1.0000 </r>
       <r>   -25.0549     0.0000     1.0000 </r>
       <r>   -24.9289     0.0000     1.0000 </r>
       <r>   -24.8030     0.0000     1.0000 </r>
       <r>   -24.6771     0.0000     1.0000 </r>
       <r>   -24.5511     0.0000     1.0000 </r>
       <r>   -24.4252     0.0000     1.0000 </r>
       <r>   -24.2993     0.0000     1.0000 </r>
       <r>   -24.1733     0.0000     1.0000 </r>
       <r>   -24.0474     0.0000     1.0000 </r>
       <r>   -23.9215     0.0000     1.0000 </r>
       <r>   -23.7955     0.0000     1.0000 </r>
       <r>   -23.6696     0.0000     1.0000 </r>
       <r>   -23.5437     0.0000     1.0000 </r>
       <r>   -23.4177     0.0000     1.0000 </r>
       <r>   -23.2918     0.0000     1.0000 </r>
       <r>   -23.1659     0.0000     1.0000 </r>
       <r>   -23.0399     0.0000     1.0000 </r>
       <r>   -22.9140     0.0000     1.0000 </r>
       <r>   -22.7881     0.0000     1.0000 </r>
       <r>   -22.6621     0.0000     1.0000 </r>
       <r>   -22.5362     0.0000     1.0000 </r>
       <r>   -22.4103     0.0000     1.0000 </r>
       <r>   -22.2843     0.0000     1.0000 </r>
       <r>   -22.1584     0.0000     1.0000 </r>
       <r>   -22.0325     0.0000     1.0000 </r>
       <r>   -21.9065     0.0000     1.0000 </r>
       <r>   -21.7806     0.0000     1.0000 </r>
       <r>   -21.6547     0.0000     1.0000 </r>
       <r>   -21.5287     0.0000     1.0000 </r>
       <r>   -21.4028     0.0000     1.0000 </r>
       <r>   -21.2769     0.0000     1.0000 </r>
       <r>   -21.1509     0.0000     1.0000 </r>
       <r>   -21.0250     0.0000     1.0000 </r>
       <r>   -20.8991     0.0000     1.0000 </r>
       <r>   -20.7731     0.0000     1.0000 </r>
       <r>   -20.6472     6.4540     1.8128 </r>
       <r>   -20.5213     0.0000     2.0000 </r>
       <r>   -20.3953     0.0000     2.0000 </r>
       <r>   -20.2694     0.0000     2.0000 </r>
       <r>   -20.1435     0.0000     2.0000 </r>
       <r>   -20.0175     0.0000     2.0000 </r>
       <r>   -19.8916     0.0000     2.0000 </r>
       <r>   -19.7657     0.0000     2.0000 </r>
       <r>   -19.6397     0.0000     2.0000 </r>
       <r>   -19.5138     0.0000     2.0000 </r>
       <r>   -19.3879     0.0000     2.0000 </r>
       <r>   -19.2619     0.0000     2.0000 </r>
       <r>   -19.1360     0.0000     2.0000 </r>
       <r>   -19.0101     0.0000     2.0000 </r>
       <r>   -18.8841     0.0000     2.0000 </r>
       <r>   -18.7582     0.0000     2.0000 </r>
       <r>   -18.6323     0.0000     2.0000 </r>
       <r>   -18.5063     0.0000     2.0000 </r>
       <r>   -18.3804     0.0000     2.0000 </r>
       <r>   -18.2545     0.0000     2.0000 </r>
       <r>   -18.1285     0.0000     2.0000 </r>
       <r>   -18.0026     0.0000     2.0000 </r>
       <r>   -17.8767     0.0000     2.0000 </r>
       <r>   -17.7507     0.0000     2.0000 </r>
       <r>   -17.6248     0.0000     2.0000 </r>
       <r>   -17.4989     0.0000     2.0000 </r>
       <r>   -17.3729     0.0000     2.0000 </r>
       <r>   -17.2470     0.0000     2.0000 </r>
       <r>   -17.1211     0.0000     2.0000 </r>
       <r>   -16.9951     0.0000     2.0000 </r>
       <r>   -16.8692     0.0000     2.0000 </r>
       <r>   -16.7433     0.0000     2.0000 </r>
       <r>   -16.6173     0.0000     2.0000 </r>
       <r>   -16.4914     0.0000     2.0000 </r>
       <r>   -16.3655     0.0000     2.0000 </r>
       <r>   -16.2395     0.0000     2.0000 </r>
       <r>   -16.1136     0.0000     2.0000 </r>
       <r>   -15.9877     0.0000     2.0000 </r>
       <r>   -15.8617     0.0000     2.0000 </r>
       <r>   -15.7358     0.0000     2.0000 </r>
       <r>   -15.6099     0.0000     2.0000 </r>
       <r>   -15.4839     0.0000     2.0000 </r>
       <r>   -15.3580     0.0000     2.0000 </r>
       <r>   -15.2321     0.0000     2.0000 </r>
       <r>   -15.1061     0.0000     2.0000 </r>
       <r>   -14.9802     0.0000     2.0000 </r>
       <r>   -14.8543     0.0000     2.0000 </r>
       <r>   -14.7283     0.0000     2.0000 </r>
       <r>   -14.6024     0.0000     2.0000 </r>
       <r>   -14.4765     0.0000     2.0000 </r>
       <r>   -14.3505     0.0000     2.0000 </r>
       <r>   -14.2246     0.0000     2.0000 </r>
       <r>   -14.0987     0.0000     2.0000 </r>
       <r>   -13.9727     0.0000     2.0000 </r>
       <r>   -13.8468     0.0000     2.0000 </r>
       <r>   -13.7209     0.0000     2.0000 </r>
       <r>   -13.5949     0.0000     2.0000 </r>
       <r>   -13.4690     0.0000     2.0000 </r>
       <r>   -13.3431     7.9407     3.0000 </r>
       <r>   -13.2171    15.8814     5.0000 </r>
       <r>   -13.0912     0.0000     5.0000 </r>
       <r>   -12.9653     0.0000     5.0000 </r>
       <r>   -12.8393     0.0000     5.0000 </r>
       <r>   -12.7134     0.0000     5.0000 </r>
       <r>   -12.5875     0.0000     5.0000 </r>
       <r>   -12.4615     0.0000     5.0000 </r>
       <r>   -12.3356     0.0000     5.0000 </r>
       <r>   -12.2097     0.0000     5.0000 </r>
       <r>   -12.0837     0.0000     5.0000 </r>
       <r>   -11.9578     0.0000     5.0000 </r>
       <r>   -11.8319     0.0000     5.0000 </r>
       <r>   -11.7059     0.0000     5.0000 </r>
       <r>   -11.5800     0.0000     5.0000 </r>
       <r>   -11.4541     0.0000     5.0000 </r>
       <r>   -11.3281     0.0000     5.0000 </r>
       <r>   -11.2022     0.0000     5.0000 </r>
       <r>   -11.0763     0.0000     5.0000 </r>
       <r>   -10.9503     0.0000     5.0000 </r>
       <r>   -10.8244     0.0000     5.0000 </r>
       <r>   -10.6985     0.0000     5.0000 </r>
       <r>   -10.5725     0.0000     5.0000 </r>
       <r>   -10.4466     0.0000     5.0000 </r>
       <r>   -10.3207     0.0000     5.0000 </r>
       <r>   -10.1947     0.0000     5.0000 </r>
       <r>   -10.0688     0.0000     5.0000 </r>
       <r>    -9.9429     0.0000     5.0000 </r>
       <r>    -9.8169     0.0000     5.0000 </r>
       <r>    -9.6910     0.0000     5.0000 </r>
       <r>    -9.5651     0.0000     5.0000 </r>
       <r>    -9.4391     0.0000     5.0000 </r>
       <r>    -9.3132     0.0000     5.0000 </r>
       <r>    -9.1873     0.0000     5.0000 </r>
       <r>    -9.0613     0.0000     5.0000 </r>
       <r>    -8.9354     0.0000     5.0000 </r>
       <r>    -8.8095     0.0000     5.0000 </r>
       <r>    -8.6835     0.0000     5.0000 </r>
       <r>    -8.5576     0.0000     5.0000 </r>
       <r>    -8.4317     0.0000     5.0000 </r>
       <r>    -8.3057     0.0000     5.0000 </r>
       <r>    -8.1798     0.0000     5.0000 </r>
       <r>    -8.0539     0.0000     5.0000 </r>
       <r>    -7.9279     0.0000     5.0000 </r>
       <r>    -7.8020     0.0000     5.0000 </r>
       <r>    -7.6761     0.0000     5.0000 </r>
       <r>    -7.5501     0.0000     5.0000 </r>
       <r>    -7.4242     0.0000     5.0000 </r>
       <r>    -7.2983     0.0000     5.0000 </r>
       <r>    -7.1723     0.0000     5.0000 </r>
       <r>    -7.0464     0.0000     5.0000 </r>
       <r>    -6.9205    15.8812     7.0000 </r>
       <r>    -6.7945     0.0000     7.0000 </r>
       <r>    -6.6686     0.0000     7.0000 </r>
       <r>    -6.5427     0.0000     7.0000 </r>
       <r>    -6.4167     0.0000     7.0000 </r>
       <r>    -6.2908     0.0000     7.0000 </r>
       <r>    -6.1649     0.0000     7.0000 </r>
       <r>    -6.0389     0.0000     7.0000 </r>
       <r>    -5.9130     0.0000     7.0000 </r>
       <r>    -5.7871     0.0000     7.0000 </r>
       <r>    -5.6611     0.0000     7.0000 </r>
       <r>    -5.5352     0.0000     7.0000 </r>
       <r>    -5.4093     0.0000     7.0000 </r>
       <r>    -5.2833     0.0000     7.0000 </r>
       <r>    -5.1574     0.0000     7.0000 </r>
       <r>    -5.0315     0.0000     7.0000 </r>
       <r>    -4.9055     0.0000     7.0000 </r>
       <r>    -4.7796     0.0000     7.0000 </r>
       <r>    -4.6537     0.0000     7.0000 </r>
       <r>    -4.5277     0.0000     7.0000 </r>
       <r>    -4.4018     0.0000     7.0000 </r>
       <r>    -4.2759     0.0000     7.0000 </r>
       <r>    -4.1499     0.0000     7.0000 </r>
       <r>    -4.0240     0.0000     7.0000 </r>
       <r>    -3.8981     0.0000     7.0000 </r>
       <r>    -3.7721     0.0000     7.0000 </r>
       <r>    -3.6462     0.0000     7.0000 </r>
       <r>    -3.5203     0.0000     7.0000 </r>
       <r>    -3.3943     0.0000     7.0000 </r>
       <r>    -3.2684     0.0000     7.0000 </r>
       <r>    -3.1425     0.0000     7.0000 </r>
       <r>    -3.0165     0.0000     7.0000 </r>
       <r>    -2.8906     0.0000     7.0000 </r>
       <r>    -2.7647     0.0000     7.0000 </r>
       <r>    -2.6387     0.0000     7.0000 </r>
       <r>    -2.5128     0.0000     7.0000 </r>
       <r>    -2.3869     0.0000     7.0000 </r>
       <r>    -2.2609     0.0000     7.0000 </r>
       <r>    -2.1350     0.0000     7.0000 </r>
       <r>    -2.0091     0.0000     7.0000 </r>
       <r>    -1.8831     0.0000     7.0000 </r>
       <r>    -1.7572     0.0000     7.0000 </r>
       <r>    -1.6313     0.0000     7.0000 </r>
       <r>    -1.5053     0.0000     7.0000 </r>
       <r>    -1.3794     0.0000     7.0000 </r>
       <r>    -1.2535     0.0000     7.0000 </r>
       <r>    -1.1275     0.0000     7.0000 </r>
       <r>    -1.0016     0.0000     7.0000 </r>
       <r>    -0.8757     0.0000     7.0000 </r>
       <r>    -0.7497     0.0000     7.0000 </r>
       <r>    -0.6238     0.0000     7.0000 </r>
       <r>    -0.4979     0.0000     7.0000 </r>
       <r>    -0.3719     0.0000     7.0000 </r>
       <r>    -0.2460     7.9407     8.0000 </r>
       <r>    -0.1201     0.0000     8.0000 </r>
       <r>     0.0059     0.0000     8.0000 </r>
       <r>     0.1318     0.0000     8.0000 </r>
       <r>     0.2577     0.0000     8.0000 </r>
       <r>     0.3837     0.0000     8.0000 </r>
       <r>     0.5096     0.0781     8.0098 </r>
       <r>     0.6355     0.1454     9.0183 </r>
       <r>     0.7615     0.0087    10.0011 </r>
       <r>     0.8874     0.1145    12.0144 </r>
       <r>     1.0133     7.9399    13.9999 </r>
       <r>     1.1393     0.0000    14.0000 </r>
       <r>     1.2652     0.0000    14.0000 </r>
       <r>     1.3911     0.0000    14.0000 </r>
       <r>     1.5171     7.1392    14.8991 </r>
       <r>     1.6430     0.0000    15.0000 </r>
       <r>     1.7689     7.9407    16.0000 </r>
       <r>     1.8949     0.0000    16.0000 </r>
       <r>     2.0208     0.0000    16.0000 </r>
       <r>     2.1467     0.0000    16.0000 </r>
       <r>     2.2727     0.0000    16.0000 </r>
       <r>     2.3986     0.0000    16.0000 </r>
       <r>     2.5245     0.0000    16.0000 </r>
       <r>     2.6505     0.0000    16.0000 </r>
       <r>     2.7764     0.0000    16.0000 </r>
       <r>     2.9023     0.0000    16.0000 </r>
       <r>     3.0283     0.0000    16.0000 </r>
       <r>     3.1542     0.0000    16.0000 </r>
       <r>     3.2801     0.0000    16.0000 </r>
       <r>     3.4061     0.0000    16.0000 </r>
       <r>     3.5320     0.0000    16.0000 </r>
      </set>
      <set comment="spin 2">
       <r>   -34.2480     0.0000     0.0000 </r>
       <r>   -34.1221     0.0000     0.0000 </r>
       <r>   -33.9961     0.0000     0.0000 </r>
       <r>   -33.8702     0.0000     0.0000 </r>
       <r>   -33.7443     0.0000     0.0000 </r>
       <r>   -33.6183     0.0000     0.0000 </r>
       <r>   -33.4924     0.0000     0.0000 </r>
       <r>   -33.3665     0.0000     0.0000 </r>
       <r>   -33.2405     0.0000     0.0000 </r>
       <r>   -33.1146     0.0000     0.0000 </r>
       <r>   -32.9887     0.0000     0.0000 </r>
       <r>   -32.8627     0.0000     0.0000 </r>
       <r>   -32.7368     0.0000     0.0000 </r>
       <r>   -32.6109     0.0000     0.0000 </r>
       <r>   -32.4849     0.0000     0.0000 </r>
       <r>   -32.3590     0.0000     0.0000 </r>
       <r>   -32.2331     0.0000     0.0000 </r>
       <r>   -32.1071     0.0000     0.0000 </r>
       <r>   -31.9812     0.0000     0.0000 </r>
       <r>   -31.8553     0.0000     0.0000 </r>
       <r>   -31.7293     0.0000     0.0000 </r>
       <r>   -31.6034     0.0000     0.0000 </r>
       <r>   -31.4775     0.0000     0.0000 </r>
       <r>   -31.3515     0.0000     0.0000 </r>
       <r>   -31.2256     7.9407     1.0000 </r>
       <r>   -31.0997     0.0000     1.0000 </r>
       <r>   -30.9737     0.0000     1.0000 </r>
       <r>   -30.8478     0.0000     1.0000 </r>
       <r>   -30.7219     0.0000     1.0000 </r>
       <r>   -30.5959     0.0000     1.0000 </r>
       <r>   -30.4700     0.0000     1.0000 </r>
       <r>   -30.3441     0.0000     1.0000 </r>
       <r>   -30.2181     0.0000     1.0000 </r>
       <r>   -30.0922     0.0000     1.0000 </r>
       <r>   -29.9663     0.0000     1.0000 </r>
       <r>   -29.8403     0.0000     1.0000 </r>
       <r>   -29.7144     0.0000     1.0000 </r>
       <r>   -29.5885     0.0000     1.0000 </r>
       <r>   -29.4625     0.0000     1.0000 </r>
       <r>   -29.3366     0.0000     1.0000 </r>
       <r>   -29.2107     0.0000     1.0000 </r>
       <r>   -29.0847     0.0000     1.0000 </r>
       <r>   -28.9588     0.0000     1.0000 </r>
       <r>   -28.8329     0.0000     1.0000 </r>
       <r>   -28.7069     0.0000     1.0000 </r>
       <r>   -28.5810     0.0000     1.0000 </r>
       <r>   -28.4551     0.0000     1.0000 </r>
       <r>   -28.3291     0.0000     1.0000 </r>
       <r>   -28.2032     0.0000     1.0000 </r>
       <r>   -28.0773     0.0000     1.0000 </r>
       <r>   -27.9513     0.0000     1.0000 </r>
       <r>   -27.8254     0.0000     1.0000 </r>
       <r>   -27.6995     0.0000     1.0000 </r>
       <r>   -27.5735     0.0000     1.0000 </r>
       <r>   -27.4476     0.0000     1.0000 </r>
       <r>   -27.3217     0.0000     1.0000 </r>
       <r>   -27.1957     0.0000     1.0000 </r>
       <r>   -27.0698     0.0000     1.0000 </r>
       <r>   -26.9439     0.0000     1.0000 </r>
       <r>   -26.8179     0.0000     1.0000 </r>
       <r>   -26.6920     0.0000     1.0000 </r>
       <r>   -26.5661     0.0000     1.0000 </r>
       <r>   -26.4401     0.0000     1.0000 </r>
       <r>   -26.3142     0.0000     1.0000 </r>
       <r>   -26.1883     0.0000     1.0000 </r>
       <r>   -26.0623     0.0000     1.0000 </r>
       <r>   -25.9364     0.0000     1.0000 </r>
       <r>   -25.8105     0.0000     1.0000 </r>
       <r>   -25.6845     0.0000     1.0000 </r>
       <r>   -25.5586     0.0000     1.0000 </r>
       <r>   -25.4327     0.0000     1.0000 </r>
       <r>   -25.3067     0.0000     1.0000 </r>
       <r>   -25.1808     0.0000     1.0000 </r>
       <r>   -25.0549     0.0000     1.0000 </r>
       <r>   -24.9289     0.0000     1.0000 </r>
       <r>   -24.8030     0.0000     1.0000 </r>
       <r>   -24.6771     0.0000     1.0000 </r>
       <r>   -24.5511     0.0000     1.0000 </r>
       <r>   -24.4252     0.0000     1.0000 </r>
       <r>   -24.2993     0.0000     1.0000 </r>
       <r>   -24.1733     0.0000     1.0000 </r>
       <r>   -24.0474     0.0000     1.0000 </r>
       <r>   -23.9215     0.0000     1.0000 </r>
       <r>   -23.7955     0.0000     1.0000 </r>
       <r>   -23.6696     0.0000     1.0000 </r>
       <r>   -23.5437     0.0000     1.0000 </r>
       <r>   -23.4177     0.0000     1.0000 </r>
       <r>   -23.2918     0.0000     1.0000 </r>
       <r>   -23.1659     0.0000     1.0000 </r>
       <r>   -23.0399     0.0000     1.0000 </r>
       <r>   -22.9140     0.0000     1.0000 </r>
       <r>   -22.7881     0.0000     1.0000 </r>
       <r>   -22.6621     0.0000     1.0000 </r>
       <r>   -22.5362     0.0000     1.0000 </r>
       <r>   -22.4103     0.0000     1.0000 </r>
       <r>   -22.2843     0.0000     1.0000 </r>
       <r>   -22.1584     0.0000     1.0000 </r>
       <r>   -22.0325     0.0000     1.0000 </r>
       <r>   -21.9065     0.0000     1.0000 </r>
       <r>   -21.7806     0.0000     1.0000 </r>
       <r>   -21.6547     0.0000     1.0000 </r>
       <r>   -21.5287     0.0000     1.0000 </r>
       <r>   -21.4028     0.0000     1.0000 </r>
       <r>   -21.2769     0.0000     1.0000 </r>
       <r>   -21.1509     0.0000     1.0000 </r>
       <r>   -21.0250     0.0000     1.0000 </r>
       <r>   -20.8991     0.0000     1.0000 </r>
       <r>   -20.7731     0.0000     1.0000 </r>
       <r>   -20.6472     0.0000     1.0000 </r>
       <r>   -20.5213     0.0000     1.0000 </r>
       <r>   -20.3953     0.0000     1.0000 </r>
       <r>   -20.2694     0.0000     1.0000 </r>
       <r>   -20.1435     0.0000     1.0000 </r>
       <r>   -20.0175     0.0000     1.0000 </r>
       <r>   -19.8916     0.0000     1.0000 </r>
       <r>   -19.7657     0.0000     1.0000 </r>
       <r>   -19.6397     0.0000     1.0000 </r>
       <r>   -19.5138     0.0000     1.0000 </r>
       <r>   -19.3879     0.0000     1.0000 </r>
       <r>   -19.2619     0.0000     1.0000 </r>
       <r>   -19.1360     0.0000     1.0000 </r>
       <r>   -19.0101     0.0000     1.0000 </r>
       <r>   -18.8841     0.0007     1.0001 </r>
       <r>   -18.7582     0.0000     2.0000 </r>
       <r>   -18.6323     0.0000     2.0000 </r>
       <r>   -18.5063     0.0000     2.0000 </r>
       <r>   -18.3804     0.0000     2.0000 </r>
       <r>   -18.2545     0.0000     2.0000 </r>
       <r>   -18.1285     0.0000     2.0000 </r>
       <r>   -18.0026     0.0000     2.0000 </r>
       <r>   -17.8767     0.0000     2.0000 </r>
       <r>   -17.7507     0.0000     2.0000 </r>
       <r>   -17.6248     0.0000     2.0000 </r>
       <r>   -17.4989     0.0000     2.0000 </r>
       <r>   -17.3729     0.0000     2.0000 </r>
       <r>   -17.2470     0.0000     2.0000 </r>
       <r>   -17.1211     0.0000     2.0000 </r>
       <r>   -16.9951     0.0000     2.0000 </r>
       <r>   -16.8692     0.0000     2.0000 </r>
       <r>   -16.7433     0.0000     2.0000 </r>
       <r>   -16.6173     0.0000     2.0000 </r>
       <r>   -16.4914     0.0000     2.0000 </r>
       <r>   -16.3655     0.0000     2.0000 </r>
       <r>   -16.2395     0.0000     2.0000 </r>
       <r>   -16.1136     0.0000     2.0000 </r>
       <r>   -15.9877     0.0000     2.0000 </r>
       <r>   -15.8617     0.0000     2.0000 </r>
       <r>   -15.7358     0.0000     2.0000 </r>
       <r>   -15.6099     0.0000     2.0000 </r>
       <r>   -15.4839     0.0000     2.0000 </r>
       <r>   -15.3580     0.0000     2.0000 </r>
       <r>   -15.2321     0.0000     2.0000 </r>
       <r>   -15.1061     0.0000     2.0000 </r>
       <r>   -14.9802     0.0000     2.0000 </r>
       <r>   -14.8543     0.0000     2.0000 </r>
       <r>   -14.7283     0.0000     2.0000 </r>
       <r>   -14.6024     0.0000     2.0000 </r>
       <r>   -14.4765     0.0000     2.0000 </r>
       <r>   -14.3505     0.0000     2.0000 </r>
       <r>   -14.2246     0.0000     2.0000 </r>
       <r>   -14.0987     0.0000     2.0000 </r>
       <r>   -13.9727     0.0000     2.0000 </r>
       <r>   -13.8468     0.0000     2.0000 </r>
       <r>   -13.7209     0.0000     2.0000 </r>
       <r>   -13.5949     0.0000     2.0000 </r>
       <r>   -13.4690     0.0000     2.0000 </r>
       <r>   -13.3431     0.0000     2.0000 </r>
       <r>   -13.2171     0.0000     2.0000 </r>
       <r>   -13.0912     0.0000     2.0000 </r>
       <r>   -12.9653     0.0000     2.0000 </r>
       <r>   -12.8393     0.0000     2.0000 </r>
       <r>   -12.7134     0.0000     2.0000 </r>
       <r>   -12.5875     0.0000     2.0000 </r>
       <r>   -12.4615     7.9407     3.0000 </r>
       <r>   -12.3356     0.0000     3.0000 </r>
       <r>   -12.2097     0.0000     3.0000 </r>
       <r>   -12.0837     0.0000     3.0000 </r>
       <r>   -11.9578     0.0000     3.0000 </r>
       <r>   -11.8319     0.0000     3.0000 </r>
       <r>   -11.7059     0.0000     3.0000 </r>
       <r>   -11.5800     0.0000     3.0000 </r>
       <r>   -11.4541     0.0018     3.0002 </r>
       <r>   -11.3281     0.0000     5.0000 </r>
       <r>   -11.2022     0.0000     5.0000 </r>
       <r>   -11.0763     0.0000     5.0000 </r>
       <r>   -10.9503     0.0000     5.0000 </r>
       <r>   -10.8244     0.0000     5.0000 </r>
       <r>   -10.6985     0.0000     5.0000 </r>
       <r>   -10.5725     0.0000     5.0000 </r>
       <r>   -10.4466     0.0000     5.0000 </r>
       <r>   -10.3207     0.0000     5.0000 </r>
       <r>   -10.1947     0.0000     5.0000 </r>
       <r>   -10.0688     0.0000     5.0000 </r>
       <r>    -9.9429     0.0000     5.0000 </r>
       <r>    -9.8169     0.0000     5.0000 </r>
       <r>    -9.6910     0.0000     5.0000 </r>
       <r>    -9.5651     0.0000     5.0000 </r>
       <r>    -9.4391     0.0000     5.0000 </r>
       <r>    -9.3132     0.0000     5.0000 </r>
       <r>    -9.1873     0.0000     5.0000 </r>
       <r>    -9.0613     0.0000     5.0000 </r>
       <r>    -8.9354     0.0000     5.0000 </r>
       <r>    -8.8095     0.0000     5.0000 </r>
       <r>    -8.6835     0.0000     5.0000 </r>
       <r>    -8.5576     0.0000     5.0000 </r>
       <r>    -8.4317     0.0000     5.0000 </r>
       <r>    -8.3057     0.0000     5.0000 </r>
       <r>    -8.1798     0.0000     5.0000 </r>
       <r>    -8.0539     0.0000     5.0000 </r>
       <r>    -7.9279     0.0000     5.0000 </r>
       <r>    -7.8020     0.0000     5.0000 </r>
       <r>    -7.6761     0.0000     5.0000 </r>
       <r>    -7.5501     0.0000     5.0000 </r>
       <r>    -7.4242     0.0000     5.0000 </r>
       <r>    -7.2983     0.0000     5.0000 </r>
       <r>    -7.1723     0.0000     5.0000 </r>
       <r>    -7.0464     0.0000     5.0000 </r>
       <r>    -6.9205     0.0000     5.0000 </r>
       <r>    -6.7945     0.0000     5.0000 </r>
       <r>    -6.6686     0.0000     5.0000 </r>
       <r>    -6.5427     0.0000     5.0000 </r>
       <r>    -6.4167     0.0000     5.0000 </r>
       <r>    -6.2908     0.0000     5.0000 </r>
       <r>    -6.1649     0.0000     5.0000 </r>
       <r>    -6.0389     0.0000     5.0000 </r>
       <r>    -5.9130     0.0000     5.0000 </r>
       <r>    -5.7871     0.0000     5.0000 </r>
       <r>    -5.6611     0.0000     5.0000 </r>
       <r>    -5.5352     0.0000     5.0000 </r>
       <r>    -5.4093     0.0000     5.0000 </r>
       <r>    -5.2833     0.0000     5.0000 </r>
       <r>    -5.1574     0.0000     5.0000 </r>
       <r>    -5.0315     0.0000     5.0000 </r>
       <r>    -4.9055     0.0000     5.0000 </r>
       <r>    -4.7796     0.0000     5.0000 </r>
       <r>    -4.6537    15.8726     6.9989 </r>
       <r>    -4.5277     0.0000     7.0000 </r>
       <r>    -4.4018     0.0000     7.0000 </r>
       <r>    -4.2759     0.0000     7.0000 </r>
       <r>    -4.1499     0.0000     7.0000 </r>
       <r>    -4.0240     0.0000     7.0000 </r>
       <r>    -3.8981     0.0000     7.0000 </r>
       <r>    -3.7721     0.0000     7.0000 </r>
       <r>    -3.6462     0.0000     7.0000 </r>
       <r>    -3.5203     0.0000     7.0000 </r>
       <r>    -3.3943     0.0000     7.0000 </r>
       <r>    -3.2684     0.0000     7.0000 </r>
       <r>    -3.1425     0.0000     7.0000 </r>
       <r>    -3.0165     0.0000     7.0000 </r>
       <r>    -2.8906     0.0000     7.0000 </r>
       <r>    -2.7647     0.0000     7.0000 </r>
       <r>    -2.6387     0.0000     7.0000 </r>
       <r>    -2.5128     0.0000     7.0000 </r>
       <r>    -2.3869     0.0000     7.0000 </r>
       <r>    -2.2609     0.0000     7.0000 </r>
       <r>    -2.1350     0.0000     7.0000 </r>
       <r>    -2.0091     0.0000     7.0000 </r>
       <r>    -1.8831     0.0000     7.0000 </r>
       <r>    -1.7572     0.0000     7.0000 </r>
       <r>    -1.6313     0.0000     7.0000 </r>
       <r>    -1.5053     0.0000     7.0000 </r>
       <r>    -1.3794     0.0000     7.0000 </r>
       <r>    -1.2535     0.0000     7.0000 </r>
       <r>    -1.1275     0.0000     7.0000 </r>
       <r>    -1.0016     0.0000     7.0000 </r>
       <r>    -0.8757     0.0000     7.0000 </r>
       <r>    -0.7497     0.0000     7.0000 </r>
       <r>    -0.6238     0.0000     7.0000 </r>
       <r>    -0.4979     0.0000     7.0000 </r>
       <r>    -0.3719     0.0000     7.0000 </r>
       <r>    -0.2460     0.0000     7.0000 </r>
       <r>    -0.1201     7.9407     8.0000 </r>
       <r>     0.0059     0.0000     8.0000 </r>
       <r>     0.1318     0.0000     8.0000 </r>
       <r>     0.2577     0.0000     8.0000 </r>
       <r>     0.3837     0.0000     8.0000 </r>
       <r>     0.5096     0.0000     8.0000 </r>
       <r>     0.6355     0.0000     8.0000 </r>
       <r>     0.7615    15.2493     9.9204 </r>
       <r>     0.8874    15.7983    11.9895 </r>
       <r>     1.0133     0.0333    13.0042 </r>
       <r>     1.1393     0.0000    14.0000 </r>
       <r>     1.2652     0.0000    14.0000 </r>
       <r>     1.3911     0.0000    14.0000 </r>
       <r>     1.5171     0.0000    14.0000 </r>
       <r>     1.6430     0.6773    14.0853 </r>
       <r>     1.7689     0.0000    15.0000 </r>
       <r>     1.8949     0.0000    16.0000 </r>
       <r>     2.0208     0.0000    16.0000 </r>
       <r>     2.1467     0.0000    16.0000 </r>
       <r>     2.2727     0.0000    16.0000 </r>
       <r>     2.3986     0.0000    16.0000 </r>
       <r>     2.5245     0.0000    16.0000 </r>
       <r>     2.6505     0.0000    16.0000 </r>
       <r>     2.7764     0.0000    16.0000 </r>
       <r>     2.9023     0.0000    16.0000 </r>
       <r>     3.0283     0.0000    16.0000 </r>
       <r>     3.1542     0.0000    16.0000 </r>
       <r>     3.2801     0.0000    16.0000 </r>
       <r>     3.4061     0.0000    16.0000 </r>
       <r>     3.5320     0.0000    16.0000 </r>
      </set>
     </set>
    </array>
   </total>
   <partial>
    <array>
     <dimension dim="1">gridpoints</dimension>
     <dimension dim="2">spin</dimension>
     <dimension dim="3">ion</dimension>
     <field>energy</field>
     <field>  s</field>
     <field> py</field>
     <field> pz</field>
     <field> px</field>
     <field>dxy</field>
     <field>dyz</field>
     <field>dz2</field>
     <field>dxz</field>
     <field>dx2</field>
     <set>
      <set comment="ion 1">
       <set comment="spin 1">
        <r>   -34.2480     0.0000     0.0000     0.0000     0.0000     0.0000     0.0000     0.0000     0.0000     0.0000 </r>
        <r>   -34.1221     0.0000     0.0000     0.0000     0.0000     0.0000     0.0000     0.0000     0.0000     0.0000 </r>
        <r>   -33.9961     0.0000     0.0000     0.0000     0.0000     0.0000     0.0000     0.0000     0.0000     0.0000 </r>
        <r>   -33.8702     0.0000     0.0000     0.0000     0.0000     0.0000     0.0000     0.0000     0.0000     0.0000 </r>
        <r>   -33.7443     0.0000     0.0000     0.0000     0.0000     0.0000     0.0000     0.0000     0.0000     0.0000 </r>
        <r>   -33.6183     0.0000     0.0000     0.0000     0.0000     0.0000     0.0000     0.0000     0.0000     0.0000 </r>
        <r>   -33.4924     0.0000     0.0000     0.0000     0.0000     0.0000     0.0000     0.0000     0.0000     0.0000 </r>
        <r>   -33.3665     0.0000     0.0000     0.0000     0.0000     0.0000     0.0000     0.0000     0.0000     0.0000 </r>
        <r>   -33.2405     0.0000     0.0000     0.0000     0.0000     0.0000     0.0000     0.0000     0.0000     0.0000 </r>
        <r>   -33.1146     0.0000     0.0000     0.0000     0.0000     0.0000     0.0000     0.0000     0.0000     0.0000 </r>
        <r>   -32.9887     0.0000     0.0000     0.0000     0.0000     0.0000     0.0000     0.0000     0.0000     0.0000 </r>
        <r>   -32.8627     0.0000     0.0000     0.0000     0.0000     0.0000     0.0000     0.0000     0.0000     0.0000 </r>
        <r>   -32.7368     0.0000     0.0000     0.0000     0.0000     0.0000     0.0000     0.0000     0.0000     0.0000 </r>
        <r>   -32.6109     0.0000     0.0000     0.0000     0.0000     0.0000     0.0000     0.0000     0.0000     0.0000 </r>
        <r>   -32.4849     3.2186     0.0000     0.0000     0.7571     0.0000     0.0000     0.0000     0.0000     0.0000 </r>
        <r>   -32.3590     0.0000     0.0000     0.0000     0.0000     0.0000     0.0000     0.0000     0.0000     0.0000 </r>
        <r>   -32.2331     0.0000     0.0000     0.0000     0.0000     0.0000     0.0000     0.0000     0.0000     0.0000 </r>
        <r>   -32.1071     0.0000     0.0000     0.0000     0.0000     0.0000     0.0000     0.0000     0.0000     0.0000 </r>
        <r>   -31.9812     0.0000     0.0000     0.0000     0.0000     0.0000     0.0000     0.0000     0.0000     0.0000 </r>
        <r>   -31.8553     0.0000     0.0000     0.0000     0.0000     0.0000     0.0000     0.0000     0.0000     0.0000 </r>
        <r>   -31.7293     0.0000     0.0000     0.0000     0.0000     0.0000     0.0000     0.0000     0.0000     0.0000 </r>
        <r>   -31.6034     0.0000     0.0000     0.0000     0.0000     0.0000     0.0000     0.0000     0.0000     0.0000 </r>
        <r>   -31.4775     0.0000     0.0000     0.0000     0.0000     0.0000     0.0000     0.0000     0.0000     0.0000 </r>
        <r>   -31.3515     0.0000     0.0000     0.0000     0.0000     0.0000     0.0000     0.0000     0.0000     0.0000 </r>
        <r>   -31.2256     0.0000     0.0000     0.0000     0.0000     0.0000     0.0000     0.0000     0.0000     0.0000 </r>
        <r>   -31.0997     0.0000     0.0000     0.0000     0.0000     0.0000     0.0000     0.0000     0.0000     0.0000 </r>
        <r>   -30.9737     0.0000     0.0000     0.0000     0.0000     0.0000     0.0000     0.0000     0.0000     0.0000 </r>
        <r>   -30.8478     0.0000     0.0000     0.0000     0.0000     0.0000     0.0000     0.0000     0.0000     0.0000 </r>
        <r>   -30.7219     0.0000     0.0000     0.0000     0.0000     0.0000     0.0000     0.0000     0.0000     0.0000 </r>
        <r>   -30.5959     0.0000     0.0000     0.0000     0.0000     0.0000     0.0000     0.0000     0.0000     0.0000 </r>
        <r>   -30.4700     0.0000     0.0000     0.0000     0.0000     0.0000     0.0000     0.0000     0.0000     0.0000 </r>
        <r>   -30.3441     0.0000     0.0000     0.0000     0.0000     0.0000     0.0000     0.0000     0.0000     0.0000 </r>
        <r>   -30.2181     0.0000     0.0000     0.0000     0.0000     0.0000     0.0000     0.0000     0.0000     0.0000 </r>
        <r>   -30.0922     0.0000     0.0000     0.0000     0.0000     0.0000     0.0000     0.0000     0.0000     0.0000 </r>
        <r>   -29.9663     0.0000     0.0000     0.0000     0.0000     0.0000     0.0000     0.0000     0.0000     0.0000 </r>
        <r>   -29.8403     0.0000     0.0000     0.0000     0.0000     0.0000     0.0000     0.0000     0.0000     0.0000 </r>
        <r>   -29.7144     0.0000     0.0000     0.0000     0.0000     0.0000     0.0000     0.0000     0.0000     0.0000 </r>
        <r>   -29.5885     0.0000     0.0000     0.0000     0.0000     0.0000     0.0000     0.0000     0.0000     0.0000 </r>
        <r>   -29.4625     0.0000     0.0000     0.0000     0.0000     0.0000     0.0000     0.0000     0.0000     0.0000 </r>
        <r>   -29.3366     0.0000     0.0000     0.0000     0.0000     0.0000     0.0000     0.0000     0.0000     0.0000 </r>
        <r>   -29.2107     0.0000     0.0000     0.0000     0.0000     0.0000     0.0000     0.0000     0.0000     0.0000 </r>
        <r>   -29.0847     0.0000     0.0000     0.0000     0.0000     0.0000     0.0000     0.0000     0.0000     0.0000 </r>
        <r>   -28.9588     0.0000     0.0000     0.0000     0.0000     0.0000     0.0000     0.0000     0.0000     0.0000 </r>
        <r>   -28.8329     0.0000     0.0000     0.0000     0.0000     0.0000     0.0000     0.0000     0.0000     0.0000 </r>
        <r>   -28.7069     0.0000     0.0000     0.0000     0.0000     0.0000     0.0000     0.0000     0.0000     0.0000 </r>
        <r>   -28.5810     0.0000     0.0000     0.0000     0.0000     0.0000     0.0000     0.0000     0.0000     0.0000 </r>
        <r>   -28.4551     0.0000     0.0000     0.0000     0.0000     0.0000     0.0000     0.0000     0.0000     0.0000 </r>
        <r>   -28.3291     0.0000     0.0000     0.0000     0.0000     0.0000     0.0000     0.0000     0.0000     0.0000 </r>
        <r>   -28.2032     0.0000     0.0000     0.0000     0.0000     0.0000     0.0000     0.0000     0.0000     0.0000 </r>
        <r>   -28.0773     0.0000     0.0000     0.0000     0.0000     0.0000     0.0000     0.0000     0.0000     0.0000 </r>
        <r>   -27.9513     0.0000     0.0000     0.0000     0.0000     0.0000     0.0000     0.0000     0.0000     0.0000 </r>
        <r>   -27.8254     0.0000     0.0000     0.0000     0.0000     0.0000     0.0000     0.0000     0.0000     0.0000 </r>
        <r>   -27.6995     0.0000     0.0000     0.0000     0.0000     0.0000     0.0000     0.0000     0.0000     0.0000 </r>
        <r>   -27.5735     0.0000     0.0000     0.0000     0.0000     0.0000     0.0000     0.0000     0.0000     0.0000 </r>
        <r>   -27.4476     0.0000     0.0000     0.0000     0.0000     0.0000     0.0000     0.0000     0.0000     0.0000 </r>
        <r>   -27.3217     0.0000     0.0000     0.0000     0.0000     0.0000     0.0000     0.0000     0.0000     0.0000 </r>
        <r>   -27.1957     0.0000     0.0000     0.0000     0.0000     0.0000     0.0000     0.0000     0.0000     0.0000 </r>
        <r>   -27.0698     0.0000     0.0000     0.0000     0.0000     0.0000     0.0000     0.0000     0.0000     0.0000 </r>
        <r>   -26.9439     0.0000     0.0000     0.0000     0.0000     0.0000     0.0000     0.0000     0.0000     0.0000 </r>
        <r>   -26.8179     0.0000     0.0000     0.0000     0.0000     0.0000     0.0000     0.0000     0.0000     0.0000 </r>
        <r>   -26.6920     0.0000     0.0000     0.0000     0.0000     0.0000     0.0000     0.0000     0.0000     0.0000 </r>
        <r>   -26.5661     0.0000     0.0000     0.0000     0.0000     0.0000     0.0000     0.0000     0.0000     0.0000 </r>
        <r>   -26.4401     0.0000     0.0000     0.0000     0.0000     0.0000     0.0000     0.0000     0.0000     0.0000 </r>
        <r>   -26.3142     0.0000     0.0000     0.0000     0.0000     0.0000     0.0000     0.0000     0.0000     0.0000 </r>
        <r>   -26.1883     0.0000     0.0000     0.0000     0.0000     0.0000     0.0000     0.0000     0.0000     0.0000 </r>
        <r>   -26.0623     0.0000     0.0000     0.0000     0.0000     0.0000     0.0000     0.0000     0.0000     0.0000 </r>
        <r>   -25.9364     0.0000     0.0000     0.0000     0.0000     0.0000     0.0000     0.0000     0.0000     0.0000 </r>
        <r>   -25.8105     0.0000     0.0000     0.0000     0.0000     0.0000     0.0000     0.0000     0.0000     0.0000 </r>
        <r>   -25.6845     0.0000     0.0000     0.0000     0.0000     0.0000     0.0000     0.0000     0.0000     0.0000 </r>
        <r>   -25.5586     0.0000     0.0000     0.0000     0.0000     0.0000     0.0000     0.0000     0.0000     0.0000 </r>
        <r>   -25.4327     0.0000     0.0000     0.0000     0.0000     0.0000     0.0000     0.0000     0.0000     0.0000 </r>
        <r>   -25.3067     0.0000     0.0000     0.0000     0.0000     0.0000     0.0000     0.0000     0.0000     0.0000 </r>
        <r>   -25.1808     0.0000     0.0000     0.0000     0.0000     0.0000     0.0000     0.0000     0.0000     0.0000 </r>
        <r>   -25.0549     0.0000     0.0000     0.0000     0.0000     0.0000     0.0000     0.0000     0.0000     0.0000 </r>
        <r>   -24.9289     0.0000     0.0000     0.0000     0.0000     0.0000     0.0000     0.0000     0.0000     0.0000 </r>
        <r>   -24.8030     0.0000     0.0000     0.0000     0.0000     0.0000     0.0000     0.0000     0.0000     0.0000 </r>
        <r>   -24.6771     0.0000     0.0000     0.0000     0.0000     0.0000     0.0000     0.0000     0.0000     0.0000 </r>
        <r>   -24.5511     0.0000     0.0000     0.0000     0.0000     0.0000     0.0000     0.0000     0.0000     0.0000 </r>
        <r>   -24.4252     0.0000     0.0000     0.0000     0.0000     0.0000     0.0000     0.0000     0.0000     0.0000 </r>
        <r>   -24.2993     0.0000     0.0000     0.0000     0.0000     0.0000     0.0000     0.0000     0.0000     0.0000 </r>
        <r>   -24.1733     0.0000     0.0000     0.0000     0.0000     0.0000     0.0000     0.0000     0.0000     0.0000 </r>
        <r>   -24.0474     0.0000     0.0000     0.0000     0.0000     0.0000     0.0000     0.0000     0.0000     0.0000 </r>
        <r>   -23.9215     0.0000     0.0000     0.0000     0.0000     0.0000     0.0000     0.0000     0.0000     0.0000 </r>
        <r>   -23.7955     0.0000     0.0000     0.0000     0.0000     0.0000     0.0000     0.0000     0.0000     0.0000 </r>
        <r>   -23.6696     0.0000     0.0000     0.0000     0.0000     0.0000     0.0000     0.0000     0.0000     0.0000 </r>
        <r>   -23.5437     0.0000     0.0000     0.0000     0.0000     0.0000     0.0000     0.0000     0.0000     0.0000 </r>
        <r>   -23.4177     0.0000     0.0000     0.0000     0.0000     0.0000     0.0000     0.0000     0.0000     0.0000 </r>
[...]
        <r>    -6.0389     0.0000     0.0000     0.0000     0.0000     0.0000     0.0000     0.0000     0.0000     0.0000 </r>
        <r>    -5.9130     0.0000     0.0000     0.0000     0.0000     0.0000     0.0000     0.0000     0.0000     0.0000 </r>
        <r>    -5.7871     0.0000     0.0000     0.0000     0.0000     0.0000     0.0000     0.0000     0.0000     0.0000 </r>
        <r>    -5.6611     0.0000     0.0000     0.0000     0.0000     0.0000     0.0000     0.0000     0.0000     0.0000 </r>
        <r>    -5.5352     0.0000     0.0000     0.0000     0.0000     0.0000     0.0000     0.0000     0.0000     0.0000 </r>
        <r>    -5.4093     0.0000     0.0000     0.0000     0.0000     0.0000     0.0000     0.0000     0.0000     0.0000 </r>
        <r>    -5.2833     0.0000     0.0000     0.0000     0.0000     0.0000     0.0000     0.0000     0.0000     0.0000 </r>
        <r>    -5.1574     0.0000     0.0000     0.0000     0.0000     0.0000     0.0000     0.0000     0.0000     0.0000 </r>
        <r>    -5.0315     0.0000     0.0000     0.0000     0.0000     0.0000     0.0000     0.0000     0.0000     0.0000 </r>
        <r>    -4.9055     0.0000     0.0000     0.0000     0.0000     0.0000     0.0000     0.0000     0.0000     0.0000 </r>
        <r>    -4.7796     0.0000     0.0000     0.0000     0.0000     0.0000     0.0000     0.0000     0.0000     0.0000 </r>
        <r>    -4.6537     0.0000     2.9718     2.9718     0.0000     0.0000     0.0000     0.0000     0.0000     0.0000 </r>
        <r>    -4.5277     0.0000     0.0000     0.0000     0.0000     0.0000     0.0000     0.0000     0.0000     0.0000 </r>
        <r>    -4.4018     0.0000     0.0000     0.0000     0.0000     0.0000     0.0000     0.0000     0.0000     0.0000 </r>
        <r>    -4.2759     0.0000     0.0000     0.0000     0.0000     0.0000     0.0000     0.0000     0.0000     0.0000 </r>
        <r>    -4.1499     0.0000     0.0000     0.0000     0.0000     0.0000     0.0000     0.0000     0.0000     0.0000 </r>
        <r>    -4.0240     0.0000     0.0000     0.0000     0.0000     0.0000     0.0000     0.0000     0.0000     0.0000 </r>
        <r>    -3.8981     0.0000     0.0000     0.0000     0.0000     0.0000     0.0000     0.0000     0.0000     0.0000 </r>
        <r>    -3.7721     0.0000     0.0000     0.0000     0.0000     0.0000     0.0000     0.0000     0.0000     0.0000 </r>
        <r>    -3.6462     0.0000     0.0000     0.0000     0.0000     0.0000     0.0000     0.0000     0.0000     0.0000 </r>
        <r>    -3.5203     0.0000     0.0000     0.0000     0.0000     0.0000     0.0000     0.0000     0.0000     0.0000 </r>
        <r>    -3.3943     0.0000     0.0000     0.0000     0.0000     0.0000     0.0000     0.0000     0.0000     0.0000 </r>
        <r>    -3.2684     0.0000     0.0000     0.0000     0.0000     0.0000     0.0000     0.0000     0.0000     0.0000 </r>
        <r>    -3.1425     0.0000     0.0000     0.0000     0.0000     0.0000     0.0000     0.0000     0.0000     0.0000 </r>
        <r>    -3.0165     0.0000     0.0000     0.0000     0.0000     0.0000     0.0000     0.0000     0.0000     0.0000 </r>
        <r>    -2.8906     0.0000     0.0000     0.0000     0.0000     0.0000     0.0000     0.0000     0.0000     0.0000 </r>
        <r>    -2.7647     0.0000     0.0000     0.0000     0.0000     0.0000     0.0000     0.0000     0.0000     0.0000 </r>
        <r>    -2.6387     0.0000     0.0000     0.0000     0.0000     0.0000     0.0000     0.0000     0.0000     0.0000 </r>
        <r>    -2.5128     0.0000     0.0000     0.0000     0.0000     0.0000     0.0000     0.0000     0.0000     0.0000 </r>
        <r>    -2.3869     0.0000     0.0000     0.0000     0.0000     0.0000     0.0000     0.0000     0.0000     0.0000 </r>
        <r>    -2.2609     0.0000     0.0000     0.0000     0.0000     0.0000     0.0000     0.0000     0.0000     0.0000 </r>
        <r>    -2.1350     0.0000     0.0000     0.0000     0.0000     0.0000     0.0000     0.0000     0.0000     0.0000 </r>
        <r>    -2.0091     0.0000     0.0000     0.0000     0.0000     0.0000     0.0000     0.0000     0.0000     0.0000 </r>
        <r>    -1.8831     0.0000     0.0000     0.0000     0.0000     0.0000     0.0000     0.0000     0.0000     0.0000 </r>
        <r>    -1.7572     0.0000     0.0000     0.0000     0.0000     0.0000     0.0000     0.0000     0.0000     0.0000 </r>
        <r>    -1.6313     0.0000     0.0000     0.0000     0.0000     0.0000     0.0000     0.0000     0.0000     0.0000 </r>
        <r>    -1.5053     0.0000     0.0000     0.0000     0.0000     0.0000     0.0000     0.0000     0.0000     0.0000 </r>
        <r>    -1.3794     0.0000     0.0000     0.0000     0.0000     0.0000     0.0000     0.0000     0.0000     0.0000 </r>
        <r>    -1.2535     0.0000     0.0000     0.0000     0.0000     0.0000     0.0000     0.0000     0.0000     0.0000 </r>
        <r>    -1.1275     0.0000     0.0000     0.0000     0.0000     0.0000     0.0000     0.0000     0.0000     0.0000 </r>
        <r>    -1.0016     0.0000     0.0000     0.0000     0.0000     0.0000     0.0000     0.0000     0.0000     0.0000 </r>
        <r>    -0.8757     0.0000     0.0000     0.0000     0.0000     0.0000     0.0000     0.0000     0.0000     0.0000 </r>
        <r>    -0.7497     0.0000     0.0000     0.0000     0.0000     0.0000     0.0000     0.0000     0.0000     0.0000 </r>
        <r>    -0.6238     0.0000     0.0000     0.0000     0.0000     0.0000     0.0000     0.0000     0.0000     0.0000 </r>
        <r>    -0.4979     0.0000     0.0000     0.0000     0.0000     0.0000     0.0000     0.0000     0.0000     0.0000 </r>
        <r>    -0.3719     0.0000     0.0000     0.0000     0.0000     0.0000     0.0000     0.0000     0.0000     0.0000 </r>
        <r>    -0.2460     0.0000     0.0000     0.0000     0.0000     0.0000     0.0000     0.0000     0.0000     0.0000 </r>
        <r>    -0.1201     0.0237     0.0000     0.0000     0.0150     0.0000     0.0000     0.0000     0.0000     0.0000 </r>
        <r>     0.0059     0.0000     0.0000     0.0000     0.0000     0.0000     0.0000     0.0000     0.0000     0.0000 </r>
        <r>     0.1318     0.0000     0.0000     0.0000     0.0000     0.0000     0.0000     0.0000     0.0000     0.0000 </r>
        <r>     0.2577     0.0000     0.0000     0.0000     0.0000     0.0000     0.0000     0.0000     0.0000     0.0000 </r>
        <r>     0.3837     0.0000     0.0000     0.0000     0.0000     0.0000     0.0000     0.0000     0.0000     0.0000 </r>
        <r>     0.5096     0.0000     0.0000     0.0000     0.0000     0.0000     0.0000     0.0000     0.0000     0.0000 </r>
        <r>     0.6355     0.0000     0.0000     0.0000     0.0000     0.0000     0.0000     0.0000     0.0000     0.0000 </r>
        <r>     0.7615     0.1016     0.0000     0.0000     0.0529     0.0000     0.0000     0.0000     0.0000     0.0000 </r>
        <r>     0.8874     0.0000     0.0254     0.0254     0.0000     0.0000     0.0000     0.0000     0.0000     0.0000 </r>
        <r>     1.0133     0.0000     0.0000     0.0000     0.0000     0.0000     0.0000     0.0000     0.0000     0.0000 </r>
        <r>     1.1393     0.0000     0.0000     0.0000     0.0000     0.0000     0.0000     0.0000     0.0000     0.0000 </r>
        <r>     1.2652     0.0000     0.0000     0.0000     0.0000     0.0000     0.0000     0.0000     0.0000     0.0000 </r>
        <r>     1.3911     0.0000     0.0000     0.0000     0.0000     0.0000     0.0000     0.0000     0.0000     0.0000 </r>
        <r>     1.5171     0.0000     0.0000     0.0000     0.0000     0.0000     0.0000     0.0000     0.0000     0.0000 </r>
        <r>     1.6430     0.0058     0.0000     0.0000     0.0057     0.0000     0.0000     0.0000     0.0000     0.0000 </r>
        <r>     1.7689     0.0000     0.0000     0.0000     0.0000     0.0000     0.0000     0.0000     0.0000     0.0000 </r>
        <r>     1.8949     0.0000     0.0000     0.0000     0.0000     0.0000     0.0000     0.0000     0.0000     0.0000 </r>
        <r>     2.0208     0.0000     0.0000     0.0000     0.0000     0.0000     0.0000     0.0000     0.0000     0.0000 </r>
        <r>     2.1467     0.0000     0.0000     0.0000     0.0000     0.0000     0.0000     0.0000     0.0000     0.0000 </r>
        <r>     2.2727     0.0000     0.0000     0.0000     0.0000     0.0000     0.0000     0.0000     0.0000     0.0000 </r>
        <r>     2.3986     0.0000     0.0000     0.0000     0.0000     0.0000     0.0000     0.0000     0.0000     0.0000 </r>
        <r>     2.5245     0.0000     0.0000     0.0000     0.0000     0.0000     0.0000     0.0000     0.0000     0.0000 </r>
        <r>     2.6505     0.0000     0.0000     0.0000     0.0000     0.0000     0.0000     0.0000     0.0000     0.0000 </r>
        <r>     2.7764     0.0000     0.0000     0.0000     0.0000     0.0000     0.0000     0.0000     0.0000     0.0000 </r>
        <r>     2.9023     0.0000     0.0000     0.0000     0.0000     0.0000     0.0000     0.0000     0.0000     0.0000 </r>
        <r>     3.0283     0.0000     0.0000     0.0000     0.0000     0.0000     0.0000     0.0000     0.0000     0.0000 </r>
        <r>     3.1542     0.0000     0.0000     0.0000     0.0000     0.0000     0.0000     0.0000     0.0000     0.0000 </r>
        <r>     3.2801     0.0000     0.0000     0.0000     0.0000     0.0000     0.0000     0.0000     0.0000     0.0000 </r>
        <r>     3.4061     0.0000     0.0000     0.0000     0.0000     0.0000     0.0000     0.0000     0.0000     0.0000 </r>
        <r>     3.5320     0.0000     0.0000     0.0000     0.0000     0.0000     0.0000     0.0000     0.0000     0.0000 </r>
       </set>
      </set>
     </set>
    </array>
   </partial>
  </dos>
  <projected>
   <eigenvalues>
    <array>
     <dimension dim="1">band</dimension>
     <dimension dim="2">kpoint</dimension>
     <dimension dim="3">spin</dimension>
     <field>eigene</field>
     <field>occ</field>
     <set>
      <set comment="spin 1">
       <set comment="kpoint 1">
        <r>  -32.5307    1.0000 </r>
        <r>  -20.6535    1.0000 </r>
        <r>  -13.4211    1.0000 </r>
        <r>  -13.2716    1.0000 </r>
        <r>  -13.2716    1.0000 </r>
        <r>   -6.9503    1.0000 </r>
        <r>   -6.9503    1.0000 </r>
        <r>   -0.2854    0.0000 </r>
        <r>    0.5261    0.0000 </r>
        <r>    0.6503    0.0000 </r>
        <r>    0.7846    0.0000 </r>
        <r>    0.7846    0.0000 </r>
        <r>    0.9029    0.0000 </r>
        <r>    0.9870    0.0000 </r>
        <r>    1.5080    0.0000 </r>
        <r>    1.7227    0.0000 </r>
       </set>
      </set>
      <set comment="spin 2">
       <set comment="kpoint 1">
        <r>  -31.3039    1.0000 </r>
        <r>  -18.8576    1.0000 </r>
        <r>  -12.4940    1.0000 </r>
        <r>  -11.4280    1.0000 </r>
        <r>  -11.4280    1.0000 </r>
        <r>   -4.6767    0.0000 </r>
        <r>   -4.6767    0.0000 </r>
        <r>   -0.1906    0.0000 </r>
        <r>    0.7235    0.0000 </r>
        <r>    0.7515    0.0000 </r>
        <r>    0.8693    0.0000 </r>
        <r>    0.8693    0.0000 </r>
        <r>    0.9314    0.0000 </r>
        <r>    1.0320    0.0000 </r>
        <r>    1.6527    0.0000 </r>
        <r>    1.8147    0.0000 </r>
       </set>
      </set>
     </set>
    </array>
   </eigenvalues>
   <array>
    <dimension dim="1">ion</dimension>
    <dimension dim="2">band</dimension>
    <dimension dim="3">kpoint</dimension>
    <dimension dim="4">spin</dimension>
    <field>  s</field>
    <field> py</field>
    <field> pz</field>
    <field> px</field>
    <field>dxy</field>
    <field>dyz</field>
    <field>dz2</field>
    <field>dxz</field>
    <field>dx2</field>
    <set>
     <set comment="spin1">
      <set comment="kpoint 1">
       <set comment="band 1">
        <r>  0.4053  0.0000  0.0000  0.0953  0.0000  0.0000  0.0000  0.0000  0.0000 </r>
        <r>  0.4053  0.0000  0.0000  0.0953  0.0000  0.0000  0.0000  0.0000  0.0000 </r>
       </set>
       <set comment="band 2">
        <r>  0.3766  0.0000  0.0000  0.0405  0.0000  0.0000  0.0000  0.0000  0.0000 </r>
        <r>  0.3766  0.0000  0.0000  0.0405  0.0000  0.0000  0.0000  0.0000  0.0000 </r>
       </set>
       <set comment="band 3">
        <r>  0.0420  0.0000  0.0000  0.3824  0.0000  0.0000  0.0000  0.0000  0.0000 </r>
        <r>  0.0420  0.0000  0.0000  0.3824  0.0000  0.0000  0.0000  0.0000  0.0000 </r>
       </set>
       <set comment="band 4">
        <r>  0.0000  0.1292  0.2448  0.0000  0.0000  0.0000  0.0000  0.0000  0.0000 </r>
        <r>  0.0000  0.1292  0.2448  0.0000  0.0000  0.0000  0.0000  0.0000  0.0000 </r>
       </set>
       <set comment="band 5">
        <r>  0.0000  0.2448  0.1292  0.0000  0.0000  0.0000  0.0000  0.0000  0.0000 </r>
        <r>  0.0000  0.2448  0.1292  0.0000  0.0000  0.0000  0.0000  0.0000  0.0000 </r>
       </set>
       <set comment="band 6">
        <r>  0.0000  0.3172  0.0725  0.0000  0.0000  0.0000  0.0000  0.0000  0.0000 </r>
        <r>  0.0000  0.3172  0.0725  0.0000  0.0000  0.0000  0.0000  0.0000  0.0000 </r>
       </set>
       <set comment="band 7">
        <r>  0.0000  0.0725  0.3172  0.0000  0.0000  0.0000  0.0000  0.0000  0.0000 </r>
        <r>  0.0000  0.0725  0.3172  0.0000  0.0000  0.0000  0.0000  0.0000  0.0000 </r>
       </set>
       <set comment="band 8">
        <r>  0.0036  0.0000  0.0000  0.0022  0.0000  0.0000  0.0000  0.0000  0.0000 </r>
        <r>  0.0036  0.0000  0.0000  0.0022  0.0000  0.0000  0.0000  0.0000  0.0000 </r>
       </set>
       <set comment="band 9">
        <r>  0.0136  0.0000  0.0000  0.0155  0.0000  0.0000  0.0000  0.0000  0.0000 </r>
        <r>  0.0136  0.0000  0.0000  0.0155  0.0000  0.0000  0.0000  0.0000  0.0000 </r>
       </set>
       <set comment="band 10">
        <r>  0.0047  0.0000  0.0000  0.0020  0.0000  0.0000  0.0000  0.0000  0.0000 </r>
        <r>  0.0047  0.0000  0.0000  0.0020  0.0000  0.0000  0.0000  0.0000  0.0000 </r>
       </set>
       <set comment="band 11">
        <r>  0.0000  0.0012  0.0022  0.0000  0.0000  0.0000  0.0000  0.0000  0.0000 </r>
        <r>  0.0000  0.0012  0.0022  0.0000  0.0000  0.0000  0.0000  0.0000  0.0000 </r>
       </set>
       <set comment="band 12">
        <r>  0.0000  0.0022  0.0012  0.0000  0.0000  0.0000  0.0000  0.0000  0.0000 </r>
        <r>  0.0000  0.0022  0.0012  0.0000  0.0000  0.0000  0.0000  0.0000  0.0000 </r>
       </set>
       <set comment="band 13">
        <r>  0.0000  0.0000  0.0000  0.0002  0.0000  0.0000  0.0000  0.0000  0.0000 </r>
        <r>  0.0000  0.0000  0.0000  0.0002  0.0000  0.0000  0.0000  0.0000  0.0000 </r>
       </set>
       <set comment="band 14">
        <r>  0.0000  0.0000  0.0000  0.0000  0.0000  0.0000  0.0000  0.0000  0.0000 </r>
        <r>  0.0000  0.0000  0.0000  0.0000  0.0000  0.0000  0.0000  0.0000  0.0000 </r>
       </set>
       <set comment="band 15">
        <r>  0.0106  0.0000  0.0000  0.0213  0.0000  0.0000  0.0000  0.0000  0.0000 </r>
        <r>  0.0106  0.0000  0.0000  0.0213  0.0000  0.0000  0.0000  0.0000  0.0000 </r>
       </set>
       <set comment="band 16">
        <r>  0.0000  0.0015  0.0029  0.0000  0.0000  0.0000  0.0000  0.0000  0.0000 </r>
        <r>  0.0000  0.0015  0.0029  0.0000  0.0000  0.0000  0.0000  0.0000  0.0000 </r>
       </set>
      </set>
     </set>
     <set comment="spin2">
      <set comment="kpoint 1">
       <set comment="band 1">
        <r>  0.3982  0.0000  0.0000  0.1056  0.0000  0.0000  0.0000  0.0000  0.0000 </r>
        <r>  0.3982  0.0000  0.0000  0.1056  0.0000  0.0000  0.0000  0.0000  0.0000 </r>
       </set>
       <set comment="band 2">
        <r>  0.3687  0.0000  0.0000  0.0449  0.0000  0.0000  0.0000  0.0000  0.0000 </r>
        <r>  0.3687  0.0000  0.0000  0.0449  0.0000  0.0000  0.0000  0.0000  0.0000 </r>
       </set>
       <set comment="band 3">
        <r>  0.0469  0.0000  0.0000  0.3706  0.0000  0.0000  0.0000  0.0000  0.0000 </r>
        <r>  0.0469  0.0000  0.0000  0.3706  0.0000  0.0000  0.0000  0.0000  0.0000 </r>
       </set>
       <set comment="band 4">
        <r>  0.0000  0.3366  0.0234  0.0000  0.0000  0.0000  0.0000  0.0000  0.0000 </r>
        <r>  0.0000  0.3366  0.0234  0.0000  0.0000  0.0000  0.0000  0.0000  0.0000 </r>
       </set>
       <set comment="band 5">
        <r>  0.0000  0.0234  0.3366  0.0000  0.0000  0.0000  0.0000  0.0000  0.0000 </r>
        <r>  0.0000  0.0234  0.3366  0.0000  0.0000  0.0000  0.0000  0.0000  0.0000 </r>
       </set>
       <set comment="band 6">
        <r>  0.0000  0.3230  0.0515  0.0000  0.0000  0.0000  0.0000  0.0000  0.0000 </r>
        <r>  0.0000  0.3230  0.0515  0.0000  0.0000  0.0000  0.0000  0.0000  0.0000 </r>
       </set>
       <set comment="band 7">
        <r>  0.0000  0.0515  0.3230  0.0000  0.0000  0.0000  0.0000  0.0000  0.0000 </r>
        <r>  0.0000  0.0515  0.3230  0.0000  0.0000  0.0000  0.0000  0.0000  0.0000 </r>
       </set>
       <set comment="band 8">
        <r>  0.0030  0.0000  0.0000  0.0019  0.0000  0.0000  0.0000  0.0000  0.0000 </r>
        <r>  0.0030  0.0000  0.0000  0.0019  0.0000  0.0000  0.0000  0.0000  0.0000 </r>
       </set>
       <set comment="band 9">
        <r>  0.0083  0.0000  0.0000  0.0047  0.0000  0.0000  0.0000  0.0000  0.0000 </r>
        <r>  0.0083  0.0000  0.0000  0.0047  0.0000  0.0000  0.0000  0.0000  0.0000 </r>
       </set>
       <set comment="band 10">
        <r>  0.0049  0.0000  0.0000  0.0022  0.0000  0.0000  0.0000  0.0000  0.0000 </r>
        <r>  0.0049  0.0000  0.0000  0.0022  0.0000  0.0000  0.0000  0.0000  0.0000 </r>
       </set>
       <set comment="band 11">
        <r>  0.0000  0.0002  0.0030  0.0000  0.0000  0.0000  0.0000  0.0000  0.0000 </r>
        <r>  0.0000  0.0002  0.0030  0.0000  0.0000  0.0000  0.0000  0.0000  0.0000 </r>
       </set>
       <set comment="band 12">
        <r>  0.0000  0.0030  0.0002  0.0000  0.0000  0.0000  0.0000  0.0000  0.0000 </r>
        <r>  0.0000  0.0030  0.0002  0.0000  0.0000  0.0000  0.0000  0.0000  0.0000 </r>
       </set>
       <set comment="band 13">
        <r>  0.0000  0.0000  0.0000  0.0002  0.0000  0.0000  0.0000  0.0000  0.0000 </r>
        <r>  0.0000  0.0000  0.0000  0.0002  0.0000  0.0000  0.0000  0.0000  0.0000 </r>
       </set>
       <set comment="band 14">
        <r>  0.0000  0.0000  0.0000  0.0000  0.0000  0.0000  0.0000  0.0000  0.0000 </r>
        <r>  0.0000  0.0000  0.0000  0.0000  0.0000  0.0000  0.0000  0.0000  0.0000 </r>
       </set>
       <set comment="band 15">
        <r>  0.0085  0.0000  0.0000  0.0084  0.0000  0.0000  0.0000  0.0000  0.0000 </r>
        <r>  0.0085  0.0000  0.0000  0.0084  0.0000  0.0000  0.0000  0.0000  0.0000 </r>
       </set>
       <set comment="band 16">
        <r>  0.0000  0.0046  0.0003  0.0000  0.0000  0.0000  0.0000  0.0000  0.0000 </r>
        <r>  0.0000  0.0046  0.0003  0.0000  0.0000  0.0000  0.0000  0.0000  0.0000 </r>
       </set>
      </set>
     </set>
    </set>
   </array>
  </projected>
 </calculation>
 <structure name="finalpos" >
  <crystal>
   <varray name="basis" >
    <v>      12.00000000       0.00000000       0.00000000 </v>
    <v>       0.00000000      12.00000000       0.00000000 </v>
    <v>       0.00000000       0.00000000      12.00000000 </v>
   </varray>
   <i name="volume">   1728.00000000 </i>
   <varray name="rec_basis" >
    <v>       0.08333333       0.00000000       0.00000000 </v>
    <v>       0.00000000       0.08333333       0.00000000 </v>
    <v>       0.00000000       0.00000000       0.08333333 </v>
   </varray>
  </crystal>
  <varray name="positions" >
   <v>       0.44859217       0.50000000       0.50000000 </v>
   <v>       0.55140783       0.50000000       0.50000000 </v>
  </varray>
 </structure>
</modeling>
