unknown system                          
           1
    12.000000    0.000000    0.000000
     0.000000   12.000000    0.000000
     0.000000    0.000000   12.000000
   O 
   2
Direct configuration=     1
   0.44791667  0.50000000  0.50000000
   0.55208333  0.50000000  0.50000000
Direct configuration=     2
   0.45226458  0.50000000  0.50000000
   0.54773542  0.50000000  0.50000000
Direct configuration=     3
   0.44838639  0.50000000  0.50000000
   0.55161361  0.50000000  0.50000000
Direct configuration=     4
   0.44852261  0.50000000  0.50000000
   0.55147739  0.50000000  0.50000000
Direct configuration=     5
   0.44859217  0.50000000  0.50000000
   0.55140783  0.50000000  0.50000000
