----- GAMESS execution script 'rungms' -----
This job is running on host crcfe02.crc.nd.edu
under operating system Linux at Sun Sep 29 10:46:44 EDT 2019
Available scratch disk space (Kbyte units) at beginning of the job is
Filesystem      1K-blocks  Used  Available Use% Mounted on
AFS            2147483647     0 2147483647   0% /afs
GAMESS temporary binary files will be written to /afs/crc.nd.edu/user/c/cdrisko
GAMESS supplementary output files will be written to /afs/crc.nd.edu/user/c/cdrisko/scr
Copying input file SO2.inp to your run's scratch directory...

 Distributed Data Interface kickoff program.
 Initiating 1 compute processes on 1 nodes to run the following command:
 /afs/crc.nd.edu/x86_64_linux/g/gamess/nov-2017/gamess/gamess.00.x SO2 

          ******************************************************
          *         GAMESS VERSION = 11 NOV 2017 (R3)         *
          *             FROM IOWA STATE UNIVERSITY             *
          * M.W.SCHMIDT, K.K.BALDRIDGE, J.A.BOATZ, S.T.ELBERT, *
          *   M.S.GORDON, J.H.JENSEN, S.KOSEKI, N.MATSUNAGA,   *
          *          K.A.NGUYEN, S.J.SU, T.L.WINDUS,           *
          *       TOGETHER WITH M.DUPUIS, J.A.MONTGOMERY       *
          *         J.COMPUT.CHEM.  14, 1347-1363(1993)        *
          **************** 64 BIT INTEL VERSION ****************

  SINCE 1993, STUDENTS AND POSTDOCS WORKING AT IOWA STATE UNIVERSITY
  AND ALSO IN THEIR VARIOUS JOBS AFTER LEAVING ISU HAVE MADE IMPORTANT
  CONTRIBUTIONS TO THE CODE:
     IVANA ADAMOVIC, CHRISTINE AIKENS, YURI ALEXEEV, POOJA ARORA,
     ANDREY ASADCHEV, ROB BELL, PRADIPTA BANDYOPADHYAY, JONATHAN BENTZ,
     BRETT BODE, KURT BRORSEN, CALEB CARLIN, GALINA CHABAN, WEI CHEN,
     CHEOL HO CHOI, PAUL DAY, ALBERT DEFUSCO, NUWAN DESILVA, TIM DUDLEY,
     DMITRI FEDOROV, ALEX FINDLATER, GRAHAM FLETCHER, MARK FREITAG,
     KURT GLAESEMANN, ANASTASIA GUININA,
     DAN KEMP, GRANT MERRILL, NORIYUKI MINEZAWA, JONATHAN MULLIN,
     TAKESHI NAGATA, SEAN NEDD, HEATHER NETZLOFF, BOSILJKA NJEGIC, RYAN OLSON,
     MIKE PAK, BUU PHAM,
     SPENCER PRUITT, LUKE ROSKOP, JIM SHOEMAKER, LYUDMILA SLIPCHENKO,
     TONY SMITH, SAROM SOK LEANG, JIE SONG, TETSUYA TAKETSUGU, SIMON WEBB,
     PENG XU, SOOHAENG YOO, FEDERICO ZAHARIEV

  ADDITIONAL CODE HAS BEEN PROVIDED BY COLLABORATORS IN OTHER GROUPS:
     IOWA STATE UNIVERSITY:
          JOE IVANIC, AARON WEST, LAIMUTIS BYTAUTAS, KLAUS RUEDENBERG
     UNIVERSITY OF TOKYO: KIMIHIKO HIRAO, TAKAHITO NAKAJIMA,
          TAKAO TSUNEDA, MUNEAKI KAMIYA, SUSUMU YANAGISAWA,
          KIYOSHI YAGI, MAHITO CHIBA, SEIKEN TOKURA, NAOAKI KAWAKAMI
     UNIVERSITY OF AARHUS: FRANK JENSEN
     UNIVERSITY OF IOWA: VISVALDAS KAIRYS, HUI LI
     NATIONAL INST. OF STANDARDS AND TECHNOLOGY: WALT STEVENS, DAVID GARMER
     UNIVERSITY OF PISA: BENEDETTA MENNUCCI, JACOPO TOMASI
     UNIVERSITY OF MEMPHIS: HENRY KURTZ, PRAKASHAN KORAMBATH
     UNIVERSITY OF ALBERTA: TOBY ZENG, MARIUSZ KLOBUKOWSKI
     UNIVERSITY OF NEW ENGLAND: MARK SPACKMAN
     MIE UNIVERSITY: HIROAKI UMEDA
     NAT. INST. OF ADVANCED INDUSTRIAL SCIENCE AND TECHNOLOGY: KAZUO KITAURA
     MICHIGAN STATE UNIVERSITY:
          KAROL KOWALSKI, MARTA WLOCH, JEFFREY GOUR, JESSE LUTZ,
          WEI LI, PIOTR PIECUCH
     UNIVERSITY OF SILESIA: MONIKA MUSIAL, STANISLAW KUCHARSKI
     FACULTES UNIVERSITAIRES NOTRE-DAME DE LA PAIX:
          OLIVIER QUINET, BENOIT CHAMPAGNE
     UNIVERSITY OF CALIFORNIA - SANTA BARBARA: BERNARD KIRTMAN
     INSTITUTE FOR MOLECULAR SCIENCE:
          KAZUYA ISHIMURA, MICHIO KATOUDA, AND SHIGERU NAGASE
     UNIVERSITY OF NOTRE DAME: ANNA POMOGAEVA, DAN CHIPMAN
     KYUSHU UNIVERSITY:
          HARUYUKI NAKANO,
          FENG LONG GU, JACEK KORCHOWIEC, MARCIN MAKOWSKI, AND YURIKO AOKI,
          HIROTOSHI MORI AND EISAKU MIYOSHI
     PENNSYLVANIA STATE UNIVERSITY:
          TZVETELIN IORDANOV, CHET SWALINA, JONATHAN SKONE,
          SHARON HAMMES-SCHIFFER
     WASEDA UNIVERSITY:
          MASATO KOBAYASHI, TOMOKO AKAMA, TSUGUKI TOUMA,
          TAKESHI YOSHIKAWA, YASUHIRO IKABATA, JUNJI SEINO,
          YUYA NAKAJIMA, HIROMI NAKAI
     NANJING UNIVERSITY: SHUHUA LI
     UNIVERSITY OF NEBRASKA:
          PEIFENG SU, DEJUN SI, NANDUN THELLAMUREGE, YALI WANG, HUI LI
     UNIVERSITY OF ZURICH: ROBERTO PEVERATI, KIM BALDRIDGE
     N. COPERNICUS UNIVERSITY AND JACKSON STATE UNIVERSITY:
          MARIA BARYSZ
     UNIVERSITY OF COPENHAGEN: Jimmy Kromann, CASPER STEINMANN
     TOKYO INSTITUTE OF TECHNOLOGY: HIROYA NAKATA
     NAGOYA UNIVERSITY: YOSHIO NISHIMOTO, STEPHAN IRLE
     MOSCOW STATE UNIVERSITY: VLADIMIR MIRONOV

 EXECUTION OF GAMESS BEGUN Sun Sep 29 10:46:44 2019

            ECHO OF THE FIRST FEW INPUT CARDS -
 INPUT CARD> $BASIS GBASIS=PCSEG-1 $END                                                     
 INPUT CARD> $CONTRL COORD=ZMT ISPHER=1 RUNTYP=ENERGY DFTTYP=PBE MULT=1 $END                
 INPUT CARD>                                                                                
 INPUT CARD> $DATA                                                                          
 INPUT CARD>Title SO2 single-point calculation template with Z-Matrix                       
 INPUT CARD>C1                                                                              
 INPUT CARD>S                                                                               
 INPUT CARD>O 1 1.45                                                                        
 INPUT CARD>O 1 1.45 2 95                                                                   
 INPUT CARD> $END                                                                           
    1000000 WORDS OF MEMORY AVAILABLE

     BASIS OPTIONS
     -------------
     GBASIS=PCSEG-1      IGAUSS=       0      POLAR=NONE    
     NDFUNC=       0     NFFUNC=       0     DIFFSP=       F
     NPFUNC=       0      DIFFS=       F     BASNAM=        


     RUN TITLE
     ---------
 Title SO2 single-point calculation template with Z-Matrix                       

 THE POINT GROUP OF THE MOLECULE IS C1      
 THE ORDER OF THE PRINCIPAL AXIS IS     0

 YOUR FULLY SUBSTITUTED Z-MATRIX IS
 S   
 O      1   1.4500000
 O      1   1.4500000  2   95.0000

 THE MOMENTS OF INERTIA ARE (AMU-ANGSTROM**2)
 IXX=    15.345   IYY=    36.560   IZZ=    51.905

 ATOM      ATOMIC                      COORDINATES (BOHR)
           CHARGE         X                   Y                   Z
 S          16.0     0.0000000000       -0.9258501304        0.0000000000
 O           8.0     2.0202156081        0.9253364095        0.0000000000
 O           8.0    -2.0202156081        0.9253364095        0.0000000000

          INTERNUCLEAR DISTANCES (ANGS.)
          ------------------------------

                1 S          2 O          3 O     

   1 S       0.0000000    1.4500000 *  1.4500000 *
   2 O       1.4500000 *  0.0000000    2.1381043 *
   3 O       1.4500000 *  2.1381043 *  0.0000000  

  * ... LESS THAN  3.000


     ATOMIC BASIS SET
     ----------------
 THE CONTRACTED PRIMITIVE FUNCTIONS HAVE BEEN UNNORMALIZED
 THE CONTRACTED BASIS FUNCTIONS ARE NOW NORMALIZED TO UNITY

  SHELL TYPE  PRIMITIVE        EXPONENT          CONTRACTION COEFFICIENT(S)

 S         

      1   S       1         49299.4000000    0.000677492991
      1   S       2          7395.8400000    0.005232317766
      1   S       3          1683.3000000    0.026769459077
      1   S       4           476.1440000    0.102869580705
      1   S       5           154.3290000    0.286438127414
      1   S       6            55.0288000    0.454278639081
      1   S       7            20.5029000    0.271743121997

      2   S       8            45.9596000   -0.088421914560
      2   S       9             4.9274000    0.564350486135
      2   S      10             1.9179900    0.505415953466

      3   S      11             0.3684980    1.000000000000

      4   S      12             0.1291650    1.000000000000

      5   P      13           451.6620000    0.003707705453
      5   P      14           106.0980000    0.029219352245
      5   P      15            33.6996000    0.124444551509
      5   P      16            12.3054000    0.321808587656
      5   P      17             4.7141200    0.462822172957
      5   P      18             1.7810500    0.266513371364

      6   P      19             0.8722350    0.349265132972
      6   P      20             0.3102780    0.717115018770

      7   P      21             0.1001940    1.000000000000

      8   D      22             0.5500000    1.000000000000

 O         

      9   S      23          2288.6400000    0.005451138222
      9   S      24           344.4160000    0.040718922842
      9   S      25            78.2538000    0.181369420873
      9   S      26            21.7195000    0.465536820246
      9   S      27             6.5590700    0.451211321214

     10   S      28            10.4656000   -0.150211201174
     10   S      29             0.9643510    1.052867983385

     11   S      30             0.2851270    1.000000000000

     12   P      31            17.0590000    0.068749256972
     12   P      32             3.6899900    0.351671941499
     12   P      33             0.9929960    0.724532099722

     13   P      34             0.2449240    1.000000000000

     14   D      35             1.0000000    1.000000000000

 O         

     15   S      36          2288.6400000    0.005451138222
     15   S      37           344.4160000    0.040718922842
     15   S      38            78.2538000    0.181369420873
     15   S      39            21.7195000    0.465536820246
     15   S      40             6.5590700    0.451211321214

     16   S      41            10.4656000   -0.150211201174
     16   S      42             0.9643510    1.052867983385

     17   S      43             0.2851270    1.000000000000

     18   P      44            17.0590000    0.068749256972
     18   P      45             3.6899900    0.351671941499
     18   P      46             0.9929960    0.724532099722

     19   P      47             0.2449240    1.000000000000

     20   D      48             1.0000000    1.000000000000

 TOTAL NUMBER OF BASIS SET SHELLS             =   20
 NUMBER OF CARTESIAN GAUSSIAN BASIS FUNCTIONS =   49
 NOTE: THIS RUN WILL RESTRICT THE MO VARIATION SPACE TO SPHERICAL HARMONICS.
 THE NUMBER OF ORBITALS KEPT IN THE VARIATIONAL SPACE WILL BE PRINTED LATER.
 NUMBER OF ELECTRONS                          =   32
 CHARGE OF MOLECULE                           =    0
 SPIN MULTIPLICITY                            =    1
 NUMBER OF OCCUPIED ORBITALS (ALPHA)          =   16
 NUMBER OF OCCUPIED ORBITALS (BETA )          =   16
 TOTAL NUMBER OF ATOMS                        =    3
 THE NUCLEAR REPULSION ENERGY IS      109.2670491885

     LEBEDEV GRID-BASED DFT OPTIONS
     ------------------------------
     DFTTYP=PBE     
     NRAD  =      96     NLEB  =     302
     NRAD0 =      24     NLEB0 =     110
     SWOFF =    5.00E-03 (PURE SCF -> DFT)
     SWITCH=    3.00E-04 (COARSE -> TIGHT GRID)
     THRESH=    0.00E+00 GTHRE=    1.00E+00

 GRIMME'S EMPIRICAL DISPERSION CORRECTION= F

     $CONTRL OPTIONS
     ---------------
 SCFTYP=RHF          RUNTYP=ENERGY       EXETYP=RUN     
 MPLEVL=       0     CITYP =NONE         CCTYP =NONE         VBTYP =NONE    
 DFTTYP=PBE          TDDFT =NONE    
 MULT  =       1     ICHARG=       0     NZVAR =       0     COORD =ZMT     
 PP    =NONE         RELWFN=NONE         LOCAL =NONE         NUMGRD=       F
 ISPHER=       1     NOSYM =       0     MAXIT =      30     UNITS =ANGS    
 PLTORB=       F     MOLPLT=       F     AIMPAC=       F     FRIEND=        
 NPRINT=       7     IREST =       0     GEOM  =INPUT   
 NORMF =       0     NORMP =       0     ITOL  =      20     ICUT  =       9
 INTTYP=BEST         GRDTYP=BEST         QMTTOL= 1.0E-06

     $SYSTEM OPTIONS
     ---------------
  REPLICATED MEMORY=     1000000 WORDS (ON EVERY NODE).
 DISTRIBUTED MEMDDI=           0 MILLION WORDS IN AGGREGATE,
 MEMDDI DISTRIBUTED OVER   1 PROCESSORS IS           0 WORDS/PROCESSOR.
 TOTAL MEMORY REQUESTED ON EACH PROCESSOR=     1000000 WORDS.
 TIMLIM=      525600.00 MINUTES, OR     365.0 DAYS.
 PARALL= F  BALTYP=  DLB     KDIAG=    0  COREFL= F
 MXSEQ2=     300 MXSEQ3=     150  mem10=         0

          ----------------
          PROPERTIES INPUT
          ----------------

     MOMENTS            FIELD           POTENTIAL          DENSITY
 IEMOM =       1   IEFLD =       0   IEPOT =       0   IEDEN =       0
 WHERE =COMASS     WHERE =NUCLEI     WHERE =NUCLEI     WHERE =NUCLEI  
 OUTPUT=BOTH       OUTPUT=BOTH       OUTPUT=BOTH       OUTPUT=BOTH    
 IEMINT=       0   IEFINT=       0                     IEDINT=       0
                                                       MORB  =       0
          EXTRAPOLATION IN EFFECT
          DIIS IN EFFECT
 ORBITAL PRINTING OPTION: NPREO=     1    49     2     1

     -------------------------------
     INTEGRAL TRANSFORMATION OPTIONS
     -------------------------------
     NWORD  =            0
     CUTOFF = 1.0E-09     MPTRAN =       0
     DIRTRF =       F     AOINTS =DUP     

          ----------------------
          INTEGRAL INPUT OPTIONS
          ----------------------
 NOPK  =       1 NORDER=       0 SCHWRZ=       F

   --- ENCODED Z MATRIX ---
 COORD  TYPE   I   J   K   L   M   N
    1      1    2   1
    2      1    3   1
    3      2    3   1   2

 THE DETERMINANT OF THE G MATRIX IS 10**(    -4)

 THE DETERMINANT OF THE G MATRIX IS 10**(    -4)
 * * * WARNING * * *
 YOUR B MATRIX HAS A SMALL DETERMINANT.
 THIS SUGGESTS YOU MAY HAVE BADLY CHOSEN COORDINATES.

     ------------------------------------------
     THE POINT GROUP IS C1 , NAXIS= 0, ORDER= 1
     ------------------------------------------

 -- VARIATIONAL SPACE WILL BE RESTRICTED TO PURE SPHERICAL HARMONICS ONLY --
 AFTER EXCLUDING CONTAMINANT COMBINATIONS FROM THE CARTESIAN GAUSSIAN BASIS
 SET, THE NUMBER OF SPHERICAL HARMONICS KEPT IN THE VARIATION SPACE IS   46

     DIMENSIONS OF THE SYMMETRY SUBSPACES ARE
 A   =   46

 ..... DONE SETTING UP THE RUN .....
 STEP CPU TIME =     0.04 TOTAL CPU TIME =          0.0 (      0.0 MIN)
 TOTAL WALL CLOCK TIME=          0.0 SECONDS, CPU UTILIZATION IS   100.00%

          ********************
          1 ELECTRON INTEGRALS
          ********************
 ...... END OF ONE-ELECTRON INTEGRALS ......
 STEP CPU TIME =     0.01 TOTAL CPU TIME =          0.0 (      0.0 MIN)
 TOTAL WALL CLOCK TIME=          0.0 SECONDS, CPU UTILIZATION IS   100.00%

          -------------
          GUESS OPTIONS
          -------------
          GUESS =HUCKEL            NORB  =       0          NORDER=       0
          MIX   =       F          PRTMO =       F          PUNMO =       F
          TOLZ  = 1.0E-08          TOLE  = 1.0E-05
          SYMDEN=       F          PURIFY=       F

 INITIAL GUESS ORBITALS GENERATED BY HUCKEL   ROUTINE.
 HUCKEL GUESS REQUIRES     21634 WORDS.

 STATISTICS FOR GENERATION OF SYMMETRY ORBITAL -Q- MATRIX
 NUMBER OF CARTESIAN ATOMIC ORBITALS=         49
 NUMBER OF SPHERICAL CONTAMINANTS DROPPED=     3
 NUMBER OF LINEARLY DEPENDENT MOS DROPPED=     0
 TOTAL NUMBER OF MOS IN VARIATION SPACE=      46

 SYMMETRIES FOR INITIAL GUESS ORBITALS FOLLOW.   BOTH SET(S).
    16 ORBITALS ARE OCCUPIED (    7 CORE ORBITALS).
     8=A        9=A       10=A       11=A       12=A       13=A       14=A   
    15=A       16=A       17=A       18=A       19=A       20=A       21=A   
    22=A       23=A       24=A       25=A       26=A   
 ...... END OF INITIAL ORBITAL SELECTION ......
 STEP CPU TIME =     0.00 TOTAL CPU TIME =          0.0 (      0.0 MIN)
 TOTAL WALL CLOCK TIME=          0.0 SECONDS, CPU UTILIZATION IS   100.00%

                    ----------------------
                    AO INTEGRAL TECHNOLOGY
                    ----------------------
     S,P,L SHELL ROTATED AXIS INTEGRALS, REPROGRAMMED BY
        KAZUYA ISHIMURA (IMS) AND JOSE SIERRA (SYNSTAR).
     S,P,D,L SHELL ROTATED AXIS INTEGRALS PROGRAMMED BY
        KAZUYA ISHIMURA (INSTITUTE FOR MOLECULAR SCIENCE).
     S,P,D,F,G SHELL TO TOTAL QUARTET ANGULAR MOMENTUM SUM 5,
        ERIC PROGRAM BY GRAHAM FLETCHER (ELORET AND NASA ADVANCED
        SUPERCOMPUTING DIVISION, AMES RESEARCH CENTER).
     S,P,D,F,G,L SHELL GENERAL RYS QUADRATURE PROGRAMMED BY
        MICHEL DUPUIS (PACIFIC NORTHWEST NATIONAL LABORATORY).

          --------------------
          2 ELECTRON INTEGRALS
          --------------------

 THE -PK- OPTION IS OFF, THE INTEGRALS ARE NOT IN SUPERMATRIX FORM.
 STORING   15000 INTEGRALS/RECORD ON DISK, USING 12 BYTES/INTEGRAL.
 TWO ELECTRON INTEGRAL EVALUATION REQUIRES   90606 WORDS OF MEMORY.
 II,JST,KST,LST =  1  1  1  1 NREC =         1 INTLOC =    1
 II,JST,KST,LST =  2  1  1  1 NREC =         1 INTLOC =    2
 II,JST,KST,LST =  3  1  1  1 NREC =         1 INTLOC =    7
 II,JST,KST,LST =  4  1  1  1 NREC =         1 INTLOC =   22
 II,JST,KST,LST =  5  1  1  1 NREC =         1 INTLOC =   56
 II,JST,KST,LST =  6  1  1  1 NREC =         1 INTLOC =  125
 II,JST,KST,LST =  7  1  1  1 NREC =         1 INTLOC =  329
 II,JST,KST,LST =  8  1  1  1 NREC =         1 INTLOC =  776
 II,JST,KST,LST =  9  1  1  1 NREC =         1 INTLOC = 2864
 II,JST,KST,LST = 10  1  1  1 NREC =         1 INTLOC = 4985
 II,JST,KST,LST = 11  1  1  1 NREC =         1 INTLOC = 7651
 II,JST,KST,LST = 12  1  1  1 NREC =         1 INTLOC =10769
 II,JST,KST,LST = 13  1  1  1 NREC =         2 INTLOC = 6698
 II,JST,KST,LST = 14  1  1  1 NREC =         3 INTLOC = 6970
 II,JST,KST,LST = 15  1  1  1 NREC =         6 INTLOC = 9008
 II,JST,KST,LST = 16  1  1  1 NREC =         7 INTLOC = 3164
 II,JST,KST,LST = 17  1  1  1 NREC =         8 INTLOC =  490
 II,JST,KST,LST = 18  1  1  1 NREC =         8 INTLOC =14097
 II,JST,KST,LST = 19  1  1  1 NREC =        11 INTLOC =11444
 II,JST,KST,LST = 20  1  1  1 NREC =        15 INTLOC = 4290
 TOTAL NUMBER OF NONZERO TWO-ELECTRON INTEGRALS =              352147
         24 INTEGRAL RECORDS WERE STORED ON DISK FILE  8.
  ...... END OF TWO-ELECTRON INTEGRALS .....
 STEP CPU TIME =     0.10 TOTAL CPU TIME =          0.2 (      0.0 MIN)
 TOTAL WALL CLOCK TIME=          0.2 SECONDS, CPU UTILIZATION IS    93.75%

          --------------------------
               R-PBE SCF CALCULATION
          --------------------------

     NUCLEAR ENERGY =       109.2670491885
     MAXIT =   30     NPUNCH=    2
     EXTRAP=T  DAMP=F  SHIFT=F  RSTRCT=F  DIIS=T  DEM=F  SOSCF=F
         DENSITY MATRIX CONVERGENCE THRESHOLD=  1.00E-05
     COARSE -> FINE DFT GRID SWITCH THRESHOLD=  3.00E-04 (SWITCH IN $DFT)
                   HF -> DFT SWITCH THRESHOLD=  5.00E-03 (SWOFF IN $DFT)
     MEMORY REQUIRED FOR RHF ITERS=    183108 WORDS.

 DFT CODE IS SWITCHING FROM THE FINE GRID NRAD= 96,  NLEB=  302
                      TO THE COARSE GRID NRAD0= 24, NLEB0=  110

     EXCHANGE FUNCTIONAL   =PBE       
     CORRELATION FUNCTIONAL=PBE       
     DFT THRESHOLD         =.460E-07
     GRID CHANGE THRESHOLD =.300E-03
 FOR AN EULER-MACLAURIN QUADRATURE USING  96 RADIAL POINTS:
 SMALLEST GAUSSIAN PRIMITIVE EXPONENT=        0.1001940000 OF TYPE -P-
 ON ATOM NUMBER   1 HAS RADIAL NORMALIZATION=  1.000000
  LARGEST GAUSSIAN PRIMITIVE EXPONENT=    49299.4000000000 OF TYPE -S-
 ON ATOM NUMBER   1 HAS RADIAL NORMALIZATION=  1.000000
 DFT IS SWITCHED OFF, PERFORMING PURE SCF UNTIL SWOFF THRESHOLD IS REACHED.

 ITER EX DEM     TOTAL ENERGY        E CHANGE  DENSITY CHANGE    DIIS ERROR
   1  0  0     -546.0507034456  -546.0507034456   0.591515579   0.879648546
          * * *   INITIATING DIIS PROCEDURE   * * *
   2  1  0     -546.8536645722    -0.8029611266   0.434066917   0.252575064
   3  2  0     -546.9413945531    -0.0877299808   0.159467189   0.155335275
   4  3  0     -547.0612288211    -0.1198342681   0.018046859   0.010273372
   5  4  0     -547.0617505574    -0.0005217363   0.004438160   0.002964954
 CONVERGED TO SWOFF, SO DFT CALCULATION IS NOW SWITCHED ON.
          * * *   INITIATING DIIS PROCEDURE   * * *
   6  5  0     -548.2016720390    -1.1399214816   0.326066795   0.094780979
   7  6  0     -548.2064677687    -0.0047957297   0.280300448   0.086890496
   8  7  0     -548.2063187637     0.0001490050   0.103513431   0.084333215
   9  8  0     -548.2361583943    -0.0298396305   0.021909938   0.010461574
  10  9  0     -548.2365639319    -0.0004055376   0.001736285   0.000904635
  11 10  0     -548.2365663380    -0.0000024061   0.000319364   0.000374176
  12 11  0     -548.2365666556    -0.0000003176   0.000123973   0.000033780
 DFT CODE IS SWITCHING BACK TO THE FINE GRID
          * * *   INITIATING DIIS PROCEDURE   * * *
  13 12  0     -548.2056318754     0.0309347802   0.011407955   0.009805713
  14 13  0     -548.2058457004    -0.0002138250   0.008343717   0.003647673
  15 14  0     -548.2057944924     0.0000512080   0.006562432   0.004754881
  16 15  0     -548.2058770520    -0.0000825596   0.002835120   0.001678283
  17 16  0     -548.2058769854     0.0000000667   0.001596822   0.001705504
  18 17  0     -548.2058852502    -0.0000082649   0.000225645   0.000091374
  19 18  0     -548.2058852822    -0.0000000320   0.000014587   0.000005810
  20 19  0     -548.2058852823    -0.0000000001   0.000001538   0.000001097
  21 20  0     -548.2058852823    -0.0000000000   0.000000116   0.000000045

          -----------------
          DENSITY CONVERGED
          -----------------
     TIME TO FORM FOCK OPERATORS=       2.6 SECONDS (       0.1 SEC/ITER)
     TIME TO SOLVE SCF EQUATIONS=       0.0 SECONDS (       0.0 SEC/ITER)

 FINAL R-PBE ENERGY IS     -548.2058852823 AFTER  21 ITERATIONS
 DFT EXCHANGE + CORRELATION ENERGY =       -42.5586539885
 TOTAL ELECTRON NUMBER             =        32.0000398773

          ------------
          EIGENVECTORS
          ------------

                      1          2          3          4          5
                  -88.2205   -18.7776   -18.7775    -7.8415    -5.8666
                     A          A          A          A          A   
    1  S  1  S    0.997749  -0.000001  -0.000043  -0.308355  -0.000000
    2  S  1  S    0.008331   0.000004   0.000240   1.031499   0.000000
    3  S  1  S   -0.003336  -0.000001  -0.000091   0.028492  -0.000000
    4  S  1  S    0.000684   0.000120   0.008238  -0.005958  -0.000000
    5  S  1  X   -0.000000  -0.000045   0.000001  -0.000000   0.994446
    6  S  1  Y    0.000187  -0.000001  -0.000045   0.009196  -0.000002
    7  S  1  Z    0.000000   0.000000   0.000000   0.000000   0.000000
    8  S  1  X    0.000000  -0.001389   0.000020  -0.000000   0.017696
    9  S  1  Y   -0.000710   0.000023   0.001612   0.001395  -0.000000
   10  S  1  Z    0.000000   0.000000   0.000000   0.000000   0.000000
   11  S  1  X    0.000000  -0.002591   0.000038   0.000000  -0.002750
   12  S  1  Y   -0.000003   0.000054   0.003708  -0.000265  -0.000000
   13  S  1  Z    0.000000   0.000000   0.000000   0.000000   0.000000
   14  S  1 XX   -0.000170   0.000003   0.000206   0.000385  -0.000000
   15  S  1 YY   -0.000084   0.000001   0.000048   0.000015  -0.000000
   16  S  1 ZZ    0.000254  -0.000004  -0.000254  -0.000400   0.000000
   17  S  1 XY    0.000000   0.000358  -0.000005  -0.000000   0.001437
   18  S  1 XZ    0.000000   0.000000   0.000000   0.000000   0.000000
   19  S  1 YZ    0.000000   0.000000   0.000000   0.000000   0.000000
   20  O  2  S   -0.000022  -0.691989   0.712431  -0.000159  -0.000445
   21  O  2  S   -0.000133  -0.023659   0.024313  -0.000234   0.000199
   22  O  2  S    0.000582   0.010710  -0.012680  -0.000200  -0.000980
   23  O  2  X   -0.000092   0.000914  -0.000694   0.000045  -0.000534
   24  O  2  Y   -0.000069   0.000846  -0.000732   0.000014  -0.000483
   25  O  2  Z    0.000000   0.000000   0.000000   0.000000   0.000000
   26  O  2  X   -0.000408  -0.002080   0.001969   0.000658   0.000760
   27  O  2  Y   -0.000411  -0.001587   0.001757   0.000703   0.000901
   28  O  2  Z    0.000000   0.000000   0.000000   0.000000   0.000000
   29  O  2 XX    0.000101   0.000311   0.000118   0.000107   0.000274
   30  O  2 YY    0.000054  -0.000046  -0.000110   0.000066   0.000211
   31  O  2 ZZ   -0.000154  -0.000264  -0.000009  -0.000174  -0.000485
   32  O  2 XY    0.000272   0.000055  -0.000284   0.000308   0.000824
   33  O  2 XZ    0.000000   0.000000   0.000000   0.000000   0.000000
   34  O  2 YZ    0.000000   0.000000   0.000000   0.000000   0.000000
   35  O  3  S   -0.000022   0.712415   0.692005  -0.000159   0.000445
   36  O  3  S   -0.000133   0.024356   0.023615  -0.000234  -0.000199
   37  O  3  S    0.000582  -0.011074  -0.012364  -0.000200   0.000980
   38  O  3  X    0.000092   0.000934   0.000667  -0.000045  -0.000534
   39  O  3  Y   -0.000069  -0.000867  -0.000707   0.000014   0.000483
   40  O  3  Z    0.000000   0.000000   0.000000   0.000000   0.000000
   41  O  3  X    0.000408  -0.002137  -0.001908  -0.000658   0.000760
   42  O  3  Y   -0.000411   0.001638   0.001710   0.000703  -0.000901
   43  O  3  Z    0.000000   0.000000   0.000000   0.000000   0.000000
   44  O  3 XX    0.000101  -0.000307   0.000127   0.000107  -0.000274
   45  O  3 YY    0.000054   0.000043  -0.000111   0.000066  -0.000211
   46  O  3 ZZ   -0.000154   0.000264  -0.000016  -0.000174   0.000485
   47  O  3 XY   -0.000272   0.000063   0.000282  -0.000308   0.000824
   48  O  3 XZ    0.000000   0.000000   0.000000   0.000000   0.000000
   49  O  3 YZ    0.000000   0.000000   0.000000   0.000000   0.000000

                      6          7          8          9         10
                   -5.8664    -5.8613    -1.0691    -0.9338    -0.5900
                     A          A          A          A          A   
    1  S  1  S    0.000000   0.002933   0.051204  -0.000000   0.067431
    2  S  1  S    0.000000  -0.010122  -0.313290   0.000000  -0.431958
    3  S  1  S    0.000000  -0.000154   0.435426  -0.000001   0.667161
    4  S  1  S    0.000000   0.002212   0.065685   0.000006   0.257223
    5  S  1  X    0.000000   0.000002  -0.000000   0.130052   0.000000
    6  S  1  Y    0.000000   0.994559  -0.085127  -0.000000   0.086654
    7  S  1  Z    0.994837   0.000000   0.000000   0.000000   0.000000
    8  S  1  X    0.000000   0.000000   0.000001  -0.293279  -0.000001
    9  S  1  Y    0.000000   0.017076   0.182100   0.000002  -0.212798
   10  S  1  Z    0.016338   0.000000   0.000000   0.000000   0.000000
   11  S  1  X    0.000000  -0.000000   0.000001   0.008735  -0.000001
   12  S  1  Y    0.000000  -0.002351  -0.018386   0.000003  -0.062102
   13  S  1  Z   -0.003132   0.000000   0.000000   0.000000   0.000000
   14  S  1 XX    0.000000  -0.000240   0.022445   0.000000   0.000904
   15  S  1 YY    0.000000   0.001000   0.018308   0.000000  -0.024286
   16  S  1 ZZ    0.000000  -0.000760  -0.040753  -0.000001   0.023382
   17  S  1 XY    0.000000   0.000000   0.000001  -0.099145  -0.000000
   18  S  1 XZ   -0.000000   0.000000   0.000000   0.000000   0.000000
   19  S  1 YZ    0.000656   0.000000   0.000000   0.000000   0.000000
   20  O  2  S    0.000000  -0.000413  -0.132372   0.162938   0.101349
   21  O  2  S    0.000000   0.000336   0.268341  -0.336174  -0.214554
   22  O  2  S    0.000000  -0.001222   0.212262  -0.289730  -0.275512
   23  O  2  X    0.000000  -0.000526  -0.098564   0.066854  -0.058005
   24  O  2  Y    0.000000  -0.000541  -0.079408   0.089830  -0.122401
   25  O  2  Z   -0.000014   0.000000   0.000000   0.000000   0.000000
   26  O  2  X    0.000000   0.000832  -0.020426   0.010810  -0.026317
   27  O  2  Y    0.000000   0.000394  -0.018627   0.016727  -0.056909
   28  O  2  Z   -0.000257   0.000000   0.000000   0.000000   0.000000
   29  O  2 XX    0.000000   0.000246   0.003227   0.000031  -0.001246
   30  O  2 YY    0.000000   0.000265   0.002621  -0.002627   0.005433
   31  O  2 ZZ    0.000000  -0.000511  -0.005848   0.002595  -0.004187
   32  O  2 XY    0.000000   0.000891   0.013137  -0.008819   0.006792
   33  O  2 XZ    0.000020   0.000000   0.000000   0.000000   0.000000
   34  O  2 YZ   -0.000002   0.000000   0.000000   0.000000   0.000000
   35  O  3  S    0.000000  -0.000413  -0.132373  -0.162937   0.101350
   36  O  3  S    0.000000   0.000336   0.268341   0.336175  -0.214555
   37  O  3  S    0.000000  -0.001222   0.212268   0.289720  -0.275514
   38  O  3  X    0.000000   0.000526   0.098564   0.066854   0.058005
   39  O  3  Y    0.000000  -0.000541  -0.079408  -0.089829  -0.122401
   40  O  3  Z   -0.000014   0.000000   0.000000   0.000000   0.000000
   41  O  3  X    0.000000  -0.000832   0.020428   0.010807   0.026317
   42  O  3  Y    0.000000   0.000394  -0.018628  -0.016726  -0.056908
   43  O  3  Z   -0.000257   0.000000   0.000000   0.000000   0.000000
   44  O  3 XX    0.000000   0.000246   0.003228  -0.000032  -0.001246
   45  O  3 YY    0.000000   0.000265   0.002621   0.002627   0.005433
   46  O  3 ZZ    0.000000  -0.000511  -0.005848  -0.002595  -0.004187
   47  O  3 XY    0.000000  -0.000891  -0.013138  -0.008819  -0.006792
   48  O  3 XZ   -0.000020   0.000000   0.000000   0.000000   0.000000
   49  O  3 YZ   -0.000002   0.000000   0.000000   0.000000   0.000000

                     11         12         13         14         15
                   -0.4524    -0.4372    -0.4261    -0.3078    -0.3077
                     A          A          A          A          A   
    1  S  1  S    0.000000  -0.003118   0.000000   0.000000   0.016243
    2  S  1  S    0.000000   0.018198  -0.000000   0.000000  -0.105640
    3  S  1  S    0.000000   0.014894   0.000000   0.000000   0.130660
    4  S  1  S    0.000000  -0.192132   0.000001   0.000000   0.330815
    5  S  1  X    0.000000  -0.000000  -0.182310   0.000000   0.000000
    6  S  1  Y    0.000000  -0.188605   0.000000   0.000000   0.111433
    7  S  1  Z   -0.217477   0.000000   0.000000  -0.000000   0.000000
    8  S  1  X    0.000000   0.000000   0.497470   0.000000  -0.000000
    9  S  1  Y    0.000000   0.506611  -0.000001   0.000000  -0.303833
   10  S  1  Z    0.581911   0.000000   0.000000   0.000001   0.000000
   11  S  1  X    0.000000   0.000001   0.023065   0.000000   0.000001
   12  S  1  Y    0.000000   0.042249   0.000000   0.000000  -0.046807
   13  S  1  Z    0.125764   0.000000   0.000000   0.000000   0.000000
   14  S  1 XX    0.000000  -0.051279  -0.000000   0.000000  -0.135003
   15  S  1 YY    0.000000   0.071787   0.000000   0.000000   0.089395
   16  S  1 ZZ    0.000000  -0.020508   0.000000   0.000000   0.045608
   17  S  1 XY    0.000000   0.000000   0.052122   0.000000  -0.000000
   18  S  1 XZ   -0.000000   0.000000   0.000000   0.124092   0.000000
   19  S  1 YZ    0.064791   0.000000   0.000000  -0.000000   0.000000
   20  O  2  S    0.000000   0.056543   0.074909   0.000000  -0.000974
   21  O  2  S    0.000000  -0.118271  -0.154970   0.000000  -0.001497
   22  O  2  S    0.000000  -0.192022  -0.274991   0.000000  -0.009176
   23  O  2  X    0.000000  -0.339140  -0.179649   0.000000  -0.092539
   24  O  2  Y    0.000000  -0.001602  -0.315641   0.000000   0.413520
   25  O  2  Z    0.298086   0.000000   0.000000   0.470509   0.000000
   26  O  2  X    0.000000  -0.183076  -0.082524   0.000000  -0.083828
   27  O  2  Y    0.000000   0.015439  -0.156771   0.000000   0.292220
   28  O  2  Z    0.171760   0.000000   0.000000   0.336262   0.000000
   29  O  2 XX    0.000000   0.016965  -0.002359   0.000000   0.010364
   30  O  2 YY    0.000000  -0.010483   0.010974   0.000000  -0.015176
   31  O  2 ZZ    0.000000  -0.006482  -0.008615   0.000000   0.004812
   32  O  2 XY    0.000000   0.008483   0.011061   0.000000  -0.010872
   33  O  2 XZ   -0.016991   0.000000   0.000000  -0.014550   0.000000
   34  O  2 YZ   -0.014906   0.000000   0.000000  -0.017484   0.000000
   35  O  3  S    0.000000   0.056543  -0.074908   0.000000  -0.000974
   36  O  3  S    0.000000  -0.118272   0.154969   0.000000  -0.001497
   37  O  3  S    0.000000  -0.192021   0.274991   0.000000  -0.009175
   38  O  3  X    0.000000   0.339142  -0.179648   0.000000   0.092542
   39  O  3  Y    0.000000  -0.001603   0.315642   0.000000   0.413520
   40  O  3  Z    0.298087   0.000000   0.000000  -0.470509   0.000000
   41  O  3  X    0.000000   0.183078  -0.082523   0.000000   0.083830
   42  O  3  Y    0.000000   0.015438   0.156771   0.000000   0.292221
   43  O  3  Z    0.171761   0.000000   0.000000  -0.336262   0.000000
   44  O  3 XX    0.000000   0.016965   0.002359   0.000000   0.010364
   45  O  3 YY    0.000000  -0.010483  -0.010974   0.000000  -0.015176
   46  O  3 ZZ    0.000000  -0.006483   0.008615   0.000000   0.004812
   47  O  3 XY    0.000000  -0.008483   0.011061   0.000000   0.010872
   48  O  3 XZ    0.016991   0.000000   0.000000  -0.014550   0.000000
   49  O  3 YZ   -0.014906   0.000000   0.000000   0.017484   0.000000

                     16         17         18         19         20
                   -0.2557    -0.1707    -0.0285     0.0519     0.1987
                     A          A          A          A          A   
    1  S  1  S   -0.000000   0.000000  -0.000000   0.025812   0.000000
    2  S  1  S    0.000000   0.000000   0.000001  -0.175313   0.000000
    3  S  1  S   -0.000002   0.000000  -0.000001   0.206135   0.000000
    4  S  1  S    0.000008   0.000000  -0.000008   0.964664   0.000000
    5  S  1  X   -0.013923   0.000000  -0.175752  -0.000002   0.000000
    6  S  1  Y   -0.000000   0.000000   0.000001  -0.100014   0.000000
    7  S  1  Z    0.000000  -0.222335   0.000000   0.000000   0.248459
    8  S  1  X    0.036704   0.000000   0.539023   0.000009   0.000000
    9  S  1  Y    0.000002   0.000000  -0.000004   0.328001   0.000000
   10  S  1  Z    0.000000   0.664833   0.000000   0.000000  -0.975141
   11  S  1  X    0.164892   0.000000   0.816017   0.000000   0.000000
   12  S  1  Y    0.000005   0.000000  -0.000007   1.147988   0.000000
   13  S  1  Z    0.000000   0.352286   0.000000   0.000000   1.298391
   14  S  1 XX    0.000001   0.000000   0.000000  -0.087655   0.000000
   15  S  1 YY   -0.000000   0.000000   0.000000  -0.165184   0.000000
   16  S  1 ZZ   -0.000001   0.000000  -0.000001   0.252839   0.000000
   17  S  1 XY   -0.115157   0.000000  -0.241835  -0.000000   0.000000
   18  S  1 XZ    0.000000  -0.000000   0.000000   0.000000   0.000000
   19  S  1 YZ    0.000000  -0.108834   0.000000   0.000000  -0.100403
   20  O  2  S    0.011036   0.000000   0.040311   0.062704   0.000000
   21  O  2  S   -0.028361   0.000000  -0.078732  -0.099357   0.000000
   22  O  2  S   -0.064053   0.000000  -0.369338  -0.705252   0.000000
   23  O  2  X    0.448977   0.000000  -0.026454   0.192972   0.000000
   24  O  2  Y   -0.192086   0.000000   0.305597   0.088547   0.000000
   25  O  2  Z    0.000000  -0.367798   0.000000   0.000000  -0.001682
   26  O  2  X    0.297498   0.000000  -0.059896   0.311547   0.000000
   27  O  2  Y   -0.147006   0.000000   0.280462   0.064894   0.000000
   28  O  2  Z    0.000000  -0.331444   0.000000   0.000000  -0.112323
   29  O  2 XX   -0.018302   0.000000   0.002203  -0.004754   0.000000
   30  O  2 YY    0.018180   0.000000   0.002995  -0.004955   0.000000
   31  O  2 ZZ    0.000122   0.000000  -0.005198   0.009709   0.000000
   32  O  2 XY   -0.006261   0.000000   0.004820   0.003860   0.000000
   33  O  2 XZ    0.000000   0.004927   0.000000   0.000000   0.019168
   34  O  2 YZ    0.000000   0.000673   0.000000   0.000000   0.013308
   35  O  3  S   -0.011036   0.000000  -0.040312   0.062704   0.000000
   36  O  3  S    0.028362   0.000000   0.078730  -0.099361   0.000000
   37  O  3  S    0.064042   0.000000   0.369351  -0.705243   0.000000
   38  O  3  X    0.448975   0.000000  -0.026453  -0.192976   0.000000
   39  O  3  Y    0.192084   0.000000  -0.305598   0.088542   0.000000
   40  O  3  Z    0.000000  -0.367797   0.000000   0.000000  -0.001683
   41  O  3  X    0.297493   0.000000  -0.059890  -0.311542   0.000000
   42  O  3  Y    0.147006   0.000000  -0.280465   0.064889   0.000000
   43  O  3  Z    0.000000  -0.331443   0.000000   0.000000  -0.112322
   44  O  3 XX    0.018302   0.000000  -0.002203  -0.004754   0.000000
   45  O  3 YY   -0.018180   0.000000  -0.002995  -0.004955   0.000000
   46  O  3 ZZ   -0.000122   0.000000   0.005198   0.009709   0.000000
   47  O  3 XY   -0.006261   0.000000   0.004820  -0.003860   0.000000
   48  O  3 XZ    0.000000  -0.004927   0.000000   0.000000  -0.019168
   49  O  3 YZ    0.000000   0.000673   0.000000   0.000000   0.013308

                     21         22         23         24         25
                    0.2295     0.2763     0.3098     0.5352     0.5398
                     A          A          A          A          A   
    1  S  1  S   -0.048212  -0.000000  -0.051139   0.000000   0.000000
    2  S  1  S    0.354709   0.000001   0.372200   0.000000   0.000000
    3  S  1  S   -1.380625  -0.000004  -1.351616   0.000000   0.000000
    4  S  1  S    1.826098   0.000001   1.419896   0.000000   0.000000
    5  S  1  X   -0.000002   0.270755   0.000000   0.000000   0.000000
    6  S  1  Y   -0.205901  -0.000002   0.209379   0.000000   0.000000
    7  S  1  Z    0.000000   0.000000   0.000000  -0.000000   0.020226
    8  S  1  X    0.000009  -1.036580   0.000001   0.000000   0.000000
    9  S  1  Y    0.830199   0.000006  -0.779426   0.000000   0.000000
   10  S  1  Z    0.000000   0.000000   0.000000   0.000001  -0.104195
   11  S  1  X   -0.000008   1.354616   0.000006   0.000000   0.000000
   12  S  1  Y   -0.492683  -0.000006   1.047186   0.000000   0.000000
   13  S  1  Z    0.000000   0.000000   0.000000  -0.000001   0.167340
   14  S  1 XX   -0.106642  -0.000002   0.223323   0.000000   0.000000
   15  S  1 YY   -0.036251  -0.000002   0.025177   0.000000   0.000000
   16  S  1 ZZ    0.142893   0.000005  -0.248499   0.000000   0.000000
   17  S  1 XY   -0.000000   0.268477   0.000005   0.000000   0.000000
   18  S  1 XZ    0.000000   0.000000   0.000000   0.937848   0.000007
   19  S  1 YZ    0.000000   0.000000   0.000000  -0.000007   0.911965
   20  O  2  S    0.024220   0.003838   0.001530   0.000000   0.000000
   21  O  2  S   -0.058660   0.052693   0.062100   0.000000   0.000000
   22  O  2  S   -0.300577  -0.358964  -0.476491   0.000000   0.000000
   23  O  2  X    0.021988  -0.185194  -0.253421   0.000000   0.000000
   24  O  2  Y   -0.016353  -0.135219  -0.190646   0.000000   0.000000
   25  O  2  Z    0.000000   0.000000   0.000000  -0.298938  -0.325742
   26  O  2  X    0.138030  -0.103394  -0.023390   0.000000   0.000000
   27  O  2  Y    0.132639   0.002948  -0.063610   0.000000   0.000000
   28  O  2  Z    0.000000   0.000000   0.000000   0.028879   0.056902
   29  O  2 XX    0.004823   0.005173  -0.035142   0.000000   0.000000
   30  O  2 YY   -0.016489  -0.024810   0.012423   0.000000   0.000000
   31  O  2 ZZ    0.011665   0.019637   0.022719   0.000000   0.000000
   32  O  2 XY   -0.009741  -0.029829  -0.040153   0.000000   0.000000
   33  O  2 XZ    0.000000   0.000000   0.000000  -0.016797  -0.048882
   34  O  2 YZ    0.000000   0.000000   0.000000  -0.049981  -0.006696
   35  O  3  S    0.024220  -0.003837   0.001530   0.000000   0.000000
   36  O  3  S   -0.058662  -0.052699   0.062094   0.000000   0.000000
   37  O  3  S   -0.300576   0.358972  -0.476475   0.000000   0.000000
   38  O  3  X   -0.021988  -0.185198   0.253417   0.000000   0.000000
   39  O  3  Y   -0.016355   0.135221  -0.190645   0.000000   0.000000
   40  O  3  Z    0.000000   0.000000   0.000000   0.298944  -0.325738
   41  O  3  X   -0.138025  -0.103392   0.023399   0.000000   0.000000
   42  O  3  Y    0.132637  -0.002950  -0.063616   0.000000   0.000000
   43  O  3  Z    0.000000   0.000000   0.000000  -0.028880   0.056901
   44  O  3 XX    0.004824  -0.005172  -0.035142   0.000000   0.000000
   45  O  3 YY   -0.016489   0.024809   0.012424   0.000000   0.000000
   46  O  3 ZZ    0.011665  -0.019637   0.022718   0.000000   0.000000
   47  O  3 XY    0.009741  -0.029829   0.040152   0.000000   0.000000
   48  O  3 XZ    0.000000   0.000000   0.000000  -0.016798   0.048882
   49  O  3 YZ    0.000000   0.000000   0.000000   0.049981  -0.006696

                     26         27         28         29         30
                    0.5894     0.6345     0.6758     0.7701     0.8132
                     A          A          A          A          A   
    1  S  1  S    0.004333   0.022150  -0.000000   0.003719   0.000000
    2  S  1  S   -0.035325  -0.173415   0.000001  -0.028198   0.000000
    3  S  1  S    0.136677   0.668014  -0.000005   0.127981   0.000000
    4  S  1  S    0.367871   0.837070  -0.000016  -0.108902   0.000000
    5  S  1  X   -0.000000  -0.000002  -0.161398  -0.000000   0.000000
    6  S  1  Y   -0.017478  -0.150632   0.000001  -0.014115   0.000000
    7  S  1  Z    0.000000   0.000000   0.000000   0.000000   0.000000
    8  S  1  X    0.000002   0.000012   0.941654   0.000002   0.000000
    9  S  1  Y    0.118944   0.802449  -0.000009   0.028793   0.000000
   10  S  1  Z    0.000000   0.000000   0.000000   0.000000  -0.000000
   11  S  1  X    0.000001   0.000002   0.034609  -0.000001   0.000000
   12  S  1  Y    0.271083   0.053146  -0.000003  -0.451045   0.000000
   13  S  1  Z    0.000000   0.000000   0.000000   0.000000  -0.000005
   14  S  1 XX   -0.585912   0.622050  -0.000006   0.410663   0.000000
   15  S  1 YY    0.867947   0.065587  -0.000001  -0.420876   0.000000
   16  S  1 ZZ   -0.282034  -0.687637   0.000008   0.010213   0.000000
   17  S  1 XY    0.000002   0.000008   0.594950   0.000001   0.000000
   18  S  1 XZ    0.000000   0.000000   0.000000   0.000000   0.384558
   19  S  1 YZ    0.000000   0.000000   0.000000   0.000000  -0.000003
   20  O  2  S    0.023251   0.065060   0.070646   0.007434   0.000000
   21  O  2  S   -0.064250  -0.189490  -0.192019  -0.044566   0.000000
   22  O  2  S   -0.214643  -0.497457  -0.479768   0.108885   0.000000
   23  O  2  X    0.157718  -0.194003  -0.178611   0.396186   0.000000
   24  O  2  Y   -0.326526   0.002209  -0.229368  -0.396006   0.000000
   25  O  2  Z    0.000000   0.000000   0.000000   0.000000   0.583514
   26  O  2  X    0.210713   0.684991   0.850060  -0.481829   0.000000
   27  O  2  Y    0.199398   0.600171   0.800890   0.618293   0.000000
   28  O  2  Z    0.000000   0.000000   0.000000   0.000000  -0.836985
   29  O  2 XX    0.057106  -0.001846   0.002747  -0.026761   0.000000
   30  O  2 YY   -0.051663   0.027320   0.003158   0.044374   0.000000
   31  O  2 ZZ   -0.005443  -0.025473  -0.005905  -0.017612   0.000000
   32  O  2 XY   -0.010962   0.011423   0.011079  -0.004229   0.000000
   33  O  2 XZ    0.000000   0.000000   0.000000   0.000000  -0.044925
   34  O  2 YZ    0.000000   0.000000   0.000000   0.000000  -0.032634
   35  O  3  S    0.023250   0.065059  -0.070648   0.007434   0.000000
   36  O  3  S   -0.064251  -0.189491   0.192027  -0.044563   0.000000
   37  O  3  S   -0.214638  -0.497436   0.479781   0.108884   0.000000
   38  O  3  X   -0.157721   0.193993  -0.178618  -0.396185   0.000000
   39  O  3  Y   -0.326525   0.002212   0.229374  -0.396005   0.000000
   40  O  3  Z    0.000000   0.000000   0.000000   0.000000  -0.583523
   41  O  3  X   -0.210706  -0.684962   0.850079   0.481830   0.000000
   42  O  3  Y    0.199395   0.600152  -0.800909   0.618290   0.000000
   43  O  3  Z    0.000000   0.000000   0.000000   0.000000   0.836999
   44  O  3 XX    0.057106  -0.001846  -0.002746  -0.026761   0.000000
   45  O  3 YY   -0.051663   0.027320  -0.003159   0.044374   0.000000
   46  O  3 ZZ   -0.005443  -0.025473   0.005905  -0.017612   0.000000
   47  O  3 XY    0.010962  -0.011424   0.011079   0.004229   0.000000
   48  O  3 XZ    0.000000   0.000000   0.000000   0.000000  -0.044925
   49  O  3 YZ    0.000000   0.000000   0.000000   0.000000   0.032634

                     31         32         33         34         35
                    0.8298     0.9012     0.9338     1.1198     1.4268
                     A          A          A          A          A   
    1  S  1  S    0.000000  -0.001239   0.000000   0.000000  -0.000000
    2  S  1  S    0.000000  -0.012446  -0.000000   0.000000   0.000005
    3  S  1  S    0.000000   0.541120   0.000003   0.000001   0.000017
    4  S  1  S    0.000000  -0.267365   0.000002  -0.000010  -0.000369
    5  S  1  X    0.000000   0.000000  -0.018595  -0.114329   0.053651
    6  S  1  Y    0.000000   0.059969   0.000000   0.000000   0.000015
    7  S  1  Z    0.003760   0.000000   0.000000   0.000000   0.000000
    8  S  1  X    0.000000  -0.000000   0.055097   0.382176  -0.508320
    9  S  1  Y    0.000000  -0.039325   0.000001  -0.000003  -0.000106
   10  S  1  Z   -0.059366   0.000000   0.000000   0.000000   0.000000
   11  S  1  X    0.000000   0.000002  -0.615760   0.404828  -0.532335
   12  S  1  Y    0.000000  -0.218908   0.000000  -0.000004  -0.000158
   13  S  1  Z   -0.608904   0.000000   0.000000   0.000000   0.000000
   14  S  1 XX    0.000000  -0.359313  -0.000002  -0.000001  -0.000028
   15  S  1 YY    0.000000  -0.324341  -0.000002  -0.000001  -0.000034
   16  S  1 ZZ    0.000000   0.683655   0.000003   0.000002   0.000063
   17  S  1 XY    0.000000  -0.000000   0.095330   1.043280  -0.105241
   18  S  1 XZ   -0.000003   0.000000   0.000000   0.000000   0.000000
   19  S  1 YZ   -0.443061   0.000000   0.000000   0.000000   0.000000
   20  O  2  S    0.000000  -0.033194   0.014140   0.029674   0.079398
   21  O  2  S    0.000000   0.224867  -0.103583  -0.003902  -1.227167
   22  O  2  S    0.000000   0.030058   0.170475  -0.578161   1.777694
   23  O  2  X    0.000000  -0.456230  -0.405547   0.465203   0.086498
   24  O  2  Y    0.000000  -0.402395   0.479236   0.395173   0.039648
   25  O  2  Z   -0.569428   0.000000   0.000000   0.000000   0.000000
   26  O  2  X    0.000000   0.372432   0.777911  -0.196224  -0.487081
   27  O  2  Y    0.000000   0.446679  -0.695504  -0.018525  -0.369296
   28  O  2  Z    0.910206   0.000000   0.000000   0.000000   0.000000
   29  O  2 XX    0.000000  -0.030303   0.060605  -0.025900  -0.144346
   30  O  2 YY    0.000000   0.013779  -0.035147   0.012240  -0.003436
   31  O  2 ZZ    0.000000   0.016524  -0.025457   0.013660   0.147781
   32  O  2 XY    0.000000   0.050474  -0.019843   0.047158  -0.076332
   33  O  2 XZ    0.032926   0.000000   0.000000   0.000000   0.000000
   34  O  2 YZ    0.036578   0.000000   0.000000   0.000000   0.000000
   35  O  3  S    0.000000  -0.033195  -0.014141  -0.029673  -0.079373
   36  O  3  S    0.000000   0.224873   0.103598   0.003890   1.226715
   37  O  3  S    0.000000   0.030053  -0.170490   0.578183  -1.776862
   38  O  3  X    0.000000   0.456232  -0.405545   0.465204   0.086529
   39  O  3  Y    0.000000  -0.402389  -0.479239  -0.395173  -0.039663
   40  O  3  Z   -0.569418   0.000000   0.000000   0.000000   0.000000
   41  O  3  X    0.000000  -0.372437   0.777909  -0.196222  -0.486938
   42  O  3  Y    0.000000   0.446670   0.695509   0.018523   0.369178
   43  O  3  Z    0.910193   0.000000   0.000000   0.000000   0.000000
   44  O  3 XX    0.000000  -0.030303  -0.060606   0.025901   0.144354
   45  O  3 YY    0.000000   0.013779   0.035148  -0.012240   0.003427
   46  O  3 ZZ    0.000000   0.016524   0.025458  -0.013660  -0.147781
   47  O  3 XY    0.000000  -0.050473  -0.019844   0.047159  -0.076278
   48  O  3 XZ   -0.032925   0.000000   0.000000   0.000000   0.000000
   49  O  3 YZ    0.036577   0.000000   0.000000   0.000000   0.000000

                     36         37         38         39         40
                    1.4404     2.0725     2.0839     2.0919     2.0963
                     A          A          A          A          A   
    1  S  1  S   -0.001596   0.000000  -0.000000   0.001847   0.000000
    2  S  1  S    0.022056   0.000000   0.000000  -0.012903   0.000000
    3  S  1  S    0.115267   0.000000  -0.000001   0.045977   0.000000
    4  S  1  S   -2.080267   0.000000   0.000005  -0.299558   0.000000
    5  S  1  X   -0.000009   0.000000  -0.024542  -0.000000   0.000000
    6  S  1  Y    0.086208   0.000000  -0.000000  -0.003043   0.000000
    7  S  1  Z    0.000000  -0.012326   0.000000   0.000000   0.000000
    8  S  1  X    0.000091   0.000000   0.092995   0.000001   0.000000
    9  S  1  Y   -0.590107   0.000000   0.000001  -0.023909   0.000000
   10  S  1  Z    0.000000   0.048989   0.000000   0.000000  -0.000000
   11  S  1  X    0.000089   0.000000   0.019002   0.000000   0.000000
   12  S  1  Y   -0.895240   0.000000   0.000002  -0.161252   0.000000
   13  S  1  Z    0.000000   0.026683   0.000000   0.000000  -0.000000
   14  S  1 XX   -0.161930   0.000000  -0.000000   0.019520   0.000000
   15  S  1 YY   -0.197020   0.000000  -0.000001   0.083775   0.000000
   16  S  1 ZZ    0.358949   0.000000   0.000001  -0.103294   0.000000
   17  S  1 XY    0.000014   0.000000  -0.101044  -0.000002   0.000000
   18  S  1 XZ    0.000000  -0.000000   0.000000   0.000000   0.010252
   19  S  1 YZ    0.000000  -0.031503   0.000000   0.000000   0.000000
   20  O  2  S    0.067955   0.000000  -0.002791   0.012289   0.000000
   21  O  2  S   -1.240627   0.000000   0.042018  -0.194758   0.000000
   22  O  2  S    2.307830   0.000000  -0.047173   0.315946   0.000000
   23  O  2  X   -0.086354   0.000000   0.006252   0.045942   0.000000
   24  O  2  Y   -0.042477   0.000000  -0.027476   0.006700   0.000000
   25  O  2  Z    0.000000   0.032305   0.000000   0.000000   0.036799
   26  O  2  X   -0.400751   0.000000  -0.015937  -0.096058   0.000000
   27  O  2  Y   -0.326415   0.000000   0.034201  -0.028819   0.000000
   28  O  2  Z    0.000000  -0.052085   0.000000   0.000000  -0.057962
   29  O  2 XX    0.024162   0.000000   0.141656  -0.363813   0.000000
   30  O  2 YY   -0.025848   0.000000  -0.618887  -0.266556   0.000000
   31  O  2 ZZ    0.001686   0.000000   0.477231   0.630368   0.000000
   32  O  2 XY   -0.153224   0.000000   0.290225   0.308756   0.000000
   33  O  2 XZ    0.000000  -0.388730   0.000000   0.000000   0.585717
   34  O  2 YZ    0.000000   0.590614   0.000000   0.000000  -0.398446
   35  O  3  S    0.067983   0.000000   0.002790   0.012289   0.000000
   36  O  3  S   -1.241067   0.000000  -0.042013  -0.194758   0.000000
   37  O  3  S    2.308462   0.000000   0.047163   0.315947   0.000000
   38  O  3  X    0.086317   0.000000   0.006253  -0.045941   0.000000
   39  O  3  Y   -0.042462   0.000000   0.027476   0.006701   0.000000
   40  O  3  Z    0.000000   0.032304   0.000000   0.000000  -0.036800
   41  O  3  X    0.400936   0.000000  -0.015940   0.096057   0.000000
   42  O  3  Y   -0.326543   0.000000  -0.034200  -0.028820   0.000000
   43  O  3  Z    0.000000  -0.052084   0.000000   0.000000   0.057963
   44  O  3 XX    0.024105   0.000000  -0.141646  -0.363819   0.000000
   45  O  3 YY   -0.025848   0.000000   0.618895  -0.266538   0.000000
   46  O  3 ZZ    0.001743   0.000000  -0.477249   0.630357   0.000000
   47  O  3 XY    0.153252   0.000000   0.290233  -0.308748   0.000000
   48  O  3 XZ    0.000000   0.388738   0.000000   0.000000   0.585711
   49  O  3 YZ    0.000000   0.590620   0.000000   0.000000   0.398438

                     41         42         43         44         45
                    2.2444     2.2669     2.3134     2.4236     2.7895
                     A          A          A          A          A   
    1  S  1  S    0.000000  -0.000000   0.000000  -0.002784  -0.038061
    2  S  1  S    0.000000   0.000001   0.000000   0.026447   0.331592
    3  S  1  S    0.000000  -0.000004   0.000000  -0.133742  -1.146107
    4  S  1  S    0.000000   0.000006   0.000000  -0.087481  -0.814633
    5  S  1  X    0.000000  -0.039775   0.000000   0.000000   0.000001
    6  S  1  Y    0.000000   0.000000   0.000000  -0.046431   0.173344
    7  S  1  Z   -0.000000   0.000000  -0.077223   0.000000   0.000000
    8  S  1  X    0.000000   0.085322   0.000000  -0.000001  -0.000007
    9  S  1  Y    0.000000  -0.000000   0.000000   0.123300  -1.092909
   10  S  1  Z    0.000001   0.000000   0.299376   0.000000   0.000000
   11  S  1  X    0.000000   0.050824   0.000000   0.000000  -0.000002
   12  S  1  Y    0.000000   0.000004   0.000000   0.041911  -0.132451
   13  S  1  Z    0.000000   0.000000   0.077520   0.000000   0.000000
   14  S  1 XX    0.000000  -0.000000   0.000000  -0.512820  -0.230321
   15  S  1 YY    0.000000   0.000001   0.000000   0.493712  -0.184037
   16  S  1 ZZ    0.000000  -0.000000   0.000000   0.019108   0.414358
   17  S  1 XY    0.000000   0.043130   0.000000  -0.000000  -0.000005
   18  S  1 XZ   -0.428597   0.000000   0.000001   0.000000   0.000000
   19  S  1 YZ    0.000001   0.000000   0.409399   0.000000   0.000000
   20  O  2  S    0.000000   0.015954   0.000000   0.007505  -0.001311
   21  O  2  S    0.000000  -0.244478   0.000000  -0.121413  -0.477463
   22  O  2  S    0.000000   0.274554   0.000000   0.158817   1.237982
   23  O  2  X    0.000000   0.154802   0.000000   0.033820  -0.032860
   24  O  2  Y    0.000000  -0.031763   0.000000   0.030966  -0.014311
   25  O  2  Z   -0.050901   0.000000   0.039756   0.000000   0.000000
   26  O  2  X    0.000000  -0.318102   0.000000   0.017554  -0.543239
   27  O  2  Y    0.000000   0.085533   0.000000  -0.196271  -0.497408
   28  O  2  Z    0.154543   0.000000  -0.178624   0.000000   0.000000
   29  O  2 XX    0.000000   0.657091   0.000000  -0.604946   0.297004
   30  O  2 YY    0.000000  -0.326339   0.000000   0.704454   0.084471
   31  O  2 ZZ    0.000000  -0.330752   0.000000  -0.099507  -0.381474
   32  O  2 XY    0.000000  -0.283449   0.000000   0.067873   0.731581
   33  O  2 XZ   -0.419767   0.000000   0.622610   0.000000   0.000000
   34  O  2 YZ   -0.606909   0.000000   0.416247   0.000000   0.000000
   35  O  3  S    0.000000  -0.015954   0.000000   0.007505  -0.001311
   36  O  3  S    0.000000   0.244482   0.000000  -0.121412  -0.477460
   37  O  3  S    0.000000  -0.274563   0.000000   0.158816   1.237969
   38  O  3  X    0.000000   0.154802   0.000000  -0.033821   0.032858
   39  O  3  Y    0.000000   0.031763   0.000000   0.030966  -0.014311
   40  O  3  Z    0.050901   0.000000   0.039756   0.000000   0.000000
   41  O  3  X    0.000000  -0.318103   0.000000  -0.017555   0.543236
   42  O  3  Y    0.000000  -0.085534   0.000000  -0.196270  -0.497401
   43  O  3  Z   -0.154544   0.000000  -0.178623   0.000000   0.000000
   44  O  3 XX    0.000000  -0.657089   0.000000  -0.604946   0.297004
   45  O  3 YY    0.000000   0.326342   0.000000   0.704452   0.084467
   46  O  3 ZZ    0.000000   0.330747   0.000000  -0.099507  -0.381470
   47  O  3 XY    0.000000  -0.283452   0.000000  -0.067871  -0.731572
   48  O  3 XZ   -0.419769   0.000000  -0.622608   0.000000   0.000000
   49  O  3 YZ    0.606911   0.000000   0.416245   0.000000   0.000000

                     46
                    2.8741
                     A   
    1  S  1  S   -0.000000
    2  S  1  S    0.000002
    3  S  1  S   -0.000005
    4  S  1  S   -0.000011
    5  S  1  X   -0.223337
    6  S  1  Y    0.000001
    7  S  1  Z    0.000000
    8  S  1  X    1.393700
    9  S  1  Y   -0.000007
   10  S  1  Z    0.000000
   11  S  1  X    0.139603
   12  S  1  Y   -0.000003
   13  S  1  Z    0.000000
   14  S  1 XX   -0.000002
   15  S  1 YY   -0.000001
   16  S  1 ZZ    0.000004
   17  S  1 XY    0.848715
   18  S  1 XZ    0.000000
   19  S  1 YZ    0.000000
   20  O  2  S    0.007242
   21  O  2  S    0.536621
   22  O  2  S   -1.425155
   23  O  2  X    0.048784
   24  O  2  Y    0.079968
   25  O  2  Z    0.000000
   26  O  2  X    0.700374
   27  O  2  Y    0.581344
   28  O  2  Z    0.000000
   29  O  2 XX   -0.278684
   30  O  2 YY   -0.192789
   31  O  2 ZZ    0.471474
   32  O  2 XY   -0.737955
   33  O  2 XZ    0.000000
   34  O  2 YZ    0.000000
   35  O  3  S   -0.007242
   36  O  3  S   -0.536629
   37  O  3  S    1.425178
   38  O  3  X    0.048784
   39  O  3  Y   -0.079968
   40  O  3  Z    0.000000
   41  O  3  X    0.700382
   42  O  3  Y   -0.581352
   43  O  3  Z    0.000000
   44  O  3 XX    0.278686
   45  O  3 YY    0.192791
   46  O  3 ZZ   -0.471478
   47  O  3 XY   -0.737963
   48  O  3 XZ    0.000000
   49  O  3 YZ    0.000000
 ...... END OF RHF CALCULATION ......
 STEP CPU TIME =     2.63 TOTAL CPU TIME =          2.8 (      0.0 MIN)
 TOTAL WALL CLOCK TIME=          2.8 SECONDS, CPU UTILIZATION IS    98.58%

     ---------------------------------------------------------------------
     PROPERTIES FOR THE PBE      DFT FUNCTIONAL (RHF  TYPE) DENSITY MATRIX
     ---------------------------------------------------------------------

          -----------------
          ENERGY COMPONENTS
          -----------------

         WAVEFUNCTION NORMALIZATION =       1.0000000000

                ONE ELECTRON ENERGY =    -972.7462654753
                TWO ELECTRON ENERGY =     315.2733310045
           NUCLEAR REPULSION ENERGY =     109.2670491885
                                      ------------------
                       TOTAL ENERGY =    -548.2058852823

 ELECTRON-ELECTRON POTENTIAL ENERGY =     315.2733310045
  NUCLEUS-ELECTRON POTENTIAL ENERGY =   -1520.5639175542
   NUCLEUS-NUCLEUS POTENTIAL ENERGY =     109.2670491885
                                      ------------------
             TOTAL POTENTIAL ENERGY =   -1096.0235373612
               TOTAL KINETIC ENERGY =     547.8176520789
                 VIRIAL RATIO (V/T) =       2.0007086906

          ---------------------------------------
          MULLIKEN AND LOWDIN POPULATION ANALYSES
          ---------------------------------------

     ATOMIC MULLIKEN POPULATION IN EACH MOLECULAR ORBITAL

                      1          2          3          4          5

                  2.000000   2.000000   2.000000   2.000000   2.000000

    1             1.999920   0.000479   0.001627   2.000771   2.000216
    2             0.000040   0.970693   1.028254  -0.000385  -0.000108
    3             0.000040   1.028828   0.970119  -0.000385  -0.000108

                      6          7          8          9         10

                  2.000000   2.000000   2.000000   2.000000   2.000000

    1             2.000035   2.000165   0.757193   0.425427   1.198951
    2            -0.000018  -0.000082   0.621398   0.787293   0.400523
    3            -0.000018  -0.000082   0.621409   0.787280   0.400526

                     11         12         13         14         15

                  2.000000   2.000000   2.000000   2.000000   2.000000

    1             1.061344   0.702071   0.480478   0.091157   0.468654
    2             0.469327   0.648962   0.759762   0.954422   0.765671
    3             0.469329   0.648967   0.759760   0.954421   0.765675

                     16

                  2.000000

    1             0.193950
    2             0.903031
    3             0.903019

               ----- POPULATIONS IN EACH AO -----
                             MULLIKEN      LOWDIN
              1  S  1  S      1.99980     1.99923
              2  S  1  S      1.99194     1.88166
              3  S  1  S      1.29968     0.64680
              4  S  1  S      0.55131     0.47420
              5  S  1  X      1.99402     1.95885
              6  S  1  Y      1.99515     1.96646
              7  S  1  Z      1.99376     1.96046
              8  S  1  X      0.83963     0.69461
              9  S  1  Y      1.04944     0.93300
             10  S  1  Z      0.87233     0.76655
             11  S  1  X      0.10936     0.22771
             12  S  1  Y      0.07327     0.23922
             13  S  1  Z      0.17031     0.27729
             14  S  1 XX      0.03302     0.31223
             15  S  1 YY      0.13572     0.31169
             16  S  1 ZZ      0.15754     0.26517
             17  S  1 XY      0.09116     0.17910
             18  S  1 XZ      0.02498     0.10993
             19  S  1 YZ      0.00000     0.02391
             20  O  2  S      1.99546     1.97255
             21  O  2  S      0.94444     0.68604
             22  O  2  S      0.90299     0.51819
             23  O  2  X      1.04864     1.01519
             24  O  2  Y      0.95616     0.92706
             25  O  2  Z      0.86097     0.82641
             26  O  2  X      0.50406     0.59424
             27  O  2  Y      0.51874     0.62265
             28  O  2  Z      0.55551     0.59390
             29  O  2 XX      0.00225     0.20156
             30  O  2 YY      0.00511     0.20127
             31  O  2 ZZ      0.00718     0.20127
             32  O  2 XY      0.00368     0.01501
             33  O  2 XZ      0.00357     0.00572
             34  O  2 YZ      0.00000     0.00489
             35  O  3  S      1.99546     1.97255
             36  O  3  S      0.94444     0.68604
             37  O  3  S      0.90299     0.51819
             38  O  3  X      1.04864     1.01519
             39  O  3  Y      0.95616     0.92706
             40  O  3  Z      0.86097     0.82641
             41  O  3  X      0.50406     0.59424
             42  O  3  Y      0.51874     0.62265
             43  O  3  Z      0.55551     0.59390
             44  O  3 XX      0.00225     0.20156
             45  O  3 YY      0.00511     0.20127
             46  O  3 ZZ      0.00718     0.20127
             47  O  3 XY      0.00368     0.01501
             48  O  3 XZ      0.00357     0.00572
             49  O  3 YZ      0.00000     0.00489

          ----- MULLIKEN ATOMIC OVERLAP POPULATIONS -----
          (OFF-DIAGONAL ELEMENTS NEED TO BE MULTIPLIED BY 2)

             1           2           3

    1   14.5520111
    2    0.4152069   8.0383313
    3    0.4152224  -0.1447571   8.0383133

          TOTAL MULLIKEN AND LOWDIN ATOMIC POPULATIONS
       ATOM         MULL.POP.    CHARGE          LOW.POP.     CHARGE
    1 S            15.382440    0.617560        15.228081    0.771919
    2 O             8.308781   -0.308781         8.385960   -0.385960
    3 O             8.308779   -0.308779         8.385959   -0.385959

          MULLIKEN SPHERICAL HARMONIC POPULATIONS
       ATOM           S       P       D      F      G      H      I    TOTAL
    1 S             5.84    9.10    0.44   0.00   0.00   0.00   0.00   15.38
    2 O             3.84    4.44    0.02   0.00   0.00   0.00   0.00    8.31
    3 O             3.84    4.44    0.02   0.00   0.00   0.00   0.00    8.31

          -------------------------------
          BOND ORDER AND VALENCE ANALYSIS     BOND ORDER THRESHOLD=0.050
          -------------------------------

                   BOND                       BOND                       BOND
  ATOM PAIR DIST  ORDER      ATOM PAIR DIST  ORDER      ATOM PAIR DIST  ORDER
    1   2  1.450  1.875        1   3  1.450  1.875        2   3  2.138  0.242

                       TOTAL       BONDED        FREE
      ATOM            VALENCE     VALENCE     VALENCE
    1 S                 3.750       3.750       0.000
    2 O                 2.117       2.117      -0.000
    3 O                 2.117       2.117      -0.000

          ---------------------
          ELECTROSTATIC MOMENTS
          ---------------------

 POINT   1           X           Y           Z (BOHR)    CHARGE
                 0.000000   -0.000000    0.000000        0.00 (A.U.)
         DX          DY          DZ         /D/  (DEBYE)
    -0.000009   -2.711407    0.000000    2.711407
 ...... END OF PROPERTY EVALUATION ......
 STEP CPU TIME =     0.00 TOTAL CPU TIME =          2.8 (      0.0 MIN)
 TOTAL WALL CLOCK TIME=          2.8 SECONDS, CPU UTILIZATION IS    98.58%
                580000  WORDS OF DYNAMIC MEMORY USED
 EXECUTION OF GAMESS TERMINATED NORMALLY Sun Sep 29 10:46:47 2019
 DDI: 263640 bytes (0.3 MB / 0 MWords) used by master data server.

 ----------------------------------------
 CPU timing information for all processes
 ========================================
 0: 2.717 + 0.72 = 2.789
 ----------------------------------------
 ddikick.x: exited gracefully.
----- accounting info -----
Files used on the master node crcfe02.crc.nd.edu were:
-rw-r--r-- 1 cdrisko campus     207 Sep 29 10:46 /afs/crc.nd.edu/user/c/cdrisko/SO2.F05
-rw-r--r-- 1 cdrisko campus   37566 Sep 29 10:46 /afs/crc.nd.edu/user/c/cdrisko/SO2.F07
-rw-r--r-- 1 cdrisko campus 4320384 Sep 29 10:46 /afs/crc.nd.edu/user/c/cdrisko/SO2.F08
-rw-r--r-- 1 cdrisko campus 1766880 Sep 29 10:46 /afs/crc.nd.edu/user/c/cdrisko/SO2.F10
Sun Sep 29 10:46:50 EDT 2019
0.470u 0.233s 0:06.49 10.7%	0+0k 0+24io 0pf+0w
