----- GAMESS execution script 'rungms' -----
This job is running on host crcfe02.crc.nd.edu
under operating system Linux at Sun Sep 29 10:44:18 EDT 2019
Available scratch disk space (Kbyte units) at beginning of the job is
Filesystem      1K-blocks  Used  Available Use% Mounted on
AFS            2147483647     0 2147483647   0% /afs
GAMESS temporary binary files will be written to /afs/crc.nd.edu/user/c/cdrisko
GAMESS supplementary output files will be written to /afs/crc.nd.edu/user/c/cdrisko/scr
Copying input file SO2.inp to your run's scratch directory...

 Distributed Data Interface kickoff program.
 Initiating 1 compute processes on 1 nodes to run the following command:
 /afs/crc.nd.edu/x86_64_linux/g/gamess/nov-2017/gamess/gamess.00.x SO2 

          ******************************************************
          *         GAMESS VERSION = 11 NOV 2017 (R3)         *
          *             FROM IOWA STATE UNIVERSITY             *
          * M.W.SCHMIDT, K.K.BALDRIDGE, J.A.BOATZ, S.T.ELBERT, *
          *   M.S.GORDON, J.H.JENSEN, S.KOSEKI, N.MATSUNAGA,   *
          *          K.A.NGUYEN, S.J.SU, T.L.WINDUS,           *
          *       TOGETHER WITH M.DUPUIS, J.A.MONTGOMERY       *
          *         J.COMPUT.CHEM.  14, 1347-1363(1993)        *
          **************** 64 BIT INTEL VERSION ****************

  SINCE 1993, STUDENTS AND POSTDOCS WORKING AT IOWA STATE UNIVERSITY
  AND ALSO IN THEIR VARIOUS JOBS AFTER LEAVING ISU HAVE MADE IMPORTANT
  CONTRIBUTIONS TO THE CODE:
     IVANA ADAMOVIC, CHRISTINE AIKENS, YURI ALEXEEV, POOJA ARORA,
     ANDREY ASADCHEV, ROB BELL, PRADIPTA BANDYOPADHYAY, JONATHAN BENTZ,
     BRETT BODE, KURT BRORSEN, CALEB CARLIN, GALINA CHABAN, WEI CHEN,
     CHEOL HO CHOI, PAUL DAY, ALBERT DEFUSCO, NUWAN DESILVA, TIM DUDLEY,
     DMITRI FEDOROV, ALEX FINDLATER, GRAHAM FLETCHER, MARK FREITAG,
     KURT GLAESEMANN, ANASTASIA GUININA,
     DAN KEMP, GRANT MERRILL, NORIYUKI MINEZAWA, JONATHAN MULLIN,
     TAKESHI NAGATA, SEAN NEDD, HEATHER NETZLOFF, BOSILJKA NJEGIC, RYAN OLSON,
     MIKE PAK, BUU PHAM,
     SPENCER PRUITT, LUKE ROSKOP, JIM SHOEMAKER, LYUDMILA SLIPCHENKO,
     TONY SMITH, SAROM SOK LEANG, JIE SONG, TETSUYA TAKETSUGU, SIMON WEBB,
     PENG XU, SOOHAENG YOO, FEDERICO ZAHARIEV

  ADDITIONAL CODE HAS BEEN PROVIDED BY COLLABORATORS IN OTHER GROUPS:
     IOWA STATE UNIVERSITY:
          JOE IVANIC, AARON WEST, LAIMUTIS BYTAUTAS, KLAUS RUEDENBERG
     UNIVERSITY OF TOKYO: KIMIHIKO HIRAO, TAKAHITO NAKAJIMA,
          TAKAO TSUNEDA, MUNEAKI KAMIYA, SUSUMU YANAGISAWA,
          KIYOSHI YAGI, MAHITO CHIBA, SEIKEN TOKURA, NAOAKI KAWAKAMI
     UNIVERSITY OF AARHUS: FRANK JENSEN
     UNIVERSITY OF IOWA: VISVALDAS KAIRYS, HUI LI
     NATIONAL INST. OF STANDARDS AND TECHNOLOGY: WALT STEVENS, DAVID GARMER
     UNIVERSITY OF PISA: BENEDETTA MENNUCCI, JACOPO TOMASI
     UNIVERSITY OF MEMPHIS: HENRY KURTZ, PRAKASHAN KORAMBATH
     UNIVERSITY OF ALBERTA: TOBY ZENG, MARIUSZ KLOBUKOWSKI
     UNIVERSITY OF NEW ENGLAND: MARK SPACKMAN
     MIE UNIVERSITY: HIROAKI UMEDA
     NAT. INST. OF ADVANCED INDUSTRIAL SCIENCE AND TECHNOLOGY: KAZUO KITAURA
     MICHIGAN STATE UNIVERSITY:
          KAROL KOWALSKI, MARTA WLOCH, JEFFREY GOUR, JESSE LUTZ,
          WEI LI, PIOTR PIECUCH
     UNIVERSITY OF SILESIA: MONIKA MUSIAL, STANISLAW KUCHARSKI
     FACULTES UNIVERSITAIRES NOTRE-DAME DE LA PAIX:
          OLIVIER QUINET, BENOIT CHAMPAGNE
     UNIVERSITY OF CALIFORNIA - SANTA BARBARA: BERNARD KIRTMAN
     INSTITUTE FOR MOLECULAR SCIENCE:
          KAZUYA ISHIMURA, MICHIO KATOUDA, AND SHIGERU NAGASE
     UNIVERSITY OF NOTRE DAME: ANNA POMOGAEVA, DAN CHIPMAN
     KYUSHU UNIVERSITY:
          HARUYUKI NAKANO,
          FENG LONG GU, JACEK KORCHOWIEC, MARCIN MAKOWSKI, AND YURIKO AOKI,
          HIROTOSHI MORI AND EISAKU MIYOSHI
     PENNSYLVANIA STATE UNIVERSITY:
          TZVETELIN IORDANOV, CHET SWALINA, JONATHAN SKONE,
          SHARON HAMMES-SCHIFFER
     WASEDA UNIVERSITY:
          MASATO KOBAYASHI, TOMOKO AKAMA, TSUGUKI TOUMA,
          TAKESHI YOSHIKAWA, YASUHIRO IKABATA, JUNJI SEINO,
          YUYA NAKAJIMA, HIROMI NAKAI
     NANJING UNIVERSITY: SHUHUA LI
     UNIVERSITY OF NEBRASKA:
          PEIFENG SU, DEJUN SI, NANDUN THELLAMUREGE, YALI WANG, HUI LI
     UNIVERSITY OF ZURICH: ROBERTO PEVERATI, KIM BALDRIDGE
     N. COPERNICUS UNIVERSITY AND JACKSON STATE UNIVERSITY:
          MARIA BARYSZ
     UNIVERSITY OF COPENHAGEN: Jimmy Kromann, CASPER STEINMANN
     TOKYO INSTITUTE OF TECHNOLOGY: HIROYA NAKATA
     NAGOYA UNIVERSITY: YOSHIO NISHIMOTO, STEPHAN IRLE
     MOSCOW STATE UNIVERSITY: VLADIMIR MIRONOV

 EXECUTION OF GAMESS BEGUN Sun Sep 29 10:44:18 2019

            ECHO OF THE FIRST FEW INPUT CARDS -
 INPUT CARD> $BASIS GBASIS=PCSEG-1 $END                                                     
 INPUT CARD> $CONTRL COORD=ZMT ISPHER=1 RUNTYP=ENERGY DFTTYP=PBE MULT=1 $END                
 INPUT CARD>                                                                                
 INPUT CARD> $DATA                                                                          
 INPUT CARD>Title SO2 single-point calculation template with Z-Matrix                       
 INPUT CARD>C1                                                                              
 INPUT CARD>S                                                                               
 INPUT CARD>O 1 1.35                                                                        
 INPUT CARD>O 1 1.35 2 110                                                                  
 INPUT CARD> $END                                                                           
    1000000 WORDS OF MEMORY AVAILABLE

     BASIS OPTIONS
     -------------
     GBASIS=PCSEG-1      IGAUSS=       0      POLAR=NONE    
     NDFUNC=       0     NFFUNC=       0     DIFFSP=       F
     NPFUNC=       0      DIFFS=       F     BASNAM=        


     RUN TITLE
     ---------
 Title SO2 single-point calculation template with Z-Matrix                       

 THE POINT GROUP OF THE MOLECULE IS C1      
 THE ORDER OF THE PRINCIPAL AXIS IS     0

 YOUR FULLY SUBSTITUTED Z-MATRIX IS
 S   
 O      1   1.3500000
 O      1   1.3500000  2  110.0000

 THE MOMENTS OF INERTIA ARE (AMU-ANGSTROM**2)
 IXX=     9.588   IYY=    39.121   IZZ=    48.708

 ATOM      ATOMIC                      COORDINATES (BOHR)
           CHARGE         X                   Y                   Z
 S          16.0     0.0000000000       -0.7318370860        0.0000000000
 O           8.0     2.0897634231        0.7314310159        0.0000000000
 O           8.0    -2.0897634231        0.7314310159        0.0000000000

          INTERNUCLEAR DISTANCES (ANGS.)
          ------------------------------

                1 S          2 O          3 O     

   1 S       0.0000000    1.3500000 *  1.3500000 *
   2 O       1.3500000 *  0.0000000    2.2117105 *
   3 O       1.3500000 *  2.2117105 *  0.0000000  

  * ... LESS THAN  3.000


     ATOMIC BASIS SET
     ----------------
 THE CONTRACTED PRIMITIVE FUNCTIONS HAVE BEEN UNNORMALIZED
 THE CONTRACTED BASIS FUNCTIONS ARE NOW NORMALIZED TO UNITY

  SHELL TYPE  PRIMITIVE        EXPONENT          CONTRACTION COEFFICIENT(S)

 S         

      1   S       1         49299.4000000    0.000677492991
      1   S       2          7395.8400000    0.005232317766
      1   S       3          1683.3000000    0.026769459077
      1   S       4           476.1440000    0.102869580705
      1   S       5           154.3290000    0.286438127414
      1   S       6            55.0288000    0.454278639081
      1   S       7            20.5029000    0.271743121997

      2   S       8            45.9596000   -0.088421914560
      2   S       9             4.9274000    0.564350486135
      2   S      10             1.9179900    0.505415953466

      3   S      11             0.3684980    1.000000000000

      4   S      12             0.1291650    1.000000000000

      5   P      13           451.6620000    0.003707705453
      5   P      14           106.0980000    0.029219352245
      5   P      15            33.6996000    0.124444551509
      5   P      16            12.3054000    0.321808587656
      5   P      17             4.7141200    0.462822172957
      5   P      18             1.7810500    0.266513371364

      6   P      19             0.8722350    0.349265132972
      6   P      20             0.3102780    0.717115018770

      7   P      21             0.1001940    1.000000000000

      8   D      22             0.5500000    1.000000000000

 O         

      9   S      23          2288.6400000    0.005451138222
      9   S      24           344.4160000    0.040718922842
      9   S      25            78.2538000    0.181369420873
      9   S      26            21.7195000    0.465536820246
      9   S      27             6.5590700    0.451211321214

     10   S      28            10.4656000   -0.150211201174
     10   S      29             0.9643510    1.052867983385

     11   S      30             0.2851270    1.000000000000

     12   P      31            17.0590000    0.068749256972
     12   P      32             3.6899900    0.351671941499
     12   P      33             0.9929960    0.724532099722

     13   P      34             0.2449240    1.000000000000

     14   D      35             1.0000000    1.000000000000

 O         

     15   S      36          2288.6400000    0.005451138222
     15   S      37           344.4160000    0.040718922842
     15   S      38            78.2538000    0.181369420873
     15   S      39            21.7195000    0.465536820246
     15   S      40             6.5590700    0.451211321214

     16   S      41            10.4656000   -0.150211201174
     16   S      42             0.9643510    1.052867983385

     17   S      43             0.2851270    1.000000000000

     18   P      44            17.0590000    0.068749256972
     18   P      45             3.6899900    0.351671941499
     18   P      46             0.9929960    0.724532099722

     19   P      47             0.2449240    1.000000000000

     20   D      48             1.0000000    1.000000000000

 TOTAL NUMBER OF BASIS SET SHELLS             =   20
 NUMBER OF CARTESIAN GAUSSIAN BASIS FUNCTIONS =   49
 NOTE: THIS RUN WILL RESTRICT THE MO VARIATION SPACE TO SPHERICAL HARMONICS.
 THE NUMBER OF ORBITALS KEPT IN THE VARIATIONAL SPACE WILL BE PRINTED LATER.
 NUMBER OF ELECTRONS                          =   32
 CHARGE OF MOLECULE                           =    0
 SPIN MULTIPLICITY                            =    1
 NUMBER OF OCCUPIED ORBITALS (ALPHA)          =   16
 NUMBER OF OCCUPIED ORBITALS (BETA )          =   16
 TOTAL NUMBER OF ATOMS                        =    3
 THE NUCLEAR REPULSION ENERGY IS      115.6604238872

     LEBEDEV GRID-BASED DFT OPTIONS
     ------------------------------
     DFTTYP=PBE     
     NRAD  =      96     NLEB  =     302
     NRAD0 =      24     NLEB0 =     110
     SWOFF =    5.00E-03 (PURE SCF -> DFT)
     SWITCH=    3.00E-04 (COARSE -> TIGHT GRID)
     THRESH=    0.00E+00 GTHRE=    1.00E+00

 GRIMME'S EMPIRICAL DISPERSION CORRECTION= F

     $CONTRL OPTIONS
     ---------------
 SCFTYP=RHF          RUNTYP=ENERGY       EXETYP=RUN     
 MPLEVL=       0     CITYP =NONE         CCTYP =NONE         VBTYP =NONE    
 DFTTYP=PBE          TDDFT =NONE    
 MULT  =       1     ICHARG=       0     NZVAR =       0     COORD =ZMT     
 PP    =NONE         RELWFN=NONE         LOCAL =NONE         NUMGRD=       F
 ISPHER=       1     NOSYM =       0     MAXIT =      30     UNITS =ANGS    
 PLTORB=       F     MOLPLT=       F     AIMPAC=       F     FRIEND=        
 NPRINT=       7     IREST =       0     GEOM  =INPUT   
 NORMF =       0     NORMP =       0     ITOL  =      20     ICUT  =       9
 INTTYP=BEST         GRDTYP=BEST         QMTTOL= 1.0E-06

     $SYSTEM OPTIONS
     ---------------
  REPLICATED MEMORY=     1000000 WORDS (ON EVERY NODE).
 DISTRIBUTED MEMDDI=           0 MILLION WORDS IN AGGREGATE,
 MEMDDI DISTRIBUTED OVER   1 PROCESSORS IS           0 WORDS/PROCESSOR.
 TOTAL MEMORY REQUESTED ON EACH PROCESSOR=     1000000 WORDS.
 TIMLIM=      525600.00 MINUTES, OR     365.0 DAYS.
 PARALL= F  BALTYP=  DLB     KDIAG=    0  COREFL= F
 MXSEQ2=     300 MXSEQ3=     150  mem10=         0

          ----------------
          PROPERTIES INPUT
          ----------------

     MOMENTS            FIELD           POTENTIAL          DENSITY
 IEMOM =       1   IEFLD =       0   IEPOT =       0   IEDEN =       0
 WHERE =COMASS     WHERE =NUCLEI     WHERE =NUCLEI     WHERE =NUCLEI  
 OUTPUT=BOTH       OUTPUT=BOTH       OUTPUT=BOTH       OUTPUT=BOTH    
 IEMINT=       0   IEFINT=       0                     IEDINT=       0
                                                       MORB  =       0
          EXTRAPOLATION IN EFFECT
          DIIS IN EFFECT
 ORBITAL PRINTING OPTION: NPREO=     1    49     2     1

     -------------------------------
     INTEGRAL TRANSFORMATION OPTIONS
     -------------------------------
     NWORD  =            0
     CUTOFF = 1.0E-09     MPTRAN =       0
     DIRTRF =       F     AOINTS =DUP     

          ----------------------
          INTEGRAL INPUT OPTIONS
          ----------------------
 NOPK  =       1 NORDER=       0 SCHWRZ=       F

   --- ENCODED Z MATRIX ---
 COORD  TYPE   I   J   K   L   M   N
    1      1    2   1
    2      1    3   1
    3      2    3   1   2

 THE DETERMINANT OF THE G MATRIX IS 10**(    -4)

 THE DETERMINANT OF THE G MATRIX IS 10**(    -4)
 * * * WARNING * * *
 YOUR B MATRIX HAS A SMALL DETERMINANT.
 THIS SUGGESTS YOU MAY HAVE BADLY CHOSEN COORDINATES.

     ------------------------------------------
     THE POINT GROUP IS C1 , NAXIS= 0, ORDER= 1
     ------------------------------------------

 -- VARIATIONAL SPACE WILL BE RESTRICTED TO PURE SPHERICAL HARMONICS ONLY --
 AFTER EXCLUDING CONTAMINANT COMBINATIONS FROM THE CARTESIAN GAUSSIAN BASIS
 SET, THE NUMBER OF SPHERICAL HARMONICS KEPT IN THE VARIATION SPACE IS   46

     DIMENSIONS OF THE SYMMETRY SUBSPACES ARE
 A   =   46

 ..... DONE SETTING UP THE RUN .....
 STEP CPU TIME =     0.04 TOTAL CPU TIME =          0.0 (      0.0 MIN)
 TOTAL WALL CLOCK TIME=          0.0 SECONDS, CPU UTILIZATION IS   100.00%

          ********************
          1 ELECTRON INTEGRALS
          ********************
 ...... END OF ONE-ELECTRON INTEGRALS ......
 STEP CPU TIME =     0.00 TOTAL CPU TIME =          0.0 (      0.0 MIN)
 TOTAL WALL CLOCK TIME=          0.0 SECONDS, CPU UTILIZATION IS    80.00%

          -------------
          GUESS OPTIONS
          -------------
          GUESS =HUCKEL            NORB  =       0          NORDER=       0
          MIX   =       F          PRTMO =       F          PUNMO =       F
          TOLZ  = 1.0E-08          TOLE  = 1.0E-05
          SYMDEN=       F          PURIFY=       F

 INITIAL GUESS ORBITALS GENERATED BY HUCKEL   ROUTINE.
 HUCKEL GUESS REQUIRES     21634 WORDS.

 STATISTICS FOR GENERATION OF SYMMETRY ORBITAL -Q- MATRIX
 NUMBER OF CARTESIAN ATOMIC ORBITALS=         49
 NUMBER OF SPHERICAL CONTAMINANTS DROPPED=     3
 NUMBER OF LINEARLY DEPENDENT MOS DROPPED=     0
 TOTAL NUMBER OF MOS IN VARIATION SPACE=      46

 SYMMETRIES FOR INITIAL GUESS ORBITALS FOLLOW.   BOTH SET(S).
    16 ORBITALS ARE OCCUPIED (    7 CORE ORBITALS).
     8=A        9=A       10=A       11=A       12=A       13=A       14=A   
    15=A       16=A       17=A       18=A       19=A       20=A       21=A   
    22=A       23=A       24=A       25=A       26=A   
 ...... END OF INITIAL ORBITAL SELECTION ......
 STEP CPU TIME =     0.00 TOTAL CPU TIME =          0.0 (      0.0 MIN)
 TOTAL WALL CLOCK TIME=          0.0 SECONDS, CPU UTILIZATION IS    80.00%

                    ----------------------
                    AO INTEGRAL TECHNOLOGY
                    ----------------------
     S,P,L SHELL ROTATED AXIS INTEGRALS, REPROGRAMMED BY
        KAZUYA ISHIMURA (IMS) AND JOSE SIERRA (SYNSTAR).
     S,P,D,L SHELL ROTATED AXIS INTEGRALS PROGRAMMED BY
        KAZUYA ISHIMURA (INSTITUTE FOR MOLECULAR SCIENCE).
     S,P,D,F,G SHELL TO TOTAL QUARTET ANGULAR MOMENTUM SUM 5,
        ERIC PROGRAM BY GRAHAM FLETCHER (ELORET AND NASA ADVANCED
        SUPERCOMPUTING DIVISION, AMES RESEARCH CENTER).
     S,P,D,F,G,L SHELL GENERAL RYS QUADRATURE PROGRAMMED BY
        MICHEL DUPUIS (PACIFIC NORTHWEST NATIONAL LABORATORY).

          --------------------
          2 ELECTRON INTEGRALS
          --------------------

 THE -PK- OPTION IS OFF, THE INTEGRALS ARE NOT IN SUPERMATRIX FORM.
 STORING   15000 INTEGRALS/RECORD ON DISK, USING 12 BYTES/INTEGRAL.
 TWO ELECTRON INTEGRAL EVALUATION REQUIRES   90606 WORDS OF MEMORY.
 II,JST,KST,LST =  1  1  1  1 NREC =         1 INTLOC =    1
 II,JST,KST,LST =  2  1  1  1 NREC =         1 INTLOC =    2
 II,JST,KST,LST =  3  1  1  1 NREC =         1 INTLOC =    7
 II,JST,KST,LST =  4  1  1  1 NREC =         1 INTLOC =   22
 II,JST,KST,LST =  5  1  1  1 NREC =         1 INTLOC =   56
 II,JST,KST,LST =  6  1  1  1 NREC =         1 INTLOC =  125
 II,JST,KST,LST =  7  1  1  1 NREC =         1 INTLOC =  329
 II,JST,KST,LST =  8  1  1  1 NREC =         1 INTLOC =  776
 II,JST,KST,LST =  9  1  1  1 NREC =         1 INTLOC = 2864
 II,JST,KST,LST = 10  1  1  1 NREC =         1 INTLOC = 5002
 II,JST,KST,LST = 11  1  1  1 NREC =         1 INTLOC = 7672
 II,JST,KST,LST = 12  1  1  1 NREC =         1 INTLOC =10790
 II,JST,KST,LST = 13  1  1  1 NREC =         2 INTLOC = 6728
 II,JST,KST,LST = 14  1  1  1 NREC =         3 INTLOC = 7003
 II,JST,KST,LST = 15  1  1  1 NREC =         6 INTLOC = 9057
 II,JST,KST,LST = 16  1  1  1 NREC =         7 INTLOC = 2910
 II,JST,KST,LST = 17  1  1  1 NREC =         8 INTLOC =  210
 II,JST,KST,LST = 18  1  1  1 NREC =         8 INTLOC =13798
 II,JST,KST,LST = 19  1  1  1 NREC =        11 INTLOC =10991
 II,JST,KST,LST = 20  1  1  1 NREC =        15 INTLOC = 3775
 TOTAL NUMBER OF NONZERO TWO-ELECTRON INTEGRALS =              351119
         24 INTEGRAL RECORDS WERE STORED ON DISK FILE  8.
  ...... END OF TWO-ELECTRON INTEGRALS .....
 STEP CPU TIME =     0.11 TOTAL CPU TIME =          0.2 (      0.0 MIN)
 TOTAL WALL CLOCK TIME=          0.2 SECONDS, CPU UTILIZATION IS   100.00%

          --------------------------
               R-PBE SCF CALCULATION
          --------------------------

     NUCLEAR ENERGY =       115.6604238872
     MAXIT =   30     NPUNCH=    2
     EXTRAP=T  DAMP=F  SHIFT=F  RSTRCT=F  DIIS=T  DEM=F  SOSCF=F
         DENSITY MATRIX CONVERGENCE THRESHOLD=  1.00E-05
     COARSE -> FINE DFT GRID SWITCH THRESHOLD=  3.00E-04 (SWITCH IN $DFT)
                   HF -> DFT SWITCH THRESHOLD=  5.00E-03 (SWOFF IN $DFT)
     MEMORY REQUIRED FOR RHF ITERS=    183108 WORDS.

 DFT CODE IS SWITCHING FROM THE FINE GRID NRAD= 96,  NLEB=  302
                      TO THE COARSE GRID NRAD0= 24, NLEB0=  110

     EXCHANGE FUNCTIONAL   =PBE       
     CORRELATION FUNCTIONAL=PBE       
     DFT THRESHOLD         =.460E-07
     GRID CHANGE THRESHOLD =.300E-03
 FOR AN EULER-MACLAURIN QUADRATURE USING  96 RADIAL POINTS:
 SMALLEST GAUSSIAN PRIMITIVE EXPONENT=        0.1001940000 OF TYPE -P-
 ON ATOM NUMBER   1 HAS RADIAL NORMALIZATION=  1.000000
  LARGEST GAUSSIAN PRIMITIVE EXPONENT=    49299.4000000000 OF TYPE -S-
 ON ATOM NUMBER   1 HAS RADIAL NORMALIZATION=  1.000000
 DFT IS SWITCHED OFF, PERFORMING PURE SCF UNTIL SWOFF THRESHOLD IS REACHED.

 ITER EX DEM     TOTAL ENERGY        E CHANGE  DENSITY CHANGE    DIIS ERROR
   1  0  0     -546.0181715885  -546.0181715885   0.581268840   0.872785802
          * * *   INITIATING DIIS PROCEDURE   * * *
   2  1  0     -546.9426693036    -0.9244977151   0.352253628   0.209071257
   3  2  0     -547.0280755318    -0.0854062282   0.123586688   0.125070745
   4  3  0     -547.0816579927    -0.0535824609   0.017433116   0.012798323
   5  4  0     -547.0824334118    -0.0007754191   0.011013464   0.003691752
   6  5  0     -547.0825221531    -0.0000887414   0.002085151   0.000910045
 CONVERGED TO SWOFF, SO DFT CALCULATION IS NOW SWITCHED ON.
          * * *   INITIATING DIIS PROCEDURE   * * *
   7  6  0     -548.1637251881    -1.0812030350   0.254841170   0.088883267
   8  7  0     -548.1786158262    -0.0148906381   0.201008915   0.063802639
   9  8  0     -548.1756613098     0.0029545164   0.080715049   0.062084958
  10  9  0     -548.1915512292    -0.0158899193   0.016459549   0.007470339
  11 10  0     -548.1917920554    -0.0002408262   0.000667696   0.000671183
  12 11  0     -548.1917930528    -0.0000009974   0.000255591   0.000136440
 DFT CODE IS SWITCHING BACK TO THE FINE GRID
          * * *   INITIATING DIIS PROCEDURE   * * *
  13 12  0     -548.1892956242     0.0024974286   0.010463905   0.010155962
  14 13  0     -548.1894392558    -0.0001436316   0.002878366   0.000383710
  15 14  0     -548.1894397926    -0.0000005368   0.000930457   0.000311430
  16 15  0     -548.1894399813    -0.0000001887   0.000308556   0.000262391
  17 16  0     -548.1894402519    -0.0000002706   0.000072717   0.000043859
  18 17  0     -548.1894402512     0.0000000007   0.000042968   0.000051792
  19 18  0     -548.1894402579    -0.0000000067   0.000005823   0.000002772
  20 19  0     -548.1894402579    -0.0000000000   0.000000375   0.000000486

          -----------------
          DENSITY CONVERGED
          -----------------
     TIME TO FORM FOCK OPERATORS=       2.3 SECONDS (       0.1 SEC/ITER)
     TIME TO SOLVE SCF EQUATIONS=       0.0 SECONDS (       0.0 SEC/ITER)

 FINAL R-PBE ENERGY IS     -548.1894402579 AFTER  20 ITERATIONS
 DFT EXCHANGE + CORRELATION ENERGY =       -42.7167046184
 TOTAL ELECTRON NUMBER             =        32.0000004655

          ------------
          EIGENVECTORS
          ------------

                      1          2          3          4          5
                  -88.2062   -18.7776   -18.7776    -7.8323    -5.8579
                     A          A          A          A          A   
    1  S  1  S    0.997741  -0.000000  -0.000056  -0.308308  -0.000000
    2  S  1  S    0.008404   0.000002   0.000416   1.031245   0.000000
    3  S  1  S   -0.003745   0.000001   0.000336   0.028884  -0.000000
    4  S  1  S    0.000396   0.000037   0.008658  -0.005528  -0.000000
    5  S  1  X   -0.000000  -0.000244   0.000001  -0.000000   0.993953
    6  S  1  Y    0.000204  -0.000000  -0.000038   0.011767  -0.000001
    7  S  1  Z    0.000000   0.000000   0.000000   0.000000   0.000000
    8  S  1  X    0.000000  -0.000248   0.000001   0.000000   0.018915
    9  S  1  Y   -0.000857   0.000006   0.001337   0.001699  -0.000000
   10  S  1  Z    0.000000   0.000000   0.000000   0.000000   0.000000
   11  S  1  X    0.000000  -0.003307   0.000014   0.000000  -0.002519
   12  S  1  Y   -0.000046   0.000015   0.003567  -0.000227  -0.000000
   13  S  1  Z    0.000000   0.000000   0.000000   0.000000   0.000000
   14  S  1 XX   -0.000362  -0.000001  -0.000345   0.000715  -0.000000
   15  S  1 YY    0.000020   0.000001   0.000260  -0.000232  -0.000000
   16  S  1 ZZ    0.000343   0.000000   0.000085  -0.000483   0.000000
   17  S  1 XY    0.000000   0.001457  -0.000006   0.000000   0.001995
   18  S  1 XZ    0.000000   0.000000   0.000000   0.000000   0.000000
   19  S  1 YZ    0.000000   0.000000   0.000000   0.000000   0.000000
   20  O  2  S   -0.000029  -0.699220   0.705256  -0.000391  -0.000922
   21  O  2  S   -0.000141  -0.024112   0.024369  -0.000065   0.000814
   22  O  2  S    0.000949   0.010538  -0.013028  -0.000588  -0.001757
   23  O  2  X   -0.000168   0.001297  -0.000951  -0.000303  -0.001328
   24  O  2  Y   -0.000108   0.000921  -0.000639  -0.000218  -0.001060
   25  O  2  Z    0.000000   0.000000   0.000000   0.000000   0.000000
   26  O  2  X   -0.000611  -0.001473   0.002472   0.000904   0.001140
   27  O  2  Y   -0.000456  -0.001402   0.001089   0.000721   0.001042
   28  O  2  Z    0.000000   0.000000   0.000000   0.000000   0.000000
   29  O  2 XX    0.000161  -0.000001  -0.000044   0.000474   0.000586
   30  O  2 YY    0.000011   0.000085   0.000087  -0.000036   0.000195
   31  O  2 ZZ   -0.000172  -0.000084  -0.000043  -0.000438  -0.000781
   32  O  2 XY    0.000274  -0.000153  -0.000135   0.000725   0.001296
   33  O  2 XZ    0.000000   0.000000   0.000000   0.000000   0.000000
   34  O  2 YZ    0.000000   0.000000   0.000000   0.000000   0.000000
   35  O  3  S   -0.000029   0.705219   0.699257  -0.000391   0.000922
   36  O  3  S   -0.000141   0.024319   0.024163  -0.000065  -0.000814
   37  O  3  S    0.000949  -0.010648  -0.012938  -0.000588   0.001757
   38  O  3  X    0.000168   0.001305   0.000940   0.000303  -0.001328
   39  O  3  Y   -0.000108  -0.000927  -0.000631  -0.000218   0.001060
   40  O  3  Z    0.000000   0.000000   0.000000   0.000000   0.000000
   41  O  3  X    0.000611  -0.001494  -0.002460  -0.000904   0.001140
   42  O  3  Y   -0.000456   0.001412   0.001077   0.000721  -0.001042
   43  O  3  Z    0.000000   0.000000   0.000000   0.000000   0.000000
   44  O  3 XX    0.000161   0.000000  -0.000044   0.000474  -0.000586
   45  O  3 YY    0.000011  -0.000084   0.000088  -0.000036  -0.000195
   46  O  3 ZZ   -0.000172   0.000084  -0.000043  -0.000438   0.000781
   47  O  3 XY   -0.000274  -0.000152   0.000136  -0.000725   0.001296
   48  O  3 XZ    0.000000   0.000000   0.000000   0.000000   0.000000
   49  O  3 YZ    0.000000   0.000000   0.000000   0.000000   0.000000

                      6          7          8          9         10
                   -5.8567    -5.8505    -1.1170    -0.9948    -0.5592
                     A          A          A          A          A   
    1  S  1  S    0.000000   0.003832   0.055027   0.000000   0.061950
    2  S  1  S    0.000000  -0.013307  -0.333322   0.000000  -0.396973
    3  S  1  S    0.000000   0.000560   0.454829  -0.000001   0.617747
    4  S  1  S    0.000000   0.002149   0.053796  -0.000006   0.217725
    5  S  1  X    0.000000   0.000001  -0.000000  -0.160107   0.000000
    6  S  1  Y    0.000000   0.994410  -0.086227   0.000000   0.087782
    7  S  1  Z    0.994752   0.000000   0.000000   0.000000   0.000000
    8  S  1  X    0.000000   0.000000   0.000002   0.352611  -0.000001
    9  S  1  Y    0.000000   0.017269   0.176422  -0.000002  -0.217082
   10  S  1  Z    0.016604   0.000000   0.000000   0.000000   0.000000
   11  S  1  X    0.000000   0.000000   0.000002  -0.015979  -0.000001
   12  S  1  Y    0.000000  -0.002316  -0.020217  -0.000002  -0.067497
   13  S  1  Z   -0.003088   0.000000   0.000000   0.000000   0.000000
   14  S  1 XX    0.000000  -0.000389   0.042176  -0.000001   0.003721
   15  S  1 YY    0.000000   0.001266   0.001987  -0.000000  -0.028623
   16  S  1 ZZ    0.000000  -0.000877  -0.044164   0.000001   0.024902
   17  S  1 XY    0.000000   0.000000   0.000001   0.108007  -0.000000
   18  S  1 XZ   -0.000000   0.000000   0.000000   0.000000   0.000000
   19  S  1 YZ    0.000935   0.000000   0.000000   0.000000   0.000000
   20  O  2  S    0.000000  -0.000644  -0.133439  -0.160021   0.102704
   21  O  2  S    0.000000   0.000863   0.268600   0.325705  -0.218640
   22  O  2  S    0.000000  -0.001519   0.193551   0.240518  -0.291088
   23  O  2  X    0.000000  -0.001160  -0.118171  -0.096352  -0.096445
   24  O  2  Y    0.000000  -0.000731  -0.072073  -0.084714  -0.159891
   25  O  2  Z    0.000115   0.000000   0.000000   0.000000   0.000000
   26  O  2  X    0.000000   0.001070  -0.018451  -0.002806  -0.047064
   27  O  2  Y    0.000000   0.000083  -0.011965  -0.004663  -0.074342
   28  O  2  Z   -0.000412   0.000000   0.000000   0.000000   0.000000
   29  O  2 XX    0.000000   0.000629   0.008849   0.002860   0.000149
   30  O  2 YY    0.000000  -0.000061  -0.002025   0.001428   0.005404
   31  O  2 ZZ    0.000000  -0.000568  -0.006824  -0.004288  -0.005553
   32  O  2 XY    0.000000   0.000966   0.014073   0.010293   0.010382
   33  O  2 XZ   -0.000139   0.000000   0.000000   0.000000   0.000000
   34  O  2 YZ   -0.000143   0.000000   0.000000   0.000000   0.000000
   35  O  3  S    0.000000  -0.000644  -0.133440   0.160021   0.102705
   36  O  3  S    0.000000   0.000863   0.268599  -0.325707  -0.218641
   37  O  3  S    0.000000  -0.001519   0.193558  -0.240507  -0.291091
   38  O  3  X    0.000000   0.001160   0.118171  -0.096352   0.096446
   39  O  3  Y    0.000000  -0.000731  -0.072073   0.084714  -0.159892
   40  O  3  Z    0.000115   0.000000   0.000000   0.000000   0.000000
   41  O  3  X    0.000000  -0.001070   0.018453  -0.002802   0.047064
   42  O  3  Y    0.000000   0.000083  -0.011967   0.004662  -0.074341
   43  O  3  Z   -0.000412   0.000000   0.000000   0.000000   0.000000
   44  O  3 XX    0.000000   0.000629   0.008850  -0.002859   0.000149
   45  O  3 YY    0.000000  -0.000061  -0.002025  -0.001428   0.005404
   46  O  3 ZZ    0.000000  -0.000568  -0.006825   0.004288  -0.005553
   47  O  3 XY    0.000000  -0.000966  -0.014073   0.010292  -0.010382
   48  O  3 XZ    0.000139   0.000000   0.000000   0.000000   0.000000
   49  O  3 YZ   -0.000143   0.000000   0.000000   0.000000   0.000000

                     11         12         13         14         15
                   -0.4807    -0.4597    -0.4369    -0.3405    -0.2999
                     A          A          A          A          A   
    1  S  1  S    0.000000   0.000564   0.000000   0.000000   0.000000
    2  S  1  S    0.000000  -0.004509  -0.000000   0.000000  -0.000002
    3  S  1  S    0.000000   0.041652   0.000000   0.000000   0.000002
    4  S  1  S    0.000000  -0.133011   0.000000   0.000000   0.000014
    5  S  1  X    0.000000  -0.000000  -0.171667   0.000000  -0.008661
    6  S  1  Y    0.000000  -0.180778   0.000000   0.000000   0.000002
    7  S  1  Z   -0.213920   0.000000   0.000000  -0.000000   0.000000
    8  S  1  X    0.000000   0.000001   0.464178   0.000000   0.018653
    9  S  1  Y    0.000000   0.476305  -0.000001   0.000000  -0.000004
   10  S  1  Z    0.561952   0.000000   0.000000   0.000001   0.000000
   11  S  1  X    0.000000   0.000000  -0.017517   0.000000   0.128038
   12  S  1  Y    0.000000   0.038537  -0.000000   0.000000   0.000002
   13  S  1  Z    0.096461   0.000000   0.000000   0.000000   0.000000
   14  S  1 XX    0.000000  -0.072746  -0.000000   0.000000  -0.000002
   15  S  1 YY    0.000000   0.087195  -0.000000   0.000000   0.000001
   16  S  1 ZZ    0.000000  -0.014449   0.000000   0.000000   0.000000
   17  S  1 XY    0.000000   0.000000   0.046054   0.000000  -0.138219
   18  S  1 XZ   -0.000000   0.000000   0.000000   0.148612   0.000000
   19  S  1 YZ    0.068743   0.000000   0.000000  -0.000000   0.000000
   20  O  2  S    0.000000   0.053270   0.077150   0.000000   0.004475
   21  O  2  S    0.000000  -0.110063  -0.159561   0.000000  -0.010987
   22  O  2  S    0.000000  -0.187220  -0.300405   0.000000  -0.022328
   23  O  2  X    0.000000  -0.330208  -0.235556   0.000000   0.396489
   24  O  2  Y    0.000000   0.108154  -0.299189   0.000000  -0.269305
   25  O  2  Z    0.312960   0.000000   0.000000   0.464014   0.000000
   26  O  2  X    0.000000  -0.169817  -0.094568   0.000000   0.243720
   27  O  2  Y    0.000000   0.075827  -0.144129   0.000000  -0.201157
   28  O  2  Z    0.172327   0.000000   0.000000   0.321196   0.000000
   29  O  2 XX    0.000000   0.020787   0.000889   0.000000  -0.023059
   30  O  2 YY    0.000000  -0.014299   0.008932   0.000000   0.022423
   31  O  2 ZZ    0.000000  -0.006488  -0.009821   0.000000   0.000636
   32  O  2 XY    0.000000   0.002588   0.015808   0.000000   0.003751
   33  O  2 XZ   -0.021336   0.000000   0.000000  -0.019138   0.000000
   34  O  2 YZ   -0.014254   0.000000   0.000000  -0.015322   0.000000
   35  O  3  S    0.000000   0.053270  -0.077149   0.000000  -0.004474
   36  O  3  S    0.000000  -0.110064   0.159560   0.000000   0.010988
   37  O  3  S    0.000000  -0.187219   0.300405   0.000000   0.022319
   38  O  3  X    0.000000   0.330209  -0.235556   0.000000   0.396487
   39  O  3  Y    0.000000   0.108155   0.299189   0.000000   0.269317
   40  O  3  Z    0.312961   0.000000   0.000000  -0.464014   0.000000
   41  O  3  X    0.000000   0.169818  -0.094567   0.000000   0.243716
   42  O  3  Y    0.000000   0.075827   0.144129   0.000000   0.201166
   43  O  3  Z    0.172327   0.000000   0.000000  -0.321195   0.000000
   44  O  3 XX    0.000000   0.020787  -0.000889   0.000000   0.023059
   45  O  3 YY    0.000000  -0.014299  -0.008932   0.000000  -0.022424
   46  O  3 ZZ    0.000000  -0.006488   0.009821   0.000000  -0.000636
   47  O  3 XY    0.000000  -0.002588   0.015808   0.000000   0.003752
   48  O  3 XZ    0.021336   0.000000   0.000000  -0.019138   0.000000
   49  O  3 YZ   -0.014254   0.000000   0.000000   0.015322   0.000000

                     16         17         18         19         20
                   -0.2930    -0.1327     0.0472     0.0723     0.1987
                     A          A          A          A          A   
    1  S  1  S    0.021484   0.000000  -0.000000   0.017669   0.000000
    2  S  1  S   -0.140715   0.000000   0.000003  -0.119942   0.000000
    3  S  1  S    0.166629   0.000000  -0.000003   0.062509   0.000000
    4  S  1  S    0.494466   0.000000  -0.000028   1.177234   0.000000
    5  S  1  X    0.000000   0.000000  -0.128940  -0.000004   0.000000
    6  S  1  Y    0.134406   0.000000   0.000002  -0.091320   0.000000
    7  S  1  Z    0.000000  -0.225853   0.000000   0.000000   0.249891
    8  S  1  X   -0.000001   0.000000   0.399559   0.000013   0.000000
    9  S  1  Y   -0.363599   0.000000  -0.000010   0.319261   0.000000
   10  S  1  Z    0.000000   0.688496   0.000000   0.000000  -0.975593
   11  S  1  X   -0.000002   0.000000   1.133575   0.000020   0.000000
   12  S  1  Y   -0.052122   0.000000  -0.000023   1.146883   0.000000
   13  S  1  Z    0.000000   0.418017   0.000000   0.000000   1.286153
   14  S  1 XX   -0.163330   0.000000   0.000002  -0.119006   0.000000
   15  S  1 YY    0.096302   0.000000   0.000002  -0.140277   0.000000
   16  S  1 ZZ    0.067028   0.000000  -0.000004   0.259283   0.000000
   17  S  1 XY    0.000002   0.000000  -0.236899  -0.000005   0.000000
   18  S  1 XZ    0.000000  -0.000000   0.000000   0.000000   0.000000
   19  S  1 YZ    0.000000  -0.111061   0.000000   0.000000  -0.084042
   20  O  2  S    0.005676   0.000000   0.052456   0.065398   0.000000
   21  O  2  S   -0.015068   0.000000  -0.094591  -0.110910   0.000000
   22  O  2  S   -0.040822   0.000000  -0.533797  -0.728042   0.000000
   23  O  2  X    0.026036   0.000000  -0.034319   0.202429   0.000000
   24  O  2  Y    0.401936   0.000000   0.257335  -0.021906   0.000000
   25  O  2  Z    0.000000  -0.369110   0.000000   0.000000   0.005517
   26  O  2  X   -0.008146   0.000000  -0.073998   0.331033   0.000000
   27  O  2  Y    0.282879   0.000000   0.256806  -0.061470   0.000000
   28  O  2  Z    0.000000  -0.352271   0.000000   0.000000  -0.088630
   29  O  2 XX    0.002386   0.000000   0.002532  -0.006703   0.000000
   30  O  2 YY   -0.007669   0.000000   0.001030  -0.006230   0.000000
   31  O  2 ZZ    0.005283   0.000000  -0.003562   0.012933   0.000000
   32  O  2 XY   -0.013427   0.000000   0.000342  -0.001371   0.000000
   33  O  2 XZ    0.000000   0.004026   0.000000   0.000000   0.022549
   34  O  2 YZ    0.000000  -0.001042   0.000000   0.000000   0.012415
   35  O  3  S    0.005677   0.000000  -0.052458   0.065397   0.000000
   36  O  3  S   -0.015069   0.000000   0.094591  -0.110910   0.000000
   37  O  3  S   -0.040823   0.000000   0.533836  -0.728016   0.000000
   38  O  3  X   -0.026048   0.000000  -0.034312  -0.202433   0.000000
   39  O  3  Y    0.401927   0.000000  -0.257335  -0.021918   0.000000
   40  O  3  Z    0.000000  -0.369110   0.000000   0.000000   0.005517
   41  O  3  X    0.008139   0.000000  -0.073979  -0.331029   0.000000
   42  O  3  Y    0.282873   0.000000  -0.256806  -0.061483   0.000000
   43  O  3  Z    0.000000  -0.352271   0.000000   0.000000  -0.088630
   44  O  3 XX    0.002386   0.000000  -0.002531  -0.006703   0.000000
   45  O  3 YY   -0.007668   0.000000  -0.001030  -0.006230   0.000000
   46  O  3 ZZ    0.005283   0.000000   0.003561   0.012933   0.000000
   47  O  3 XY    0.013427   0.000000   0.000341   0.001371   0.000000
   48  O  3 XZ    0.000000  -0.004026   0.000000   0.000000  -0.022549
   49  O  3 YZ    0.000000  -0.001042   0.000000   0.000000   0.012415

                     21         22         23         24         25
                    0.2307     0.3300     0.3356     0.5578     0.5933
                     A          A          A          A          A   
    1  S  1  S   -0.042838   0.000000  -0.055850   0.000000   0.000000
    2  S  1  S    0.312848  -0.000001   0.405350   0.000000   0.000000
    3  S  1  S   -1.171286   0.000001  -1.417154   0.000000   0.000000
    4  S  1  S    1.600656  -0.000010   1.593520   0.000000   0.000000
    5  S  1  X   -0.000001   0.264115   0.000000   0.000000   0.000000
    6  S  1  Y   -0.226809  -0.000001   0.167681   0.000000   0.000000
    7  S  1  Z    0.000000   0.000000   0.000000   0.009888  -0.000000
    8  S  1  X    0.000004  -0.976279   0.000003   0.000000   0.000000
    9  S  1  Y    0.914058   0.000001  -0.598804   0.000000   0.000000
   10  S  1  Z    0.000000   0.000000   0.000000  -0.064075   0.000000
   11  S  1  X   -0.000001   1.217499   0.000007   0.000000   0.000000
   12  S  1  Y   -0.686611  -0.000005   0.809068   0.000000   0.000000
   13  S  1  Z    0.000000   0.000000   0.000000   0.177259   0.000000
   14  S  1 XX   -0.101020  -0.000003   0.354215   0.000000   0.000000
   15  S  1 YY   -0.002138  -0.000001  -0.003924   0.000000   0.000000
   16  S  1 ZZ    0.103159   0.000005  -0.350292   0.000000   0.000000
   17  S  1 XY   -0.000000   0.453448   0.000006   0.000000   0.000000
   18  S  1 XZ    0.000000   0.000000   0.000000  -0.000001   0.966752
   19  S  1 YZ    0.000000   0.000000   0.000000   0.944186   0.000001
   20  O  2  S    0.020241   0.000346   0.000457   0.000000   0.000000
   21  O  2  S   -0.050170   0.062745   0.066394   0.000000   0.000000
   22  O  2  S   -0.262185  -0.389276  -0.496204   0.000000   0.000000
   23  O  2  X    0.031098  -0.186838  -0.279218   0.000000   0.000000
   24  O  2  Y   -0.041625  -0.178460  -0.147717   0.000000   0.000000
   25  O  2  Z    0.000000   0.000000   0.000000  -0.300506  -0.315585
   26  O  2  X    0.143651  -0.025056  -0.007402   0.000000   0.000000
   27  O  2  Y    0.088804  -0.030452   0.026558   0.000000   0.000000
   28  O  2  Z    0.000000   0.000000   0.000000   0.008217  -0.051887
   29  O  2 XX    0.007492  -0.002963  -0.043162   0.000000   0.000000
   30  O  2 YY   -0.018085  -0.022546   0.022987   0.000000   0.000000
   31  O  2 ZZ    0.010593   0.025510   0.020175   0.000000   0.000000
   32  O  2 XY   -0.015749  -0.040009  -0.035856   0.000000   0.000000
   33  O  2 XZ    0.000000   0.000000   0.000000  -0.046864  -0.024650
   34  O  2 YZ    0.000000   0.000000   0.000000   0.015637  -0.052653
   35  O  3  S    0.020241  -0.000346   0.000457   0.000000   0.000000
   36  O  3  S   -0.050172  -0.062751   0.066388   0.000000   0.000000
   37  O  3  S   -0.262181   0.389291  -0.496184   0.000000   0.000000
   38  O  3  X   -0.031099  -0.186844   0.279214   0.000000   0.000000
   39  O  3  Y   -0.041626   0.178461  -0.147715   0.000000   0.000000
   40  O  3  Z    0.000000   0.000000   0.000000  -0.300507   0.315585
   41  O  3  X   -0.143647  -0.025049   0.007414   0.000000   0.000000
   42  O  3  Y    0.088802   0.030447   0.026551   0.000000   0.000000
   43  O  3  Z    0.000000   0.000000   0.000000   0.008217   0.051887
   44  O  3 XX    0.007492   0.002964  -0.043161   0.000000   0.000000
   45  O  3 YY   -0.018085   0.022546   0.022987   0.000000   0.000000
   46  O  3 ZZ    0.010593  -0.025510   0.020174   0.000000   0.000000
   47  O  3 XY    0.015749  -0.040010   0.035855   0.000000   0.000000
   48  O  3 XZ    0.000000   0.000000   0.000000   0.046865  -0.024650
   49  O  3 YZ    0.000000   0.000000   0.000000   0.015637   0.052653

                     26         27         28         29         30
                    0.5988     0.6498     0.6559     0.7675     0.7760
                     A          A          A          A          A   
    1  S  1  S    0.022826   0.020098  -0.000001   0.010171   0.000000
    2  S  1  S   -0.179216  -0.164668   0.000007  -0.081537   0.000000
    3  S  1  S    0.798582   0.908387  -0.000041   0.434526   0.000000
    4  S  1  S    0.640328   0.550898  -0.000036  -0.043884   0.000000
    5  S  1  X   -0.000001  -0.000009  -0.201611  -0.000000   0.000000
    6  S  1  Y   -0.101561  -0.090252   0.000004  -0.031914   0.000000
    7  S  1  Z    0.000000   0.000000   0.000000   0.000000  -0.000000
    8  S  1  X    0.000008   0.000056   1.222339   0.000001   0.000000
    9  S  1  Y    0.560364   0.598016  -0.000029   0.137422   0.000000
   10  S  1  Z    0.000000   0.000000   0.000000   0.000000  -0.000000
   11  S  1  X    0.000002  -0.000000  -0.049665  -0.000001   0.000000
   12  S  1  Y    0.196265  -0.055060  -0.000001  -0.616014   0.000000
   13  S  1  Z    0.000000   0.000000   0.000000   0.000000  -0.000001
   14  S  1 XX   -0.065574   0.548319  -0.000024   0.426520   0.000000
   15  S  1 YY    0.733609  -0.515612   0.000019  -0.491573   0.000000
   16  S  1 ZZ   -0.668035  -0.032707   0.000004   0.065052   0.000000
   17  S  1 XY    0.000003   0.000020   0.430156   0.000001   0.000000
   18  S  1 XZ    0.000000   0.000000   0.000000   0.000000   0.348668
   19  S  1 YZ    0.000000   0.000000   0.000000   0.000000  -0.000001
   20  O  2  S    0.052494   0.034447   0.064225   0.005445   0.000000
   21  O  2  S   -0.139839  -0.022769  -0.144737   0.014080   0.000000
   22  O  2  S   -0.510583  -0.526681  -0.630006  -0.041744   0.000000
   23  O  2  X    0.017132  -0.392672  -0.155475   0.281172   0.000000
   24  O  2  Y   -0.241468   0.175151  -0.238223  -0.425592   0.000000
   25  O  2  Z    0.000000   0.000000   0.000000   0.000000   0.580679
   26  O  2  X    0.657156   0.784460   0.979741  -0.253202   0.000000
   27  O  2  Y    0.379966   0.402731   0.796716   0.881426   0.000000
   28  O  2  Z    0.000000   0.000000   0.000000   0.000000  -0.845211
   29  O  2 XX    0.044281  -0.027358  -0.000164  -0.020756   0.000000
   30  O  2 YY   -0.018097   0.023057   0.007109   0.033640   0.000000
   31  O  2 ZZ   -0.026184   0.004301  -0.006945  -0.012883   0.000000
   32  O  2 XY   -0.021888   0.035056   0.011929   0.020932   0.000000
   33  O  2 XZ    0.000000   0.000000   0.000000   0.000000  -0.040943
   34  O  2 YZ    0.000000   0.000000   0.000000   0.000000  -0.025057
   35  O  3  S    0.052494   0.034441  -0.064229   0.005444   0.000000
   36  O  3  S   -0.139842  -0.022760   0.144741   0.014081   0.000000
   37  O  3  S   -0.510567  -0.526618   0.630062  -0.041743   0.000000
   38  O  3  X   -0.017139   0.392652  -0.155515  -0.281172   0.000000
   39  O  3  Y   -0.241467   0.175171   0.238215  -0.425591   0.000000
   40  O  3  Z    0.000000   0.000000   0.000000   0.000000  -0.580681
   41  O  3  X   -0.657137  -0.784364   0.979823   0.253204   0.000000
   42  O  3  Y    0.379956   0.402660  -0.796761   0.881425   0.000000
   43  O  3  Z    0.000000   0.000000   0.000000   0.000000   0.845214
   44  O  3 XX    0.044281  -0.027358   0.000166  -0.020756   0.000000
   45  O  3 YY   -0.018097   0.023056  -0.007111   0.033640   0.000000
   46  O  3 ZZ   -0.026184   0.004302   0.006945  -0.012883   0.000000
   47  O  3 XY    0.021888  -0.035055   0.011932  -0.020932   0.000000
   48  O  3 XZ    0.000000   0.000000   0.000000   0.000000  -0.040943
   49  O  3 YZ    0.000000   0.000000   0.000000   0.000000   0.025057

                     31         32         33         34         35
                    0.8391     0.9129     1.0083     1.2705     1.4587
                     A          A          A          A          A   
    1  S  1  S    0.000000   0.000000   0.018722  -0.000000  -0.000001
    2  S  1  S    0.000000  -0.000001  -0.126046   0.000001   0.000007
    3  S  1  S    0.000000  -0.000001  -0.083476  -0.000000  -0.000026
    4  S  1  S    0.000000   0.000003   0.334738  -0.000026  -0.000332
    5  S  1  X    0.000000  -0.048536  -0.000000  -0.189863  -0.029276
    6  S  1  Y    0.000000  -0.000001  -0.118087   0.000001   0.000013
    7  S  1  Z    0.005781   0.000000   0.000000   0.000000   0.000000
    8  S  1  X    0.000000   0.241086   0.000002   0.873155  -0.232210
    9  S  1  Y    0.000000   0.000002   0.384616  -0.000008  -0.000093
   10  S  1  Z   -0.099445   0.000000   0.000000   0.000000   0.000000
   11  S  1  X    0.000000  -0.577571   0.000007   0.657229  -0.573930
   12  S  1  Y    0.000000   0.000001   0.050892  -0.000010  -0.000131
   13  S  1  Z   -0.697569   0.000000   0.000000   0.000000   0.000000
   14  S  1 XX    0.000000   0.000003   0.800075  -0.000005  -0.000029
   15  S  1 YY    0.000000   0.000000  -0.054238  -0.000001  -0.000019
   16  S  1 ZZ    0.000000  -0.000003  -0.745836   0.000007   0.000048
   17  S  1 XY    0.000000   0.187323   0.000001   1.006569   0.379131
   18  S  1 XZ   -0.000000   0.000000   0.000000   0.000000   0.000000
   19  S  1 YZ   -0.375817   0.000000   0.000000   0.000000   0.000000
   20  O  2  S    0.000000   0.005991   0.050147   0.004028   0.089981
   21  O  2  S    0.000000   0.003804  -0.342778   0.350345  -1.236400
   22  O  2  S    0.000000  -0.020011  -0.116724  -1.335019   1.569673
   23  O  2  X    0.000000  -0.341501   0.433049   0.542588   0.230781
   24  O  2  Y    0.000000   0.514036   0.417380   0.271698   0.159936
   25  O  2  Z   -0.579765   0.000000   0.000000   0.000000   0.000000
   26  O  2  X    0.000000   0.797556  -0.220397  -0.007399  -0.384646
   27  O  2  Y    0.000000  -0.644037  -0.181337   0.185876  -0.369121
   28  O  2  Z    0.980332   0.000000   0.000000   0.000000   0.000000
   29  O  2 XX    0.000000   0.065546  -0.005156   0.046218  -0.073303
   30  O  2 YY    0.000000  -0.037268   0.052585  -0.039852  -0.060713
   31  O  2 ZZ    0.000000  -0.028278  -0.047429  -0.006367   0.134016
   32  O  2 XY    0.000000  -0.018951  -0.025554   0.098008  -0.024651
   33  O  2 XZ    0.039754   0.000000   0.000000   0.000000   0.000000
   34  O  2 YZ    0.024110   0.000000   0.000000   0.000000   0.000000
   35  O  3  S    0.000000  -0.005991   0.050148  -0.004027  -0.089960
   36  O  3  S    0.000000  -0.003796  -0.342791  -0.350370   1.236007
   37  O  3  S    0.000000   0.019997  -0.116704   1.335073  -1.568912
   38  O  3  X    0.000000  -0.341509  -0.433041   0.542593   0.230813
   39  O  3  Y    0.000000  -0.514031   0.417382  -0.271703  -0.159964
   40  O  3  Z   -0.579763   0.000000   0.000000   0.000000   0.000000
   41  O  3  X    0.000000   0.797561   0.220388  -0.007391  -0.384482
   42  O  3  Y    0.000000   0.644033  -0.181343  -0.185878   0.369067
   43  O  3  Z    0.980330   0.000000   0.000000   0.000000   0.000000
   44  O  3 XX    0.000000  -0.065546  -0.005155  -0.046218   0.073285
   45  O  3 YY    0.000000   0.037268   0.052585   0.039851   0.060724
   46  O  3 ZZ    0.000000   0.028278  -0.047430   0.006367  -0.134009
   47  O  3 XY    0.000000  -0.018950   0.025554   0.098009  -0.024614
   48  O  3 XZ   -0.039754   0.000000   0.000000   0.000000   0.000000
   49  O  3 YZ    0.024110   0.000000   0.000000   0.000000   0.000000

                     36         37         38         39         40
                    1.4776     2.0558     2.0599     2.0960     2.1000
                     A          A          A          A          A   
    1  S  1  S   -0.004389   0.000000   0.000000   0.001539   0.000000
    2  S  1  S    0.045285   0.000000   0.000000  -0.009478  -0.000001
    3  S  1  S   -0.143717   0.000000   0.000000  -0.021777   0.000001
    4  S  1  S   -2.205790   0.000000   0.000000  -0.138023  -0.000009
    5  S  1  X    0.000006   0.000000   0.000000  -0.000000   0.002242
    6  S  1  Y    0.084493   0.000000   0.000000  -0.004571  -0.000000
    7  S  1  Z    0.000000  -0.000001  -0.024029   0.000000   0.000000
    8  S  1  X    0.000029   0.000000   0.000000  -0.000002   0.064604
    9  S  1  Y   -0.613887   0.000000   0.000000  -0.012201  -0.000001
   10  S  1  Z    0.000000   0.000003   0.105682   0.000000   0.000000
   11  S  1  X    0.000076   0.000000   0.000000  -0.000000  -0.003812
   12  S  1  Y   -0.866788   0.000000   0.000000  -0.072004  -0.000004
   13  S  1  Z    0.000000   0.000000   0.007803   0.000000   0.000000
   14  S  1 XX   -0.208635   0.000000   0.000000   0.085456   0.000003
   15  S  1 YY   -0.122361   0.000000   0.000000   0.100870   0.000004
   16  S  1 ZZ    0.330996   0.000000   0.000000  -0.186326  -0.000006
   17  S  1 XY   -0.000068   0.000000   0.000000   0.000008  -0.225246
   18  S  1 XZ    0.000000   0.034527  -0.000001   0.000000   0.000000
   19  S  1 YZ    0.000000  -0.000002  -0.050497   0.000000   0.000000
   20  O  2  S    0.064256   0.000000   0.000000   0.010448  -0.013882
   21  O  2  S   -1.260372   0.000000   0.000000  -0.147379   0.199749
   22  O  2  S    2.482105   0.000000   0.000000   0.182848  -0.182507
   23  O  2  X   -0.107198   0.000000   0.000000   0.060635  -0.101114
   24  O  2  Y   -0.096928   0.000000   0.000000   0.016107  -0.043325
   25  O  2  Z    0.000000   0.032115   0.033387   0.000000   0.000000
   26  O  2  X   -0.540485   0.000000   0.000000  -0.083379   0.119686
   27  O  2  Y   -0.173047   0.000000   0.000000  -0.012494   0.052231
   28  O  2  Z    0.000000  -0.052190  -0.053329   0.000000   0.000000
   29  O  2 XX   -0.062096   0.000000   0.000000  -0.222695  -0.091695
   30  O  2 YY    0.032996   0.000000   0.000000  -0.394863  -0.508857
   31  O  2 ZZ    0.029100   0.000000   0.000000   0.617557   0.600552
   32  O  2 XY   -0.126701   0.000000   0.000000   0.329184   0.270625
   33  O  2 XZ    0.000000   0.548533  -0.233518   0.000000   0.000000
   34  O  2 YZ    0.000000  -0.448070   0.669007   0.000000   0.000000
   35  O  3  S    0.064283   0.000000   0.000000   0.010447   0.013883
   36  O  3  S   -1.260744   0.000000   0.000000  -0.147364  -0.199763
   37  O  3  S    2.482558   0.000000   0.000000   0.182834   0.182526
   38  O  3  X    0.107115   0.000000   0.000000  -0.060628  -0.101118
   39  O  3  Y   -0.096876   0.000000   0.000000   0.016104   0.043326
   40  O  3  Z    0.000000  -0.032114   0.033389   0.000000   0.000000
   41  O  3  X    0.540611   0.000000   0.000000   0.083371   0.119693
   42  O  3  Y   -0.173153   0.000000   0.000000  -0.012490  -0.052232
   43  O  3  Z    0.000000   0.052187  -0.053332   0.000000   0.000000
   44  O  3 XX   -0.062120   0.000000   0.000000  -0.222702   0.091678
   45  O  3 YY    0.032977   0.000000   0.000000  -0.394899   0.508828
   46  O  3 ZZ    0.029144   0.000000   0.000000   0.617600  -0.600506
   47  O  3 XY    0.126705   0.000000   0.000000  -0.329204   0.270603
   48  O  3 XZ    0.000000   0.548547   0.233484   0.000000   0.000000
   49  O  3 YZ    0.000000   0.448111   0.668980   0.000000   0.000000

                     41         42         43         44         45
                    2.1593     2.3541     2.3570     2.6032     2.8515
                     A          A          A          A          A   
    1  S  1  S   -0.000000   0.000000   0.000000  -0.001689   0.040361
    2  S  1  S    0.000000   0.000000   0.000000   0.014123  -0.386062
    3  S  1  S   -0.000001   0.000000   0.000000  -0.068952   1.683771
    4  S  1  S    0.000003   0.000000   0.000000   0.083161   0.961980
    5  S  1  X   -0.044335   0.000000   0.000000   0.000000  -0.000000
    6  S  1  Y   -0.000000   0.000000   0.000000  -0.080007  -0.147919
    7  S  1  Z    0.000000  -0.000004  -0.092622   0.000000   0.000000
    8  S  1  X    0.167240   0.000000   0.000000  -0.000003   0.000001
    9  S  1  Y    0.000000   0.000000   0.000000   0.343851   1.152420
   10  S  1  Z    0.000000   0.000016   0.405053   0.000000   0.000000
   11  S  1  X    0.040070   0.000000   0.000000   0.000000   0.000002
   12  S  1  Y    0.000002   0.000000   0.000000   0.130773   0.119026
   13  S  1  Z    0.000000   0.000003   0.079156   0.000000   0.000000
   14  S  1 XX   -0.000000   0.000000   0.000000  -0.619154   0.464107
   15  S  1 YY    0.000000   0.000000   0.000000   0.620271  -0.007313
   16  S  1 ZZ   -0.000000   0.000000   0.000000  -0.001117  -0.456794
   17  S  1 XY   -0.208280   0.000000   0.000000  -0.000001   0.000002
   18  S  1 XZ    0.000000  -0.577041   0.000024   0.000000   0.000000
   19  S  1 YZ    0.000000   0.000018   0.431896   0.000000   0.000000
   20  O  2  S    0.003011   0.000000   0.000000  -0.000449   0.008617
   21  O  2  S   -0.035741   0.000000   0.000000   0.042474   0.504026
   22  O  2  S    0.060321   0.000000   0.000000  -0.075625  -1.569541
   23  O  2  X    0.068414   0.000000   0.000000   0.004561   0.102816
   24  O  2  Y   -0.091413   0.000000   0.000000  -0.026187   0.062804
   25  O  2  Z    0.000000  -0.027961   0.041812   0.000000   0.000000
   26  O  2  X   -0.182988   0.000000   0.000000   0.126414   0.729450
   27  O  2  Y    0.153143   0.000000   0.000000  -0.218575   0.513936
   28  O  2  Z    0.000000   0.203441  -0.231074   0.000000   0.000000
   29  O  2 XX    0.622910   0.000000   0.000000  -0.649866  -0.442675
   30  O  2 YY   -0.510088   0.000000   0.000000   0.670587  -0.001149
   31  O  2 ZZ   -0.112822   0.000000   0.000000  -0.020720   0.443823
   32  O  2 XY   -0.299729   0.000000   0.000000   0.282444  -0.714015
   33  O  2 XZ    0.000000  -0.498335   0.718762   0.000000   0.000000
   34  O  2 YZ    0.000000  -0.586412   0.264474   0.000000   0.000000
   35  O  3  S   -0.003011   0.000000   0.000000  -0.000449   0.008617
   36  O  3  S    0.035743   0.000000   0.000000   0.042475   0.504030
   37  O  3  S   -0.060326   0.000000   0.000000  -0.075631  -1.569542
   38  O  3  X    0.068413   0.000000   0.000000  -0.004561  -0.102814
   39  O  3  Y    0.091413   0.000000   0.000000  -0.026186   0.062803
   40  O  3  Z    0.000000   0.027965   0.041809   0.000000   0.000000
   41  O  3  X   -0.182989   0.000000   0.000000  -0.126417  -0.729453
   42  O  3  Y   -0.153143   0.000000   0.000000  -0.218573   0.513935
   43  O  3  Z    0.000000  -0.203460  -0.231057   0.000000   0.000000
   44  O  3 XX   -0.622909   0.000000   0.000000  -0.649868  -0.442676
   45  O  3 YY    0.510089   0.000000   0.000000   0.670586  -0.001148
   46  O  3 ZZ    0.112820   0.000000   0.000000  -0.020718   0.443824
   47  O  3 XY   -0.299730   0.000000   0.000000  -0.282440   0.714013
   48  O  3 XZ    0.000000  -0.498394  -0.718721   0.000000   0.000000
   49  O  3 YZ    0.000000   0.586433   0.264427   0.000000   0.000000

                     46
                    2.9530
                     A   
    1  S  1  S   -0.000000
    2  S  1  S    0.000000
    3  S  1  S    0.000000
    4  S  1  S   -0.000003
    5  S  1  X   -0.256530
    6  S  1  Y    0.000000
    7  S  1  Z    0.000000
    8  S  1  X    1.893505
    9  S  1  Y   -0.000000
   10  S  1  Z    0.000000
   11  S  1  X    0.124461
   12  S  1  Y   -0.000001
   13  S  1  Z    0.000000
   14  S  1 XX   -0.000003
   15  S  1 YY    0.000001
   16  S  1 ZZ    0.000001
   17  S  1 XY    0.891359
   18  S  1 XZ    0.000000
   19  S  1 YZ    0.000000
   20  O  2  S    0.016973
   21  O  2  S    0.433930
   22  O  2  S   -1.641815
   23  O  2  X    0.166916
   24  O  2  Y    0.133449
   25  O  2  Z    0.000000
   26  O  2  X    0.850595
   27  O  2  Y    0.567673
   28  O  2  Z    0.000000
   29  O  2 XX   -0.471944
   30  O  2 YY    0.027352
   31  O  2 ZZ    0.444592
   32  O  2 XY   -0.759923
   33  O  2 XZ    0.000000
   34  O  2 YZ    0.000000
   35  O  3  S   -0.016973
   36  O  3  S   -0.433930
   37  O  3  S    1.641819
   38  O  3  X    0.166917
   39  O  3  Y   -0.133449
   40  O  3  Z    0.000000
   41  O  3  X    0.850595
   42  O  3  Y   -0.567675
   43  O  3  Z    0.000000
   44  O  3 XX    0.471942
   45  O  3 YY   -0.027349
   46  O  3 ZZ   -0.444593
   47  O  3 XY   -0.759924
   48  O  3 XZ    0.000000
   49  O  3 YZ    0.000000
 ...... END OF RHF CALCULATION ......
 STEP CPU TIME =     2.31 TOTAL CPU TIME =          2.5 (      0.0 MIN)
 TOTAL WALL CLOCK TIME=          2.5 SECONDS, CPU UTILIZATION IS    98.01%

     ---------------------------------------------------------------------
     PROPERTIES FOR THE PBE      DFT FUNCTIONAL (RHF  TYPE) DENSITY MATRIX
     ---------------------------------------------------------------------

          -----------------
          ENERGY COMPONENTS
          -----------------

         WAVEFUNCTION NORMALIZATION =       1.0000000000

                ONE ELECTRON ENERGY =    -985.0964161154
                TWO ELECTRON ENERGY =     321.2465519703
           NUCLEAR REPULSION ENERGY =     115.6604238872
                                      ------------------
                       TOTAL ENERGY =    -548.1894402579

 ELECTRON-ELECTRON POTENTIAL ENERGY =     321.2465519703
  NUCLEUS-ELECTRON POTENTIAL ENERGY =   -1533.5533513923
   NUCLEUS-NUCLEUS POTENTIAL ENERGY =     115.6604238872
                                      ------------------
             TOTAL POTENTIAL ENERGY =   -1096.6463755348
               TOTAL KINETIC ENERGY =     548.4569352769
                 VIRIAL RATIO (V/T) =       1.9995122771

          ---------------------------------------
          MULLIKEN AND LOWDIN POPULATION ANALYSES
          ---------------------------------------

     ATOMIC MULLIKEN POPULATION IN EACH MOLECULAR ORBITAL

                      1          2          3          4          5

                  2.000000   2.000000   2.000000   2.000000   2.000000

    1             1.999862   0.000353   0.001692   2.001005   2.000080
    2             0.000069   0.991285   1.007692  -0.000502  -0.000040
    3             0.000069   1.008362   0.990616  -0.000502  -0.000040

                      6          7          8          9         10

                  2.000000   2.000000   2.000000   2.000000   2.000000

    1             2.000051   2.000058   0.793114   0.559787   1.005328
    2            -0.000026  -0.000029   0.603437   0.720113   0.497334
    3            -0.000026  -0.000029   0.603449   0.720100   0.497338

                     11         12         13         14         15

                  2.000000   2.000000   2.000000   2.000000   2.000000

    1             0.991067   0.649900   0.353332   0.137669   0.193496
    2             0.504465   0.675048   0.823335   0.931167   0.903240
    3             0.504468   0.675052   0.823332   0.931165   0.903264

                     16

                  2.000000

    1             0.806027
    2             0.597001
    3             0.596972

               ----- POPULATIONS IN EACH AO -----
                             MULLIKEN      LOWDIN
              1  S  1  S      1.99979     1.99921
              2  S  1  S      1.99174     1.87753
              3  S  1  S      1.25056     0.60857
              4  S  1  S      0.61605     0.49869
              5  S  1  X      1.99436     1.95952
              6  S  1  Y      1.99539     1.96822
              7  S  1  Z      1.99366     1.95974
              8  S  1  X      0.84858     0.66507
              9  S  1  Y      1.07164     0.95585
             10  S  1  Z      0.84248     0.72979
             11  S  1  X      0.07138     0.20655
             12  S  1  Y      0.08624     0.24002
             13  S  1  Z      0.12687     0.23648
             14  S  1 XX      0.04648     0.35085
             15  S  1 YY      0.19910     0.32606
             16  S  1 ZZ      0.19273     0.26657
             17  S  1 XY      0.13767     0.21585
             18  S  1 XZ      0.02811     0.16940
             19  S  1 YZ      0.00000     0.02712
             20  O  2  S      1.99533     1.97226
             21  O  2  S      0.93282     0.66949
             22  O  2  S      0.84733     0.49781
             23  O  2  X      1.02043     0.98585
             24  O  2  Y      1.04504     1.01838
             25  O  2  Z      0.87893     0.83758
             26  O  2  X      0.42202     0.55090
             27  O  2  Y      0.53679     0.62617
             28  O  2  Z      0.54697     0.58720
             29  O  2 XX      0.00264     0.20485
             30  O  2 YY      0.00766     0.19416
             31  O  2 ZZ      0.00794     0.19326
             32  O  2 XY      0.00635     0.01760
             33  O  2 XZ      0.00335     0.00945
             34  O  2 YZ      0.00000     0.00451
             35  O  3  S      1.99533     1.97226
             36  O  3  S      0.93282     0.66949
             37  O  3  S      0.84733     0.49781
             38  O  3  X      1.02043     0.98585
             39  O  3  Y      1.04504     1.01838
             40  O  3  Z      0.87893     0.83758
             41  O  3  X      0.42202     0.55090
             42  O  3  Y      0.53679     0.62617
             43  O  3  Z      0.54697     0.58720
             44  O  3 XX      0.00264     0.20485
             45  O  3 YY      0.00766     0.19416
             46  O  3 ZZ      0.00794     0.19326
             47  O  3 XY      0.00635     0.01760
             48  O  3 XZ      0.00335     0.00945
             49  O  3 YZ      0.00000     0.00451

          ----- MULLIKEN ATOMIC OVERLAP POPULATIONS -----
          (OFF-DIAGONAL ELEMENTS NEED TO BE MULTIPLIED BY 2)

             1           2           3

    1   14.5908428
    2    0.4509843   7.8871921
    3    0.4509939  -0.0845860   7.8871806

          TOTAL MULLIKEN AND LOWDIN ATOMIC POPULATIONS
       ATOM         MULL.POP.    CHARGE          LOW.POP.     CHARGE
    1 S            15.492821    0.507179        15.261074    0.738926
    2 O             8.253590   -0.253590         8.369464   -0.369464
    3 O             8.253588   -0.253588         8.369462   -0.369462

          MULLIKEN SPHERICAL HARMONIC POPULATIONS
       ATOM           S       P       D      F      G      H      I    TOTAL
    1 S             5.86    9.03    0.60   0.00   0.00   0.00   0.00   15.49
    2 O             3.78    4.45    0.03   0.00   0.00   0.00   0.00    8.25
    3 O             3.78    4.45    0.03   0.00   0.00   0.00   0.00    8.25

          -------------------------------
          BOND ORDER AND VALENCE ANALYSIS     BOND ORDER THRESHOLD=0.050
          -------------------------------

                   BOND                       BOND                       BOND
  ATOM PAIR DIST  ORDER      ATOM PAIR DIST  ORDER      ATOM PAIR DIST  ORDER
    1   2  1.350  1.995        1   3  1.350  1.995        2   3  2.212  0.172

                       TOTAL       BONDED        FREE
      ATOM            VALENCE     VALENCE     VALENCE
    1 S                 3.990       3.990       0.000
    2 O                 2.167       2.167      -0.000
    3 O                 2.167       2.167      -0.000

          ---------------------
          ELECTROSTATIC MOMENTS
          ---------------------

 POINT   1           X           Y           Z (BOHR)    CHARGE
                 0.000000   -0.000000    0.000000        0.00 (A.U.)
         DX          DY          DZ         /D/  (DEBYE)
    -0.000006   -1.786260    0.000000    1.786260
 ...... END OF PROPERTY EVALUATION ......
 STEP CPU TIME =     0.01 TOTAL CPU TIME =          2.5 (      0.0 MIN)
 TOTAL WALL CLOCK TIME=          2.5 SECONDS, CPU UTILIZATION IS    98.41%
                580000  WORDS OF DYNAMIC MEMORY USED
 EXECUTION OF GAMESS TERMINATED NORMALLY Sun Sep 29 10:44:21 2019
 DDI: 263640 bytes (0.3 MB / 0 MWords) used by master data server.

 ----------------------------------------
 CPU timing information for all processes
 ========================================
 0: 2.412 + 0.69 = 2.481
 ----------------------------------------
 ddikick.x: exited gracefully.
----- accounting info -----
Files used on the master node crcfe02.crc.nd.edu were:
-rw-r--r-- 1 cdrisko campus     208 Sep 29 10:44 /afs/crc.nd.edu/user/c/cdrisko/SO2.F05
-rw-r--r-- 1 cdrisko campus   37566 Sep 29 10:44 /afs/crc.nd.edu/user/c/cdrisko/SO2.F07
-rw-r--r-- 1 cdrisko campus 4320384 Sep 29 10:44 /afs/crc.nd.edu/user/c/cdrisko/SO2.F08
-rw-r--r-- 1 cdrisko campus 1766880 Sep 29 10:44 /afs/crc.nd.edu/user/c/cdrisko/SO2.F10
Sun Sep 29 10:44:24 EDT 2019
0.427u 0.252s 0:06.15 10.8%	0+0k 0+24io 0pf+0w
