----- GAMESS execution script 'rungms' -----
This job is running on host crcfe02.crc.nd.edu
under operating system Linux at Sun Sep 29 10:50:30 EDT 2019
Available scratch disk space (Kbyte units) at beginning of the job is
Filesystem      1K-blocks  Used  Available Use% Mounted on
AFS            2147483647     0 2147483647   0% /afs
GAMESS temporary binary files will be written to /afs/crc.nd.edu/user/c/cdrisko
GAMESS supplementary output files will be written to /afs/crc.nd.edu/user/c/cdrisko/scr
Copying input file SO2.inp to your run's scratch directory...

 Distributed Data Interface kickoff program.
 Initiating 1 compute processes on 1 nodes to run the following command:
 /afs/crc.nd.edu/x86_64_linux/g/gamess/nov-2017/gamess/gamess.00.x SO2 

          ******************************************************
          *         GAMESS VERSION = 11 NOV 2017 (R3)         *
          *             FROM IOWA STATE UNIVERSITY             *
          * M.W.SCHMIDT, K.K.BALDRIDGE, J.A.BOATZ, S.T.ELBERT, *
          *   M.S.GORDON, J.H.JENSEN, S.KOSEKI, N.MATSUNAGA,   *
          *          K.A.NGUYEN, S.J.SU, T.L.WINDUS,           *
          *       TOGETHER WITH M.DUPUIS, J.A.MONTGOMERY       *
          *         J.COMPUT.CHEM.  14, 1347-1363(1993)        *
          **************** 64 BIT INTEL VERSION ****************

  SINCE 1993, STUDENTS AND POSTDOCS WORKING AT IOWA STATE UNIVERSITY
  AND ALSO IN THEIR VARIOUS JOBS AFTER LEAVING ISU HAVE MADE IMPORTANT
  CONTRIBUTIONS TO THE CODE:
     IVANA ADAMOVIC, CHRISTINE AIKENS, YURI ALEXEEV, POOJA ARORA,
     ANDREY ASADCHEV, ROB BELL, PRADIPTA BANDYOPADHYAY, JONATHAN BENTZ,
     BRETT BODE, KURT BRORSEN, CALEB CARLIN, GALINA CHABAN, WEI CHEN,
     CHEOL HO CHOI, PAUL DAY, ALBERT DEFUSCO, NUWAN DESILVA, TIM DUDLEY,
     DMITRI FEDOROV, ALEX FINDLATER, GRAHAM FLETCHER, MARK FREITAG,
     KURT GLAESEMANN, ANASTASIA GUININA,
     DAN KEMP, GRANT MERRILL, NORIYUKI MINEZAWA, JONATHAN MULLIN,
     TAKESHI NAGATA, SEAN NEDD, HEATHER NETZLOFF, BOSILJKA NJEGIC, RYAN OLSON,
     MIKE PAK, BUU PHAM,
     SPENCER PRUITT, LUKE ROSKOP, JIM SHOEMAKER, LYUDMILA SLIPCHENKO,
     TONY SMITH, SAROM SOK LEANG, JIE SONG, TETSUYA TAKETSUGU, SIMON WEBB,
     PENG XU, SOOHAENG YOO, FEDERICO ZAHARIEV

  ADDITIONAL CODE HAS BEEN PROVIDED BY COLLABORATORS IN OTHER GROUPS:
     IOWA STATE UNIVERSITY:
          JOE IVANIC, AARON WEST, LAIMUTIS BYTAUTAS, KLAUS RUEDENBERG
     UNIVERSITY OF TOKYO: KIMIHIKO HIRAO, TAKAHITO NAKAJIMA,
          TAKAO TSUNEDA, MUNEAKI KAMIYA, SUSUMU YANAGISAWA,
          KIYOSHI YAGI, MAHITO CHIBA, SEIKEN TOKURA, NAOAKI KAWAKAMI
     UNIVERSITY OF AARHUS: FRANK JENSEN
     UNIVERSITY OF IOWA: VISVALDAS KAIRYS, HUI LI
     NATIONAL INST. OF STANDARDS AND TECHNOLOGY: WALT STEVENS, DAVID GARMER
     UNIVERSITY OF PISA: BENEDETTA MENNUCCI, JACOPO TOMASI
     UNIVERSITY OF MEMPHIS: HENRY KURTZ, PRAKASHAN KORAMBATH
     UNIVERSITY OF ALBERTA: TOBY ZENG, MARIUSZ KLOBUKOWSKI
     UNIVERSITY OF NEW ENGLAND: MARK SPACKMAN
     MIE UNIVERSITY: HIROAKI UMEDA
     NAT. INST. OF ADVANCED INDUSTRIAL SCIENCE AND TECHNOLOGY: KAZUO KITAURA
     MICHIGAN STATE UNIVERSITY:
          KAROL KOWALSKI, MARTA WLOCH, JEFFREY GOUR, JESSE LUTZ,
          WEI LI, PIOTR PIECUCH
     UNIVERSITY OF SILESIA: MONIKA MUSIAL, STANISLAW KUCHARSKI
     FACULTES UNIVERSITAIRES NOTRE-DAME DE LA PAIX:
          OLIVIER QUINET, BENOIT CHAMPAGNE
     UNIVERSITY OF CALIFORNIA - SANTA BARBARA: BERNARD KIRTMAN
     INSTITUTE FOR MOLECULAR SCIENCE:
          KAZUYA ISHIMURA, MICHIO KATOUDA, AND SHIGERU NAGASE
     UNIVERSITY OF NOTRE DAME: ANNA POMOGAEVA, DAN CHIPMAN
     KYUSHU UNIVERSITY:
          HARUYUKI NAKANO,
          FENG LONG GU, JACEK KORCHOWIEC, MARCIN MAKOWSKI, AND YURIKO AOKI,
          HIROTOSHI MORI AND EISAKU MIYOSHI
     PENNSYLVANIA STATE UNIVERSITY:
          TZVETELIN IORDANOV, CHET SWALINA, JONATHAN SKONE,
          SHARON HAMMES-SCHIFFER
     WASEDA UNIVERSITY:
          MASATO KOBAYASHI, TOMOKO AKAMA, TSUGUKI TOUMA,
          TAKESHI YOSHIKAWA, YASUHIRO IKABATA, JUNJI SEINO,
          YUYA NAKAJIMA, HIROMI NAKAI
     NANJING UNIVERSITY: SHUHUA LI
     UNIVERSITY OF NEBRASKA:
          PEIFENG SU, DEJUN SI, NANDUN THELLAMUREGE, YALI WANG, HUI LI
     UNIVERSITY OF ZURICH: ROBERTO PEVERATI, KIM BALDRIDGE
     N. COPERNICUS UNIVERSITY AND JACKSON STATE UNIVERSITY:
          MARIA BARYSZ
     UNIVERSITY OF COPENHAGEN: Jimmy Kromann, CASPER STEINMANN
     TOKYO INSTITUTE OF TECHNOLOGY: HIROYA NAKATA
     NAGOYA UNIVERSITY: YOSHIO NISHIMOTO, STEPHAN IRLE
     MOSCOW STATE UNIVERSITY: VLADIMIR MIRONOV

 EXECUTION OF GAMESS BEGUN Sun Sep 29 10:50:30 2019

            ECHO OF THE FIRST FEW INPUT CARDS -
 INPUT CARD> $BASIS GBASIS=PCSEG-1 $END                                                     
 INPUT CARD> $CONTRL COORD=ZMT ISPHER=1 RUNTYP=ENERGY DFTTYP=PBE MULT=1 $END                
 INPUT CARD>                                                                                
 INPUT CARD> $DATA                                                                          
 INPUT CARD>Title SO2 single-point calculation template with Z-Matrix                       
 INPUT CARD>C1                                                                              
 INPUT CARD>S                                                                               
 INPUT CARD>O 1 1.55                                                                        
 INPUT CARD>O 1 1.55 2 140                                                                  
 INPUT CARD> $END                                                                           
    1000000 WORDS OF MEMORY AVAILABLE

     BASIS OPTIONS
     -------------
     GBASIS=PCSEG-1      IGAUSS=       0      POLAR=NONE    
     NDFUNC=       0     NFFUNC=       0     DIFFSP=       F
     NPFUNC=       0      DIFFS=       F     BASNAM=        


     RUN TITLE
     ---------
 Title SO2 single-point calculation template with Z-Matrix                       

 THE POINT GROUP OF THE MOLECULE IS C1      
 THE ORDER OF THE PRINCIPAL AXIS IS     0

 YOUR FULLY SUBSTITUTED Z-MATRIX IS
 S   
 O      1   1.5500000
 O      1   1.5500000  2  140.0000

 THE MOMENTS OF INERTIA ARE (AMU-ANGSTROM**2)
 IXX=     4.494   IYY=    67.865   IZZ=    72.359

 ATOM      ATOMIC                      COORDINATES (BOHR)
           CHARGE         X                   Y                   Z
 S          16.0     0.0000000000       -0.5010403783        0.0000000000
 O           8.0     2.7524304273        0.5007623691        0.0000000000
 O           8.0    -2.7524304273        0.5007623691        0.0000000000

          INTERNUCLEAR DISTANCES (ANGS.)
          ------------------------------

                1 S          2 O          3 O     

   1 S       0.0000000    1.5500000 *  1.5500000 *
   2 O       1.5500000 *  0.0000000    2.9130471 *
   3 O       1.5500000 *  2.9130471 *  0.0000000  

  * ... LESS THAN  3.000


     ATOMIC BASIS SET
     ----------------
 THE CONTRACTED PRIMITIVE FUNCTIONS HAVE BEEN UNNORMALIZED
 THE CONTRACTED BASIS FUNCTIONS ARE NOW NORMALIZED TO UNITY

  SHELL TYPE  PRIMITIVE        EXPONENT          CONTRACTION COEFFICIENT(S)

 S         

      1   S       1         49299.4000000    0.000677492991
      1   S       2          7395.8400000    0.005232317766
      1   S       3          1683.3000000    0.026769459077
      1   S       4           476.1440000    0.102869580705
      1   S       5           154.3290000    0.286438127414
      1   S       6            55.0288000    0.454278639081
      1   S       7            20.5029000    0.271743121997

      2   S       8            45.9596000   -0.088421914560
      2   S       9             4.9274000    0.564350486135
      2   S      10             1.9179900    0.505415953466

      3   S      11             0.3684980    1.000000000000

      4   S      12             0.1291650    1.000000000000

      5   P      13           451.6620000    0.003707705453
      5   P      14           106.0980000    0.029219352245
      5   P      15            33.6996000    0.124444551509
      5   P      16            12.3054000    0.321808587656
      5   P      17             4.7141200    0.462822172957
      5   P      18             1.7810500    0.266513371364

      6   P      19             0.8722350    0.349265132972
      6   P      20             0.3102780    0.717115018770

      7   P      21             0.1001940    1.000000000000

      8   D      22             0.5500000    1.000000000000

 O         

      9   S      23          2288.6400000    0.005451138222
      9   S      24           344.4160000    0.040718922842
      9   S      25            78.2538000    0.181369420873
      9   S      26            21.7195000    0.465536820246
      9   S      27             6.5590700    0.451211321214

     10   S      28            10.4656000   -0.150211201174
     10   S      29             0.9643510    1.052867983385

     11   S      30             0.2851270    1.000000000000

     12   P      31            17.0590000    0.068749256972
     12   P      32             3.6899900    0.351671941499
     12   P      33             0.9929960    0.724532099722

     13   P      34             0.2449240    1.000000000000

     14   D      35             1.0000000    1.000000000000

 O         

     15   S      36          2288.6400000    0.005451138222
     15   S      37           344.4160000    0.040718922842
     15   S      38            78.2538000    0.181369420873
     15   S      39            21.7195000    0.465536820246
     15   S      40             6.5590700    0.451211321214

     16   S      41            10.4656000   -0.150211201174
     16   S      42             0.9643510    1.052867983385

     17   S      43             0.2851270    1.000000000000

     18   P      44            17.0590000    0.068749256972
     18   P      45             3.6899900    0.351671941499
     18   P      46             0.9929960    0.724532099722

     19   P      47             0.2449240    1.000000000000

     20   D      48             1.0000000    1.000000000000

 TOTAL NUMBER OF BASIS SET SHELLS             =   20
 NUMBER OF CARTESIAN GAUSSIAN BASIS FUNCTIONS =   49
 NOTE: THIS RUN WILL RESTRICT THE MO VARIATION SPACE TO SPHERICAL HARMONICS.
 THE NUMBER OF ORBITALS KEPT IN THE VARIATIONAL SPACE WILL BE PRINTED LATER.
 NUMBER OF ELECTRONS                          =   32
 CHARGE OF MOLECULE                           =    0
 SPIN MULTIPLICITY                            =    1
 NUMBER OF OCCUPIED ORBITALS (ALPHA)          =   16
 NUMBER OF OCCUPIED ORBITALS (BETA )          =   16
 TOTAL NUMBER OF ATOMS                        =    3
 THE NUCLEAR REPULSION ENERGY IS       99.0256858893

     LEBEDEV GRID-BASED DFT OPTIONS
     ------------------------------
     DFTTYP=PBE     
     NRAD  =      96     NLEB  =     302
     NRAD0 =      24     NLEB0 =     110
     SWOFF =    5.00E-03 (PURE SCF -> DFT)
     SWITCH=    3.00E-04 (COARSE -> TIGHT GRID)
     THRESH=    0.00E+00 GTHRE=    1.00E+00

 GRIMME'S EMPIRICAL DISPERSION CORRECTION= F

     $CONTRL OPTIONS
     ---------------
 SCFTYP=RHF          RUNTYP=ENERGY       EXETYP=RUN     
 MPLEVL=       0     CITYP =NONE         CCTYP =NONE         VBTYP =NONE    
 DFTTYP=PBE          TDDFT =NONE    
 MULT  =       1     ICHARG=       0     NZVAR =       0     COORD =ZMT     
 PP    =NONE         RELWFN=NONE         LOCAL =NONE         NUMGRD=       F
 ISPHER=       1     NOSYM =       0     MAXIT =      30     UNITS =ANGS    
 PLTORB=       F     MOLPLT=       F     AIMPAC=       F     FRIEND=        
 NPRINT=       7     IREST =       0     GEOM  =INPUT   
 NORMF =       0     NORMP =       0     ITOL  =      20     ICUT  =       9
 INTTYP=BEST         GRDTYP=BEST         QMTTOL= 1.0E-06

     $SYSTEM OPTIONS
     ---------------
  REPLICATED MEMORY=     1000000 WORDS (ON EVERY NODE).
 DISTRIBUTED MEMDDI=           0 MILLION WORDS IN AGGREGATE,
 MEMDDI DISTRIBUTED OVER   1 PROCESSORS IS           0 WORDS/PROCESSOR.
 TOTAL MEMORY REQUESTED ON EACH PROCESSOR=     1000000 WORDS.
 TIMLIM=      525600.00 MINUTES, OR     365.0 DAYS.
 PARALL= F  BALTYP=  DLB     KDIAG=    0  COREFL= F
 MXSEQ2=     300 MXSEQ3=     150  mem10=         0

          ----------------
          PROPERTIES INPUT
          ----------------

     MOMENTS            FIELD           POTENTIAL          DENSITY
 IEMOM =       1   IEFLD =       0   IEPOT =       0   IEDEN =       0
 WHERE =COMASS     WHERE =NUCLEI     WHERE =NUCLEI     WHERE =NUCLEI  
 OUTPUT=BOTH       OUTPUT=BOTH       OUTPUT=BOTH       OUTPUT=BOTH    
 IEMINT=       0   IEFINT=       0                     IEDINT=       0
                                                       MORB  =       0
          EXTRAPOLATION IN EFFECT
          DIIS IN EFFECT
 ORBITAL PRINTING OPTION: NPREO=     1    49     2     1

     -------------------------------
     INTEGRAL TRANSFORMATION OPTIONS
     -------------------------------
     NWORD  =            0
     CUTOFF = 1.0E-09     MPTRAN =       0
     DIRTRF =       F     AOINTS =DUP     

          ----------------------
          INTEGRAL INPUT OPTIONS
          ----------------------
 NOPK  =       1 NORDER=       0 SCHWRZ=       F

   --- ENCODED Z MATRIX ---
 COORD  TYPE   I   J   K   L   M   N
    1      1    2   1
    2      1    3   1
    3      2    3   1   2

 THE DETERMINANT OF THE G MATRIX IS 10**(    -4)

 THE DETERMINANT OF THE G MATRIX IS 10**(    -4)
 * * * WARNING * * *
 YOUR B MATRIX HAS A SMALL DETERMINANT.
 THIS SUGGESTS YOU MAY HAVE BADLY CHOSEN COORDINATES.

     ------------------------------------------
     THE POINT GROUP IS C1 , NAXIS= 0, ORDER= 1
     ------------------------------------------

 -- VARIATIONAL SPACE WILL BE RESTRICTED TO PURE SPHERICAL HARMONICS ONLY --
 AFTER EXCLUDING CONTAMINANT COMBINATIONS FROM THE CARTESIAN GAUSSIAN BASIS
 SET, THE NUMBER OF SPHERICAL HARMONICS KEPT IN THE VARIATION SPACE IS   46

     DIMENSIONS OF THE SYMMETRY SUBSPACES ARE
 A   =   46

 ..... DONE SETTING UP THE RUN .....
 STEP CPU TIME =     0.04 TOTAL CPU TIME =          0.0 (      0.0 MIN)
 TOTAL WALL CLOCK TIME=          0.0 SECONDS, CPU UTILIZATION IS    80.00%

          ********************
          1 ELECTRON INTEGRALS
          ********************
 ...... END OF ONE-ELECTRON INTEGRALS ......
 STEP CPU TIME =     0.00 TOTAL CPU TIME =          0.0 (      0.0 MIN)
 TOTAL WALL CLOCK TIME=          0.0 SECONDS, CPU UTILIZATION IS    80.00%

          -------------
          GUESS OPTIONS
          -------------
          GUESS =HUCKEL            NORB  =       0          NORDER=       0
          MIX   =       F          PRTMO =       F          PUNMO =       F
          TOLZ  = 1.0E-08          TOLE  = 1.0E-05
          SYMDEN=       F          PURIFY=       F

 INITIAL GUESS ORBITALS GENERATED BY HUCKEL   ROUTINE.
 HUCKEL GUESS REQUIRES     21634 WORDS.

 STATISTICS FOR GENERATION OF SYMMETRY ORBITAL -Q- MATRIX
 NUMBER OF CARTESIAN ATOMIC ORBITALS=         49
 NUMBER OF SPHERICAL CONTAMINANTS DROPPED=     3
 NUMBER OF LINEARLY DEPENDENT MOS DROPPED=     0
 TOTAL NUMBER OF MOS IN VARIATION SPACE=      46

 SYMMETRIES FOR INITIAL GUESS ORBITALS FOLLOW.   BOTH SET(S).
    16 ORBITALS ARE OCCUPIED (    7 CORE ORBITALS).
     8=A        9=A       10=A       11=A       12=A       13=A       14=A   
    15=A       16=A       17=A       18=A       19=A       20=A       21=A   
    22=A       23=A       24=A       25=A       26=A   
 ...... END OF INITIAL ORBITAL SELECTION ......
 STEP CPU TIME =     0.00 TOTAL CPU TIME =          0.0 (      0.0 MIN)
 TOTAL WALL CLOCK TIME=          0.1 SECONDS, CPU UTILIZATION IS    66.67%

                    ----------------------
                    AO INTEGRAL TECHNOLOGY
                    ----------------------
     S,P,L SHELL ROTATED AXIS INTEGRALS, REPROGRAMMED BY
        KAZUYA ISHIMURA (IMS) AND JOSE SIERRA (SYNSTAR).
     S,P,D,L SHELL ROTATED AXIS INTEGRALS PROGRAMMED BY
        KAZUYA ISHIMURA (INSTITUTE FOR MOLECULAR SCIENCE).
     S,P,D,F,G SHELL TO TOTAL QUARTET ANGULAR MOMENTUM SUM 5,
        ERIC PROGRAM BY GRAHAM FLETCHER (ELORET AND NASA ADVANCED
        SUPERCOMPUTING DIVISION, AMES RESEARCH CENTER).
     S,P,D,F,G,L SHELL GENERAL RYS QUADRATURE PROGRAMMED BY
        MICHEL DUPUIS (PACIFIC NORTHWEST NATIONAL LABORATORY).

          --------------------
          2 ELECTRON INTEGRALS
          --------------------

 THE -PK- OPTION IS OFF, THE INTEGRALS ARE NOT IN SUPERMATRIX FORM.
 STORING   15000 INTEGRALS/RECORD ON DISK, USING 12 BYTES/INTEGRAL.
 TWO ELECTRON INTEGRAL EVALUATION REQUIRES   90606 WORDS OF MEMORY.
 II,JST,KST,LST =  1  1  1  1 NREC =         1 INTLOC =    1
 II,JST,KST,LST =  2  1  1  1 NREC =         1 INTLOC =    2
 II,JST,KST,LST =  3  1  1  1 NREC =         1 INTLOC =    7
 II,JST,KST,LST =  4  1  1  1 NREC =         1 INTLOC =   22
 II,JST,KST,LST =  5  1  1  1 NREC =         1 INTLOC =   56
 II,JST,KST,LST =  6  1  1  1 NREC =         1 INTLOC =  125
 II,JST,KST,LST =  7  1  1  1 NREC =         1 INTLOC =  329
 II,JST,KST,LST =  8  1  1  1 NREC =         1 INTLOC =  776
 II,JST,KST,LST =  9  1  1  1 NREC =         1 INTLOC = 2864
 II,JST,KST,LST = 10  1  1  1 NREC =         1 INTLOC = 4950
 II,JST,KST,LST = 11  1  1  1 NREC =         1 INTLOC = 7614
 II,JST,KST,LST = 12  1  1  1 NREC =         1 INTLOC =10731
 II,JST,KST,LST = 13  1  1  1 NREC =         2 INTLOC = 6641
 II,JST,KST,LST = 14  1  1  1 NREC =         3 INTLOC = 6909
 II,JST,KST,LST = 15  1  1  1 NREC =         6 INTLOC = 8855
 II,JST,KST,LST = 16  1  1  1 NREC =         7 INTLOC =  971
 II,JST,KST,LST = 17  1  1  1 NREC =         7 INTLOC =11986
 II,JST,KST,LST = 18  1  1  1 NREC =         8 INTLOC =10314
 II,JST,KST,LST = 19  1  1  1 NREC =        11 INTLOC = 2824
 II,JST,KST,LST = 20  1  1  1 NREC =        14 INTLOC = 9390
 TOTAL NUMBER OF NONZERO TWO-ELECTRON INTEGRALS =              329437
         22 INTEGRAL RECORDS WERE STORED ON DISK FILE  8.
  ...... END OF TWO-ELECTRON INTEGRALS .....
 STEP CPU TIME =     0.11 TOTAL CPU TIME =          0.2 (      0.0 MIN)
 TOTAL WALL CLOCK TIME=          0.2 SECONDS, CPU UTILIZATION IS    93.75%

          --------------------------
               R-PBE SCF CALCULATION
          --------------------------

     NUCLEAR ENERGY =        99.0256858893
     MAXIT =   30     NPUNCH=    2
     EXTRAP=T  DAMP=F  SHIFT=F  RSTRCT=F  DIIS=T  DEM=F  SOSCF=F
         DENSITY MATRIX CONVERGENCE THRESHOLD=  1.00E-05
     COARSE -> FINE DFT GRID SWITCH THRESHOLD=  3.00E-04 (SWITCH IN $DFT)
                   HF -> DFT SWITCH THRESHOLD=  5.00E-03 (SWOFF IN $DFT)
     MEMORY REQUIRED FOR RHF ITERS=    183108 WORDS.

 DFT CODE IS SWITCHING FROM THE FINE GRID NRAD= 96,  NLEB=  302
                      TO THE COARSE GRID NRAD0= 24, NLEB0=  110

     EXCHANGE FUNCTIONAL   =PBE       
     CORRELATION FUNCTIONAL=PBE       
     DFT THRESHOLD         =.460E-07
     GRID CHANGE THRESHOLD =.300E-03
 FOR AN EULER-MACLAURIN QUADRATURE USING  96 RADIAL POINTS:
 SMALLEST GAUSSIAN PRIMITIVE EXPONENT=        0.1001940000 OF TYPE -P-
 ON ATOM NUMBER   1 HAS RADIAL NORMALIZATION=  1.000000
  LARGEST GAUSSIAN PRIMITIVE EXPONENT=    49299.4000000000 OF TYPE -S-
 ON ATOM NUMBER   1 HAS RADIAL NORMALIZATION=  1.000000
 DFT IS SWITCHED OFF, PERFORMING PURE SCF UNTIL SWOFF THRESHOLD IS REACHED.

 ITER EX DEM     TOTAL ENERGY        E CHANGE  DENSITY CHANGE    DIIS ERROR
   1  0  0     -546.0242099616  -546.0242099616   0.689021489   0.980244902
          * * *   INITIATING DIIS PROCEDURE   * * *
   2  1  0     -546.6994498946    -0.6752399330   0.628101370   0.295938386
   3  2  0     -546.7826997070    -0.0832498124   0.226629864   0.267033344
   4  3  0     -547.0361630215    -0.2534633145   0.042433680   0.012381517
   5  4  0     -547.0382128666    -0.0020498451   0.022023309   0.007118871
   6  5  0     -547.0387867371    -0.0005738705   0.012958459   0.004036592
   7  6  0     -547.0389748186    -0.0001880816   0.006450924   0.001491935
   8  7  0     -547.0390068299    -0.0000320113   0.000816708   0.000312213
 CONVERGED TO SWOFF, SO DFT CALCULATION IS NOW SWITCHED ON.
          * * *   INITIATING DIIS PROCEDURE   * * *
   9  8  0     -548.1992267378    -1.1602199079   0.383107647   0.104111977
  10  9  0     -548.1996944210    -0.0004676832   0.330225950   0.109790827
  11 10  0     -548.2029319226    -0.0032375016   0.117453393   0.112807271
  12 11  0     -548.2399295002    -0.0369975776   0.029103399   0.013308561
  13 12  0     -548.2406679343    -0.0007384341   0.002024256   0.001036529
  14 13  0     -548.2406716665    -0.0000037323   0.000607136   0.000248321
  15 14  0     -548.2406719432    -0.0000002766   0.000066545   0.000036891
 DFT CODE IS SWITCHING BACK TO THE FINE GRID
          * * *   INITIATING DIIS PROCEDURE   * * *
  16 15  0     -548.2235724911     0.0170994521   0.010003764   0.010655088
  17 16  0     -548.2237821206    -0.0002096295   0.015926655   0.003600615
  18 17  0     -548.2236096892     0.0001724314   0.010880254   0.008409995
  19 18  0     -548.2238192617    -0.0002095725   0.000628870   0.000402435
  20 19  0     -548.2238194539    -0.0000001922   0.000461392   0.000509928
  21 20  0     -548.2238198025    -0.0000003487   0.000178822   0.000290090
  22 21  0     -548.2238199761    -0.0000001735   0.000012656   0.000005132
  23 22  0     -548.2238199762    -0.0000000001   0.000001654   0.000000770
  24 23  0     -548.2238199762    -0.0000000000   0.000000387   0.000000118

          -----------------
          DENSITY CONVERGED
          -----------------
     TIME TO FORM FOCK OPERATORS=       2.5 SECONDS (       0.1 SEC/ITER)
     TIME TO SOLVE SCF EQUATIONS=       0.0 SECONDS (       0.0 SEC/ITER)

 FINAL R-PBE ENERGY IS     -548.2238199762 AFTER  24 ITERATIONS
 DFT EXCHANGE + CORRELATION ENERGY =       -42.3927986224
 TOTAL ELECTRON NUMBER             =        32.0000007840

          ------------
          EIGENVECTORS
          ------------

                      1          2          3          4          5
                  -88.2296   -18.8207   -18.8207    -7.8412    -5.8680
                     A          A          A          A          A   
    1  S  1  S    0.997756  -0.000000  -0.000011  -0.308375  -0.000000
    2  S  1  S    0.008276  -0.000000  -0.000023   1.031709   0.000000
    3  S  1  S   -0.003086   0.000001   0.000267   0.027831   0.000000
    4  S  1  S    0.000695   0.000019   0.006793  -0.005313  -0.000000
    5  S  1  X   -0.000000  -0.000087   0.000000  -0.000000   0.994579
    6  S  1  Y    0.000131  -0.000000  -0.000079   0.012399  -0.000001
    7  S  1  Z    0.000000   0.000000   0.000000   0.000000   0.000000
    8  S  1  X    0.000000   0.002000  -0.000006   0.000000   0.017381
    9  S  1  Y   -0.000304   0.000003   0.000991   0.001217  -0.000000
   10  S  1  Z    0.000000   0.000000   0.000000   0.000000   0.000000
   11  S  1  X    0.000000   0.005074  -0.000014  -0.000000  -0.002353
   12  S  1  Y   -0.000016   0.000006   0.002006  -0.000221   0.000000
   13  S  1  Z    0.000000   0.000000   0.000000   0.000000   0.000000
   14  S  1 XX   -0.000375   0.000001   0.000442   0.001080  -0.000000
   15  S  1 YY    0.000150  -0.000000  -0.000042  -0.000532   0.000000
   16  S  1 ZZ    0.000225  -0.000001  -0.000400  -0.000548   0.000000
   17  S  1 XY    0.000000   0.000221  -0.000001  -0.000000   0.001371
   18  S  1 XZ    0.000000   0.000000   0.000000   0.000000   0.000000
   19  S  1 YZ    0.000000   0.000000   0.000000   0.000000   0.000000
   20  O  2  S   -0.000017   0.704220   0.700405  -0.000032  -0.000294
   21  O  2  S   -0.000184   0.023995   0.023697  -0.000052  -0.000029
   22  O  2  S    0.000503  -0.011986  -0.011202  -0.000619  -0.000899
   23  O  2  X   -0.000051  -0.000792  -0.001006   0.000236  -0.000334
   24  O  2  Y   -0.000021  -0.000379  -0.000120   0.000083  -0.000119
   25  O  2  Z    0.000000   0.000000   0.000000   0.000000   0.000000
   26  O  2  X   -0.000491   0.001912   0.003005   0.001034   0.001085
   27  O  2  Y   -0.000182   0.001413   0.000261   0.000432   0.000384
   28  O  2  Z    0.000000   0.000000   0.000000   0.000000   0.000000
   29  O  2 XX    0.000236  -0.000148  -0.000340  -0.000095   0.000670
   30  O  2 YY   -0.000086   0.000009   0.000155   0.000022  -0.000232
   31  O  2 ZZ   -0.000150   0.000139   0.000184   0.000073  -0.000438
   32  O  2 XY    0.000176  -0.000219  -0.000110  -0.000107   0.000535
   33  O  2 XZ    0.000000   0.000000   0.000000   0.000000   0.000000
   34  O  2 YZ    0.000000   0.000000   0.000000   0.000000   0.000000
   35  O  3  S   -0.000017  -0.700404   0.704221  -0.000032   0.000294
   36  O  3  S   -0.000184  -0.023866   0.023827  -0.000052   0.000029
   37  O  3  S    0.000503   0.011924  -0.011268  -0.000619   0.000899
   38  O  3  X    0.000051  -0.000786   0.001011  -0.000236  -0.000334
   39  O  3  Y   -0.000021   0.000378  -0.000122   0.000083   0.000119
   40  O  3  Z    0.000000   0.000000   0.000000   0.000000   0.000000
   41  O  3  X    0.000491   0.001895  -0.003015  -0.001034   0.001085
   42  O  3  Y   -0.000182  -0.001412   0.000269   0.000432  -0.000384
   43  O  3  Z    0.000000   0.000000   0.000000   0.000000   0.000000
   44  O  3 XX    0.000236   0.000146  -0.000341  -0.000095  -0.000670
   45  O  3 YY   -0.000086  -0.000008   0.000155   0.000022   0.000232
   46  O  3 ZZ   -0.000150  -0.000138   0.000185   0.000073   0.000438
   47  O  3 XY   -0.000176  -0.000219   0.000112   0.000107   0.000535
   48  O  3 XZ    0.000000   0.000000   0.000000   0.000000   0.000000
   49  O  3 YZ    0.000000   0.000000   0.000000   0.000000   0.000000

                      6          7          8          9         10
                   -5.8661    -5.8617    -1.0121    -0.9528    -0.6029
                     A          A          A          A          A   
    1  S  1  S    0.000000   0.003899   0.049337   0.000000   0.066855
    2  S  1  S    0.000000  -0.013437  -0.303646  -0.000000  -0.428054
    3  S  1  S    0.000000   0.000280   0.424502  -0.000000   0.659624
    4  S  1  S    0.000000   0.000198   0.071155   0.000005   0.234512
    5  S  1  X    0.000000   0.000001  -0.000000   0.123505   0.000000
    6  S  1  Y    0.000000   0.994968  -0.042499  -0.000000   0.011338
    7  S  1  Z    0.995021   0.000000   0.000000   0.000000   0.000000
    8  S  1  X    0.000000   0.000000   0.000001  -0.275362   0.000000
    9  S  1  Y    0.000000   0.015643   0.095237   0.000001  -0.019478
   10  S  1  Z    0.015738   0.000000   0.000000   0.000000   0.000000
   11  S  1  X    0.000000  -0.000000   0.000003   0.013523  -0.000002
   12  S  1  Y    0.000000  -0.002857  -0.011213   0.000001  -0.024357
   13  S  1  Z   -0.003017   0.000000   0.000000   0.000000   0.000000
   14  S  1 XX    0.000000  -0.000429   0.058583   0.000001  -0.017767
   15  S  1 YY    0.000000   0.000933  -0.023209  -0.000000   0.002900
   16  S  1 ZZ    0.000000  -0.000504  -0.035374  -0.000001   0.014868
   17  S  1 XY    0.000000   0.000000   0.000001  -0.054688  -0.000000
   18  S  1 XZ    0.000000   0.000000   0.000000   0.000000   0.000000
   19  S  1 YZ    0.000797   0.000000   0.000000   0.000000   0.000000
   20  O  2  S    0.000000  -0.000115  -0.138336   0.161687   0.115543
   21  O  2  S    0.000000  -0.000046   0.283385  -0.334955  -0.246796
   22  O  2  S    0.000000  -0.000002   0.256562  -0.306186  -0.321921
   23  O  2  X    0.000000  -0.000189  -0.100998   0.094864  -0.155431
   24  O  2  Y    0.000000  -0.000111  -0.031609   0.032846  -0.058888
   25  O  2  Z   -0.000053   0.000000   0.000000   0.000000   0.000000
   26  O  2  X    0.000000   0.000318  -0.037491   0.022888  -0.073738
   27  O  2  Y    0.000000  -0.000112  -0.008072   0.009254  -0.022576
   28  O  2  Z   -0.000141   0.000000   0.000000   0.000000   0.000000
   29  O  2 XX    0.000000   0.000266   0.010449  -0.008104   0.007166
   30  O  2 YY    0.000000  -0.000077  -0.006143   0.004327  -0.001666
   31  O  2 ZZ    0.000000  -0.000189  -0.004307   0.003777  -0.005499
   32  O  2 XY    0.000000   0.000328   0.003860  -0.005902   0.005686
   33  O  2 XZ    0.000100   0.000000   0.000000   0.000000   0.000000
   34  O  2 YZ    0.000018   0.000000   0.000000   0.000000   0.000000
   35  O  3  S    0.000000  -0.000115  -0.138336  -0.161687   0.115543
   36  O  3  S    0.000000  -0.000046   0.283383   0.334957  -0.246796
   37  O  3  S    0.000000  -0.000002   0.256568   0.306181  -0.321923
   38  O  3  X    0.000000   0.000189   0.100998   0.094864   0.155431
   39  O  3  Y    0.000000  -0.000111  -0.031608  -0.032846  -0.058888
   40  O  3  Z   -0.000053   0.000000   0.000000   0.000000   0.000000
   41  O  3  X    0.000000  -0.000318   0.037493   0.022885   0.073738
   42  O  3  Y    0.000000  -0.000112  -0.008073  -0.009254  -0.022576
   43  O  3  Z   -0.000141   0.000000   0.000000   0.000000   0.000000
   44  O  3 XX    0.000000   0.000266   0.010450   0.008104   0.007166
   45  O  3 YY    0.000000  -0.000077  -0.006143  -0.004327  -0.001666
   46  O  3 ZZ    0.000000  -0.000189  -0.004307  -0.003777  -0.005499
   47  O  3 XY    0.000000  -0.000328  -0.003860  -0.005902  -0.005686
   48  O  3 XZ   -0.000100   0.000000   0.000000   0.000000   0.000000
   49  O  3 YZ    0.000018   0.000000   0.000000   0.000000   0.000000

                     11         12         13         14         15
                   -0.4485    -0.4274    -0.4214    -0.3361    -0.3243
                     A          A          A          A          A   
    1  S  1  S   -0.000000   0.000000  -0.010291   0.000000   0.000000
    2  S  1  S    0.000000   0.000000   0.065672   0.000000  -0.000000
    3  S  1  S   -0.000000   0.000000  -0.088507   0.000000   0.000001
    4  S  1  S   -0.000001   0.000000  -0.120451   0.000000  -0.000001
    5  S  1  X   -0.176710   0.000000   0.000000   0.000000   0.017953
    6  S  1  Y   -0.000000   0.000000  -0.208855   0.000000  -0.000000
    7  S  1  Z    0.000000  -0.212841   0.000000  -0.000000   0.000000
    8  S  1  X    0.477106   0.000000   0.000000   0.000000  -0.046108
    9  S  1  Y   -0.000000   0.000000   0.558797   0.000000   0.000000
   10  S  1  Z    0.000000   0.572645   0.000000   0.000000   0.000000
   11  S  1  X   -0.026215   0.000000   0.000001   0.000000  -0.073772
   12  S  1  Y   -0.000000   0.000000   0.129644   0.000000  -0.000000
   13  S  1  Z    0.000000   0.146575   0.000000  -0.000000   0.000000
   14  S  1 XX   -0.000000   0.000000  -0.032207   0.000000  -0.000000
   15  S  1 YY    0.000000   0.000000   0.049734   0.000000   0.000000
   16  S  1 ZZ    0.000000   0.000000  -0.017528   0.000000   0.000000
   17  S  1 XY    0.041422   0.000000   0.000000   0.000000   0.112937
   18  S  1 XZ    0.000000   0.000000   0.000000   0.119029   0.000000
   19  S  1 YZ    0.000000   0.039394   0.000000  -0.000000   0.000000
   20  O  2  S    0.071361   0.000000   0.015502   0.000000  -0.000593
   21  O  2  S   -0.152161   0.000000  -0.033483   0.000000   0.000117
   22  O  2  S   -0.232563   0.000000  -0.053535   0.000000   0.025625
   23  O  2  X   -0.342021   0.000000  -0.201973   0.000000  -0.219812
   24  O  2  Y   -0.156867   0.000000   0.235115   0.000000   0.409953
   25  O  2  Z    0.000000   0.307109   0.000000   0.464310   0.000000
   26  O  2  X   -0.167069   0.000000  -0.123630   0.000000  -0.146776
   27  O  2  Y   -0.087065   0.000000   0.146348   0.000000   0.287811
   28  O  2  Z    0.000000   0.186161   0.000000   0.327813   0.000000
   29  O  2 XX    0.010585   0.000000   0.016288   0.000000   0.008660
   30  O  2 YY   -0.002315   0.000000  -0.011992   0.000000  -0.009708
   31  O  2 ZZ   -0.008270   0.000000  -0.004296   0.000000   0.001048
   32  O  2 XY    0.011616   0.000000  -0.010941   0.000000  -0.015810
   33  O  2 XZ    0.000000  -0.019335   0.000000  -0.017746   0.000000
   34  O  2 YZ    0.000000  -0.006159   0.000000  -0.006271   0.000000
   35  O  3  S   -0.071361   0.000000   0.015502   0.000000   0.000593
   36  O  3  S    0.152160   0.000000  -0.033484   0.000000  -0.000117
   37  O  3  S    0.232564   0.000000  -0.053533   0.000000  -0.025624
   38  O  3  X   -0.342021   0.000000   0.201973   0.000000  -0.219812
   39  O  3  Y    0.156868   0.000000   0.235115   0.000000  -0.409953
   40  O  3  Z    0.000000   0.307110   0.000000  -0.464310   0.000000
   41  O  3  X   -0.167068   0.000000   0.123631   0.000000  -0.146775
   42  O  3  Y    0.087065   0.000000   0.146348   0.000000  -0.287810
   43  O  3  Z    0.000000   0.186161   0.000000  -0.327813   0.000000
   44  O  3 XX   -0.010585   0.000000   0.016288   0.000000  -0.008660
   45  O  3 YY    0.002315   0.000000  -0.011992   0.000000   0.009708
   46  O  3 ZZ    0.008270   0.000000  -0.004296   0.000000  -0.001048
   47  O  3 XY    0.011615   0.000000   0.010941   0.000000  -0.015810
   48  O  3 XZ    0.000000   0.019335   0.000000  -0.017746   0.000000
   49  O  3 YZ    0.000000  -0.006159   0.000000   0.006271   0.000000

                     16         17         18         19         20
                   -0.2703    -0.1843    -0.1017     0.0712     0.2135
                     A          A          A          A          A   
    1  S  1  S    0.025995   0.000000   0.022950  -0.000000   0.000000
    2  S  1  S   -0.168576   0.000000  -0.153186   0.000001   0.000000
    3  S  1  S    0.209963   0.000000   0.216439  -0.000003   0.000000
    4  S  1  S    0.496069   0.000000   0.513315  -0.000005   0.000000
    5  S  1  X   -0.000000   0.000000  -0.000000  -0.168014   0.000000
    6  S  1  Y    0.102950   0.000000  -0.200179  -0.000000   0.000000
    7  S  1  Z    0.000000  -0.227850   0.000000   0.000000   0.246440
    8  S  1  X    0.000000   0.000000   0.000001   0.530872   0.000000
    9  S  1  Y   -0.285471   0.000000   0.616829  -0.000001   0.000000
   10  S  1  Z    0.000000   0.674374   0.000000   0.000000  -0.975949
   11  S  1  X   -0.000001   0.000000  -0.000006   1.209611   0.000000
   12  S  1  Y   -0.032211   0.000000   0.411856  -0.000000   0.000000
   13  S  1  Z    0.000000   0.294177   0.000000   0.000000   1.313965
   14  S  1 XX   -0.159849   0.000000  -0.140237  -0.000004   0.000000
   15  S  1 YY    0.082893   0.000000   0.027127   0.000001   0.000000
   16  S  1 ZZ    0.076956   0.000000   0.113110   0.000003   0.000000
   17  S  1 XY    0.000000   0.000000   0.000000  -0.177146   0.000000
   18  S  1 XZ    0.000000   0.000000   0.000000   0.000000   0.000000
   19  S  1 YZ    0.000000  -0.029996   0.000000   0.000000  -0.081997
   20  O  2  S    0.007077   0.000000   0.036939   0.068302   0.000000
   21  O  2  S   -0.017838   0.000000  -0.085023  -0.132243   0.000000
   22  O  2  S   -0.070279   0.000000  -0.248518  -0.665489   0.000000
   23  O  2  X    0.211757   0.000000   0.359106   0.132375   0.000000
   24  O  2  Y    0.378196   0.000000  -0.173200   0.217858   0.000000
   25  O  2  Z    0.000000  -0.394069   0.000000   0.000000  -0.055156
   26  O  2  X    0.147325   0.000000   0.314562   0.202526   0.000000
   27  O  2  Y    0.271556   0.000000  -0.146577   0.214895   0.000000
   28  O  2  Z    0.000000  -0.315439   0.000000   0.000000  -0.125987
   29  O  2 XX   -0.001467   0.000000   0.001173  -0.005410   0.000000
   30  O  2 YY   -0.001313   0.000000  -0.002669   0.006233   0.000000
   31  O  2 ZZ    0.002780   0.000000   0.001496  -0.000824   0.000000
   32  O  2 XY   -0.008139   0.000000  -0.003208   0.005170   0.000000
   33  O  2 XZ    0.000000   0.001273   0.000000   0.000000   0.017863
   34  O  2 YZ    0.000000  -0.000407   0.000000   0.000000   0.004556
   35  O  3  S    0.007078   0.000000   0.036940  -0.068301   0.000000
   36  O  3  S   -0.017838   0.000000  -0.085025   0.132231   0.000000
   37  O  3  S   -0.070280   0.000000  -0.248522   0.665504   0.000000
   38  O  3  X   -0.211757   0.000000  -0.359108   0.132369   0.000000
   39  O  3  Y    0.378196   0.000000  -0.173199  -0.217859   0.000000
   40  O  3  Z    0.000000  -0.394069   0.000000   0.000000  -0.055157
   41  O  3  X   -0.147325   0.000000  -0.314562   0.202536   0.000000
   42  O  3  Y    0.271557   0.000000  -0.146576  -0.214898   0.000000
   43  O  3  Z    0.000000  -0.315439   0.000000   0.000000  -0.125986
   44  O  3 XX   -0.001467   0.000000   0.001173   0.005410   0.000000
   45  O  3 YY   -0.001313   0.000000  -0.002669  -0.006234   0.000000
   46  O  3 ZZ    0.002780   0.000000   0.001496   0.000823   0.000000
   47  O  3 XY    0.008139   0.000000   0.003208   0.005170   0.000000
   48  O  3 XZ    0.000000  -0.001273   0.000000   0.000000  -0.017863
   49  O  3 YZ    0.000000  -0.000407   0.000000   0.000000   0.004556

                     21         22         23         24         25
                    0.2222     0.2433     0.2950     0.5066     0.5090
                     A          A          A          A          A   
    1  S  1  S    0.008134  -0.068759  -0.000001   0.000000   0.000604
    2  S  1  S   -0.058960   0.503940   0.000005   0.000000  -0.003937
    3  S  1  S    0.170683  -1.904411  -0.000017   0.000000  -0.003478
    4  S  1  S   -0.070940   2.188146   0.000008   0.000000   0.052099
    5  S  1  X   -0.000001  -0.000003   0.303414   0.000000  -0.000000
    6  S  1  Y    0.246964   0.011821   0.000001   0.000000   0.023895
    7  S  1  Z    0.000000   0.000000   0.000000   0.024889   0.000000
    8  S  1  X    0.000004   0.000014  -1.158674   0.000000   0.000001
    9  S  1  Y   -0.973086  -0.033242  -0.000005   0.000000  -0.098338
   10  S  1  Z    0.000000   0.000000   0.000000  -0.102635   0.000000
   11  S  1  X   -0.000002  -0.000009   1.318020   0.000000   0.000000
   12  S  1  Y    1.325326   0.254984   0.000004   0.000000   0.102207
   13  S  1  Z    0.000000   0.000000   0.000000   0.087710   0.000000
   14  S  1 XX    0.102829   0.031580  -0.000004   0.000000  -0.069799
   15  S  1 YY   -0.115828  -0.032845   0.000001   0.000000   0.865778
   16  S  1 ZZ    0.012999   0.001265   0.000003   0.000000  -0.795978
   17  S  1 XY    0.000000   0.000001   0.212571   0.000000   0.000000
   18  S  1 XZ    0.000000   0.000000   0.000000  -0.000001   0.000000
   19  S  1 YZ    0.000000   0.000000   0.000000   0.968123   0.000000
   20  O  2  S    0.006066   0.017895  -0.001432   0.000000   0.003873
   21  O  2  S    0.008528  -0.011527   0.064742   0.000000  -0.014876
   22  O  2  S   -0.161583  -0.421384  -0.366922   0.000000  -0.021690
   23  O  2  X   -0.047177  -0.149346  -0.277126   0.000000   0.062190
   24  O  2  Y   -0.055140  -0.094568  -0.131390   0.000000  -0.172263
   25  O  2  Z    0.000000   0.000000   0.000000  -0.165228   0.000000
   26  O  2  X    0.032014   0.124751  -0.123590   0.000000  -0.004469
   27  O  2  Y   -0.110471   0.019627  -0.028125   0.000000   0.068238
   28  O  2  Z    0.000000   0.000000   0.000000   0.058408   0.000000
   29  O  2 XX   -0.019714  -0.033951  -0.026970   0.000000   0.013534
   30  O  2 YY    0.012856   0.012462   0.004063   0.000000   0.009631
   31  O  2 ZZ    0.006857   0.021489   0.022906   0.000000  -0.023165
   32  O  2 XY    0.009019  -0.023126  -0.034587   0.000000  -0.029511
   33  O  2 XZ    0.000000   0.000000   0.000000  -0.030685   0.000000
   34  O  2 YZ    0.000000   0.000000   0.000000   0.019684   0.000000
   35  O  3  S    0.006066   0.017895   0.001433   0.000000   0.003873
   36  O  3  S    0.008526  -0.011534  -0.064751   0.000000  -0.014876
   37  O  3  S   -0.161581  -0.421377   0.366933   0.000000  -0.021689
   38  O  3  X    0.047177   0.149347  -0.277128   0.000000  -0.062190
   39  O  3  Y   -0.055141  -0.094570   0.131387   0.000000  -0.172263
   40  O  3  Z    0.000000   0.000000   0.000000  -0.165229   0.000000
   41  O  3  X   -0.032010  -0.124739  -0.123579   0.000000   0.004470
   42  O  3  Y   -0.110472   0.019624   0.028121   0.000000   0.068238
   43  O  3  Z    0.000000   0.000000   0.000000   0.058409   0.000000
   44  O  3 XX   -0.019714  -0.033951   0.026969   0.000000   0.013534
   45  O  3 YY    0.012856   0.012462  -0.004063   0.000000   0.009631
   46  O  3 ZZ    0.006857   0.021489  -0.022906   0.000000  -0.023165
   47  O  3 XY   -0.009019   0.023126  -0.034587   0.000000   0.029511
   48  O  3 XZ    0.000000   0.000000   0.000000   0.030686   0.000000
   49  O  3 YZ    0.000000   0.000000   0.000000   0.019684   0.000000

                     26         27         28         29         30
                    0.5202     0.6292     0.6634     0.7765     0.7833
                     A          A          A          A          A   
    1  S  1  S    0.000000  -0.000000   0.016727   0.000000  -0.000000
    2  S  1  S    0.000000   0.000000  -0.134313   0.000000   0.000000
    3  S  1  S    0.000000  -0.000001   0.488578   0.000000  -0.000002
    4  S  1  S    0.000000  -0.000012   0.818946   0.000000  -0.000005
    5  S  1  X    0.000000  -0.157764  -0.000001   0.000000  -0.039592
    6  S  1  Y    0.000000   0.000000  -0.067575   0.000000   0.000000
    7  S  1  Z    0.000000   0.000000   0.000000   0.000000   0.000000
    8  S  1  X    0.000000   0.797801   0.000006   0.000000   0.326537
    9  S  1  Y    0.000000  -0.000002   0.366456   0.000000  -0.000001
   10  S  1  Z   -0.000000   0.000000   0.000000  -0.000000   0.000000
   11  S  1  X    0.000000   0.196384   0.000007   0.000000  -0.252851
   12  S  1  Y    0.000000  -0.000002   0.087516   0.000000   0.000001
   13  S  1  Z    0.000000   0.000000   0.000000   0.000000   0.000000
   14  S  1 XX    0.000000  -0.000004   0.672907   0.000000  -0.000001
   15  S  1 YY    0.000000   0.000001  -0.244153   0.000000   0.000001
   16  S  1 ZZ    0.000000   0.000002  -0.428754   0.000000   0.000000
   17  S  1 XY    0.000000   0.761167   0.000005   0.000000   0.210868
   18  S  1 XZ    0.855543   0.000000   0.000000  -0.538241   0.000000
   19  S  1 YZ    0.000001   0.000000   0.000000  -0.000000   0.000000
   20  O  2  S    0.000000   0.064771   0.072778   0.000000  -0.001070
   21  O  2  S    0.000000  -0.224125  -0.258227   0.000000   0.080296
   22  O  2  S    0.000000  -0.297542  -0.319201   0.000000  -0.112269
   23  O  2  X    0.000000  -0.014668  -0.327780   0.000000  -0.411510
   24  O  2  Y    0.000000  -0.284005   0.019236   0.000000   0.450173
   25  O  2  Z   -0.374745   0.000000   0.000000  -0.537508   0.000000
   26  O  2  X    0.000000   0.643140   0.972195   0.000000   0.698558
   27  O  2  Y    0.000000   0.410252   0.238975   0.000000  -0.513635
   28  O  2  Z    0.133613   0.000000   0.000000   0.776631   0.000000
   29  O  2 XX    0.000000   0.047807   0.004736   0.000000   0.035968
   30  O  2 YY    0.000000  -0.038462   0.007762   0.000000  -0.020377
   31  O  2 ZZ    0.000000  -0.009345  -0.012498   0.000000  -0.015591
   32  O  2 XY    0.000000  -0.012414   0.019595   0.000000   0.000744
   33  O  2 XZ   -0.056759   0.000000   0.000000   0.058705   0.000000
   34  O  2 YZ   -0.030541   0.000000   0.000000   0.028056   0.000000
   35  O  3  S    0.000000  -0.064772   0.072777   0.000000   0.001069
   36  O  3  S    0.000000   0.224123  -0.258227   0.000000  -0.080284
   37  O  3  S    0.000000   0.297554  -0.319188   0.000000   0.112262
   38  O  3  X    0.000000  -0.014675   0.327767   0.000000  -0.411519
   39  O  3  Y    0.000000   0.284007   0.019234   0.000000  -0.450166
   40  O  3  Z    0.374744   0.000000   0.000000   0.537508   0.000000
   41  O  3  X    0.000000   0.643157  -0.972171   0.000000   0.698572
   42  O  3  Y    0.000000  -0.410257   0.238974   0.000000   0.513625
   43  O  3  Z   -0.133613   0.000000   0.000000  -0.776631   0.000000
   44  O  3 XX    0.000000  -0.047807   0.004735   0.000000  -0.035969
   45  O  3 YY    0.000000   0.038462   0.007763   0.000000   0.020377
   46  O  3 ZZ    0.000000   0.009345  -0.012498   0.000000   0.015591
   47  O  3 XY    0.000000  -0.012414  -0.019595   0.000000   0.000744
   48  O  3 XZ   -0.056759   0.000000   0.000000   0.058705   0.000000
   49  O  3 YZ    0.030541   0.000000   0.000000  -0.028056   0.000000

                     31         32         33         34         35
                    0.8325     0.8536     0.8619     0.9647     1.4374
                     A          A          A          A          A   
    1  S  1  S    0.005262   0.000000   0.000000  -0.001588  -0.003477
    2  S  1  S   -0.046471   0.000000  -0.000000   0.027825   0.037983
    3  S  1  S    0.258329   0.000000   0.000002  -0.439889   0.035029
    4  S  1  S   -0.001213   0.000000  -0.000002   0.565992  -1.670832
    5  S  1  X   -0.000000   0.000000  -0.019280  -0.000000  -0.000004
    6  S  1  Y   -0.003928   0.000000   0.000000  -0.039385   0.035675
    7  S  1  Z    0.000000   0.002564   0.000000   0.000000   0.000000
    8  S  1  X    0.000002   0.000000  -0.155811   0.000000   0.000030
    9  S  1  Y    0.037454   0.000000  -0.000000   0.097378  -0.258099
   10  S  1  Z    0.000000  -0.029033   0.000000   0.000000   0.000000
   11  S  1  X   -0.000002   0.000000   0.202675   0.000006   0.000049
   12  S  1  Y   -0.546898   0.000000  -0.000002  -0.016142  -0.511800
   13  S  1  Z    0.000000  -0.591776   0.000000   0.000000   0.000000
   14  S  1 XX    0.131646   0.000000  -0.000001   0.921336  -0.308364
   15  S  1 YY   -0.278794   0.000000  -0.000000  -0.397523   0.073960
   16  S  1 ZZ    0.147148   0.000000   0.000001  -0.523812   0.234404
   17  S  1 XY   -0.000000   0.000000   0.668808   0.000001   0.000008
   18  S  1 XZ    0.000000   0.000000   0.000000   0.000000   0.000000
   19  S  1 YZ    0.000000  -0.242671   0.000000   0.000000   0.000000
   20  O  2  S   -0.011464   0.000000   0.006963   0.027186   0.072504
   21  O  2  S    0.130438   0.000000   0.011189  -0.040003  -1.214884
   22  O  2  S   -0.101588   0.000000  -0.162586  -0.312213   1.915786
   23  O  2  X    0.079261   0.000000   0.487205   0.527810   0.105137
   24  O  2  Y   -0.599972   0.000000   0.317795   0.157588  -0.075158
   25  O  2  Z    0.000000  -0.619305   0.000000   0.000000   0.000000
   26  O  2  X   -0.055691   0.000000  -0.433289  -0.309273  -0.725735
   27  O  2  Y    0.902895   0.000000  -0.467474   0.062191   0.007824
   28  O  2  Z    0.000000   0.923065   0.000000   0.000000   0.000000
   29  O  2 XX   -0.004078   0.000000   0.027058  -0.042033  -0.154344
   30  O  2 YY    0.005926   0.000000  -0.045633   0.051324   0.067794
   31  O  2 ZZ   -0.001847   0.000000   0.018575  -0.009291   0.086550
   32  O  2 XY    0.040839   0.000000  -0.065627   0.055265  -0.050228
   33  O  2 XZ    0.000000   0.038979   0.000000   0.000000   0.000000
   34  O  2 YZ    0.000000   0.003330   0.000000   0.000000   0.000000
   35  O  3  S   -0.011464   0.000000  -0.006962   0.027187   0.072512
   36  O  3  S    0.130441   0.000000  -0.011199  -0.040015  -1.215014
   37  O  3  S   -0.101592   0.000000   0.162598  -0.312195   1.915987
   38  O  3  X   -0.079266   0.000000   0.487209  -0.527805  -0.105139
   39  O  3  Y   -0.599974   0.000000  -0.317799   0.157590  -0.075149
   40  O  3  Z    0.000000  -0.619306   0.000000   0.000000   0.000000
   41  O  3  X    0.055699   0.000000  -0.433293   0.309268   0.725778
   42  O  3  Y    0.902896   0.000000   0.467479   0.062188   0.007789
   43  O  3  Z    0.000000   0.923066   0.000000   0.000000   0.000000
   44  O  3 XX   -0.004079   0.000000  -0.027058  -0.042033  -0.154355
   45  O  3 YY    0.005926   0.000000   0.045633   0.051324   0.067797
   46  O  3 ZZ   -0.001847   0.000000  -0.018575  -0.009291   0.086558
   47  O  3 XY   -0.040839   0.000000  -0.065627  -0.055265   0.050240
   48  O  3 XZ    0.000000  -0.038979   0.000000   0.000000   0.000000
   49  O  3 YZ    0.000000   0.003330   0.000000   0.000000   0.000000

                     36         37         38         39         40
                    1.4786     2.0601     2.0602     2.0692     2.0760
                     A          A          A          A          A   
    1  S  1  S   -0.000000   0.000000   0.000000   0.000000  -0.001107
    2  S  1  S    0.000003  -0.000000   0.000000   0.000000   0.009467
    3  S  1  S   -0.000004   0.000000   0.000000   0.000000  -0.040265
    4  S  1  S   -0.000075   0.000000   0.000000   0.000000   0.018470
    5  S  1  X    0.072748  -0.000559   0.000000   0.000000  -0.000000
    6  S  1  Y    0.000002  -0.000000   0.000000   0.000000   0.006862
    7  S  1  Z    0.000000   0.000000  -0.000000  -0.022457   0.000000
    8  S  1  X   -0.540484  -0.001486   0.000000   0.000000   0.000000
    9  S  1  Y   -0.000013   0.000000   0.000000   0.000000  -0.029344
   10  S  1  Z    0.000000   0.000000   0.000000   0.079489   0.000000
   11  S  1  X   -1.184618   0.016023   0.000000   0.000000  -0.000000
   12  S  1  Y   -0.000023   0.000000   0.000000   0.000000   0.008741
   13  S  1  Z    0.000000   0.000000  -0.000000   0.008999   0.000000
   14  S  1 XX   -0.000011   0.000000   0.000000   0.000000   0.033736
   15  S  1 YY    0.000002   0.000000   0.000000   0.000000   0.054856
   16  S  1 ZZ    0.000009  -0.000000   0.000000   0.000000  -0.088593
   17  S  1 XY   -0.201485  -0.027175   0.000000   0.000000  -0.000000
   18  S  1 XZ    0.000000   0.000000   0.023618  -0.000000   0.000000
   19  S  1 YZ    0.000000   0.000000  -0.000000  -0.032360   0.000000
   20  O  2  S    0.075172  -0.001039   0.000000   0.000000   0.002281
   21  O  2  S   -1.261441   0.009047   0.000000   0.000000  -0.016918
   22  O  2  S    2.059217  -0.010725   0.000000   0.000000   0.006505
   23  O  2  X   -0.015575   0.002330   0.000000   0.000000   0.017183
   24  O  2  Y    0.102362  -0.008300   0.000000   0.000000   0.003200
   25  O  2  Z    0.000000   0.000000   0.005345   0.018149   0.000000
   26  O  2  X   -0.372345  -0.008964   0.000000   0.000000  -0.016410
   27  O  2  Y   -0.373921   0.011790   0.000000   0.000000  -0.003132
   28  O  2  Z    0.000000   0.000000  -0.008741  -0.029301   0.000000
   29  O  2 XX   -0.113036   0.145156   0.000000   0.000000  -0.007120
   30  O  2 YY    0.037885   0.465765   0.000000   0.000000  -0.586289
   31  O  2 ZZ    0.075151  -0.610921   0.000000   0.000000   0.593408
   32  O  2 XY   -0.106074  -0.304601   0.000000   0.000000   0.190334
   33  O  2 XZ    0.000000   0.000000   0.332014   0.024404   0.000000
   34  O  2 YZ    0.000000   0.000000  -0.624475   0.707824   0.000000
   35  O  3  S   -0.075164   0.001039   0.000000   0.000000   0.002281
   36  O  3  S    1.261318  -0.009046   0.000000   0.000000  -0.016918
   37  O  3  S   -2.059030   0.010725   0.000000   0.000000   0.006504
   38  O  3  X   -0.015589   0.002330   0.000000   0.000000  -0.017183
   39  O  3  Y   -0.102367   0.008300   0.000000   0.000000   0.003200
   40  O  3  Z    0.000000   0.000000  -0.005345   0.018149   0.000000
   41  O  3  X   -0.372272  -0.008964   0.000000   0.000000   0.016410
   42  O  3  Y    0.373921  -0.011790   0.000000   0.000000  -0.003132
   43  O  3  Z    0.000000   0.000000   0.008741  -0.029301   0.000000
   44  O  3 XX    0.113018  -0.145156   0.000000   0.000000  -0.007119
   45  O  3 YY   -0.037876  -0.465766   0.000000   0.000000  -0.586288
   46  O  3 ZZ   -0.075142   0.610922   0.000000   0.000000   0.593407
   47  O  3 XY   -0.106069  -0.304601   0.000000   0.000000  -0.190334
   48  O  3 XZ    0.000000   0.000000   0.332014  -0.024405   0.000000
   49  O  3 YZ    0.000000   0.000000   0.624477   0.707822   0.000000

                     41         42         43         44         45
                    2.1265     2.1984     2.2217     2.2795     2.7082
                     A          A          A          A          A   
    1  S  1  S    0.000000  -0.000000  -0.005932   0.000000  -0.000001
    2  S  1  S    0.000000   0.000000   0.050567   0.000000   0.000006
    3  S  1  S    0.000000  -0.000001  -0.164989   0.000000  -0.000014
    4  S  1  S    0.000000   0.000001  -0.180473   0.000000  -0.000019
    5  S  1  X    0.000000   0.047478  -0.000000   0.000000  -0.225140
    6  S  1  Y    0.000000   0.000000   0.068477   0.000000   0.000002
    7  S  1  Z   -0.056177   0.000000   0.000000  -0.000000   0.000000
    8  S  1  X    0.000000  -0.252694   0.000001   0.000000   1.230343
    9  S  1  Y    0.000000  -0.000000  -0.280215   0.000000  -0.000009
   10  S  1  Z    0.198179   0.000000   0.000000   0.000000   0.000000
   11  S  1  X    0.000000  -0.028882  -0.000002   0.000000   0.179239
   12  S  1  Y    0.000000   0.000000  -0.120518   0.000000  -0.000002
   13  S  1  Z    0.061108   0.000000   0.000000  -0.000000   0.000000
   14  S  1 XX    0.000000   0.000000   0.186149   0.000000  -0.000017
   15  S  1 YY    0.000000  -0.000000  -0.247469   0.000000   0.000007
   16  S  1 ZZ    0.000000   0.000000   0.061321   0.000000   0.000009
   17  S  1 XY    0.000000   0.323963  -0.000001   0.000000   0.513838
   18  S  1 XZ   -0.000000   0.000000   0.000000   0.458522   0.000000
   19  S  1 YZ    0.187330   0.000000   0.000000   0.000000   0.000000
   20  O  2  S    0.000000   0.009645   0.012178   0.000000  -0.002161
   21  O  2  S    0.000000  -0.141672  -0.199020   0.000000   0.453906
   22  O  2  S    0.000000   0.187698   0.291492   0.000000  -1.020647
   23  O  2  X    0.000000   0.051811   0.091405   0.000000  -0.002670
   24  O  2  Y    0.000000   0.063025  -0.034249   0.000000  -0.009316
   25  O  2  Z    0.056249   0.000000   0.000000   0.038811   0.000000
   26  O  2  X    0.000000  -0.081795  -0.215937   0.000000   0.619473
   27  O  2  Y    0.000000  -0.149170   0.105388   0.000000   0.212921
   28  O  2  Z   -0.119501   0.000000   0.000000  -0.138926   0.000000
   29  O  2 XX    0.000000  -0.282781   0.510934   0.000000  -0.728362
   30  O  2 YY    0.000000   0.436225  -0.378228   0.000000   0.359983
   31  O  2 ZZ    0.000000  -0.153445  -0.132706   0.000000   0.368379
   32  O  2 XY    0.000000   0.567109  -0.488897   0.000000  -0.342920
   33  O  2 XZ    0.719185   0.000000   0.000000   0.650356   0.000000
   34  O  2 YZ   -0.018177   0.000000   0.000000   0.340922   0.000000
   35  O  3  S    0.000000  -0.009645   0.012178   0.000000   0.002161
   36  O  3  S    0.000000   0.141671  -0.199019   0.000000  -0.453925
   37  O  3  S    0.000000  -0.187698   0.291489   0.000000   1.020692
   38  O  3  X    0.000000   0.051811  -0.091405   0.000000  -0.002669
   39  O  3  Y    0.000000  -0.063025  -0.034249   0.000000   0.009315
   40  O  3  Z    0.056248   0.000000   0.000000  -0.038811   0.000000
   41  O  3  X    0.000000  -0.081795   0.215937   0.000000   0.619499
   42  O  3  Y    0.000000   0.149170   0.105388   0.000000  -0.212931
   43  O  3  Z   -0.119501   0.000000   0.000000   0.138926   0.000000
   44  O  3 XX    0.000000   0.282783   0.510934   0.000000   0.728385
   45  O  3 YY    0.000000  -0.436227  -0.378227   0.000000  -0.359989
   46  O  3 ZZ    0.000000   0.153444  -0.132707   0.000000  -0.368396
   47  O  3 XY    0.000000   0.567109   0.488895   0.000000  -0.342943
   48  O  3 XZ   -0.719185   0.000000   0.000000   0.650356   0.000000
   49  O  3 YZ   -0.018177   0.000000   0.000000  -0.340922   0.000000

                     46
                    2.7112
                     A   
    1  S  1  S   -0.035973
    2  S  1  S    0.291058
    3  S  1  S   -0.795096
    4  S  1  S   -0.853809
    5  S  1  X    0.000005
    6  S  1  Y    0.076171
    7  S  1  Z    0.000000
    8  S  1  X   -0.000025
    9  S  1  Y   -0.436691
   10  S  1  Z    0.000000
   11  S  1  X   -0.000008
   12  S  1  Y   -0.075451
   13  S  1  Z    0.000000
   14  S  1 XX   -0.772177
   15  S  1 YY    0.335474
   16  S  1 ZZ    0.436704
   17  S  1 XY   -0.000011
   18  S  1 XZ    0.000000
   19  S  1 YZ    0.000000
   20  O  2  S   -0.000057
   21  O  2  S   -0.496040
   22  O  2  S    1.123774
   23  O  2  X   -0.007620
   24  O  2  Y   -0.009292
   25  O  2  Z    0.000000
   26  O  2  X   -0.651453
   27  O  2  Y   -0.255164
   28  O  2  Z    0.000000
   29  O  2 XX    0.574000
   30  O  2 YY   -0.156274
   31  O  2 ZZ   -0.417727
   32  O  2 XY    0.569239
   33  O  2 XZ    0.000000
   34  O  2 YZ    0.000000
   35  O  3  S   -0.000057
   36  O  3  S   -0.496020
   37  O  3  S    1.123727
   38  O  3  X    0.007619
   39  O  3  Y   -0.009293
   40  O  3  Z    0.000000
   41  O  3  X    0.651429
   42  O  3  Y   -0.255154
   43  O  3  Z    0.000000
   44  O  3 XX    0.573971
   45  O  3 YY   -0.156259
   46  O  3 ZZ   -0.417712
   47  O  3 XY   -0.569225
   48  O  3 XZ    0.000000
   49  O  3 YZ    0.000000
 ...... END OF RHF CALCULATION ......
 STEP CPU TIME =     2.48 TOTAL CPU TIME =          2.6 (      0.0 MIN)
 TOTAL WALL CLOCK TIME=          2.7 SECONDS, CPU UTILIZATION IS    98.50%

     ---------------------------------------------------------------------
     PROPERTIES FOR THE PBE      DFT FUNCTIONAL (RHF  TYPE) DENSITY MATRIX
     ---------------------------------------------------------------------

          -----------------
          ENERGY COMPONENTS
          -----------------

         WAVEFUNCTION NORMALIZATION =       1.0000000000

                ONE ELECTRON ENERGY =    -952.1840543010
                TWO ELECTRON ENERGY =     304.9345484355
           NUCLEAR REPULSION ENERGY =      99.0256858893
                                      ------------------
                       TOTAL ENERGY =    -548.2238199762

 ELECTRON-ELECTRON POTENTIAL ENERGY =     304.9345484355
  NUCLEUS-ELECTRON POTENTIAL ENERGY =   -1499.2963342539
   NUCLEUS-NUCLEUS POTENTIAL ENERGY =      99.0256858893
                                      ------------------
             TOTAL POTENTIAL ENERGY =   -1095.3360999291
               TOTAL KINETIC ENERGY =     547.1122799529
                 VIRIAL RATIO (V/T) =       2.0020316488

          ---------------------------------------
          MULLIKEN AND LOWDIN POPULATION ANALYSES
          ---------------------------------------

     ATOMIC MULLIKEN POPULATION IN EACH MOLECULAR ORBITAL

                      1          2          3          4          5

                  2.000000   2.000000   2.000000   2.000000   2.000000

    1             1.999943   0.001135   0.000904   2.000902   2.000326
    2             0.000028   1.004863   0.994118  -0.000451  -0.000163
    3             0.000028   0.994002   1.004979  -0.000451  -0.000163

                      6          7          8          9         10

                  2.000000   2.000000   2.000000   2.000000   2.000000

    1             2.000018   2.000029   0.659110   0.352967   0.939604
    2            -0.000009  -0.000014   0.670441   0.823520   0.530196
    3            -0.000009  -0.000014   0.670449   0.823513   0.530200

                     11         12         13         14         15

                  2.000000   2.000000   2.000000   2.000000   2.000000

    1             0.456325   1.044836   1.019387   0.087537   0.112204
    2             0.771839   0.477582   0.490306   0.956232   0.943899
    3             0.771836   0.477582   0.490307   0.956231   0.943898

                     16

                  2.000000

    1             0.670840
    2             0.664580
    3             0.664580

               ----- POPULATIONS IN EACH AO -----
                             MULLIKEN      LOWDIN
              1  S  1  S      1.99982     1.99926
              2  S  1  S      1.99237     1.88716
              3  S  1  S      1.33112     0.67236
              4  S  1  S      0.60782     0.49019
              5  S  1  X      1.99388     1.95680
              6  S  1  Y      1.99477     1.96523
              7  S  1  Z      1.99380     1.95978
              8  S  1  X      0.81059     0.67002
              9  S  1  Y      0.99331     0.91186
             10  S  1  Z      0.84150     0.75300
             11  S  1  X      0.00987     0.18953
             12  S  1  Y      0.16907     0.29964
             13  S  1  Z      0.20207     0.31031
             14  S  1 XX      0.04863     0.34363
             15  S  1 YY      0.15382     0.31747
             16  S  1 ZZ      0.10863     0.31608
             17  S  1 XY      0.08754     0.12677
             18  S  1 XZ      0.00749     0.10479
             19  S  1 YZ      0.00000     0.00718
             20  O  2  S      1.99561     1.97280
             21  O  2  S      0.96081     0.70359
             22  O  2  S      0.93916     0.53192
             23  O  2  X      0.85036     0.80992
             24  O  2  Y      1.07769     1.04593
             25  O  2  Z      0.85462     0.81815
             26  O  2  X      0.40564     0.54353
             27  O  2  Y      0.65163     0.69350
             28  O  2  Z      0.57393     0.60743
             29  O  2 XX      0.00185     0.21243
             30  O  2 YY      0.00566     0.20047
             31  O  2 ZZ      0.00476     0.20471
             32  O  2 XY      0.00470     0.00820
             33  O  2 XZ      0.00055     0.00617
             34  O  2 YZ      0.00000     0.00072
             35  O  3  S      1.99561     1.97280
             36  O  3  S      0.96081     0.70359
             37  O  3  S      0.93916     0.53192
             38  O  3  X      0.85036     0.80992
             39  O  3  Y      1.07769     1.04593
             40  O  3  Z      0.85462     0.81815
             41  O  3  X      0.40564     0.54353
             42  O  3  Y      0.65163     0.69350
             43  O  3  Z      0.57393     0.60743
             44  O  3 XX      0.00185     0.21243
             45  O  3 YY      0.00566     0.20047
             46  O  3 ZZ      0.00476     0.20471
             47  O  3 XY      0.00470     0.00820
             48  O  3 XZ      0.00055     0.00617
             49  O  3 YZ      0.00000     0.00072

          ----- MULLIKEN ATOMIC OVERLAP POPULATIONS -----
          (OFF-DIAGONAL ELEMENTS NEED TO BE MULTIPLIED BY 2)

             1           2           3

    1   14.8328641
    2    0.2566025   8.0719405
    3    0.2566005  -0.0015768   8.0719430

          TOTAL MULLIKEN AND LOWDIN ATOMIC POPULATIONS
       ATOM         MULL.POP.    CHARGE          LOW.POP.     CHARGE
    1 S            15.346067    0.653933        15.281056    0.718944
    2 O             8.326966   -0.326966         8.359472   -0.359472
    3 O             8.326967   -0.326967         8.359472   -0.359472

          MULLIKEN SPHERICAL HARMONIC POPULATIONS
       ATOM           S       P       D      F      G      H      I    TOTAL
    1 S             5.93    9.01    0.41   0.00   0.00   0.00   0.00   15.35
    2 O             3.90    4.41    0.02   0.00   0.00   0.00   0.00    8.33
    3 O             3.90    4.41    0.02   0.00   0.00   0.00   0.00    8.33

          -------------------------------
          BOND ORDER AND VALENCE ANALYSIS     BOND ORDER THRESHOLD=0.050
          -------------------------------

                   BOND                       BOND                       BOND
  ATOM PAIR DIST  ORDER      ATOM PAIR DIST  ORDER      ATOM PAIR DIST  ORDER
    1   2  1.550  1.805        1   3  1.550  1.805        2   3  2.913  0.346

                       TOTAL       BONDED        FREE
      ATOM            VALENCE     VALENCE     VALENCE
    1 S                 3.610       3.610      -0.000
    2 O                 2.151       2.151       0.000
    3 O                 2.151       2.151       0.000

          ---------------------
          ELECTROSTATIC MOMENTS
          ---------------------

 POINT   1           X           Y           Z (BOHR)    CHARGE
                -0.000000   -0.000000    0.000000        0.00 (A.U.)
         DX          DY          DZ         /D/  (DEBYE)
    -0.000000   -0.887403    0.000000    0.887403
 ...... END OF PROPERTY EVALUATION ......
 STEP CPU TIME =     0.00 TOTAL CPU TIME =          2.6 (      0.0 MIN)
 TOTAL WALL CLOCK TIME=          2.7 SECONDS, CPU UTILIZATION IS    98.13%
                580000  WORDS OF DYNAMIC MEMORY USED
 EXECUTION OF GAMESS TERMINATED NORMALLY Sun Sep 29 10:50:32 2019
 DDI: 263640 bytes (0.3 MB / 0 MWords) used by master data server.

 ----------------------------------------
 CPU timing information for all processes
 ========================================
 0: 2.555 + 0.87 = 2.642
 ----------------------------------------
 ddikick.x: exited gracefully.
----- accounting info -----
Files used on the master node crcfe02.crc.nd.edu were:
-rw-r--r-- 1 cdrisko campus     208 Sep 29 10:50 /afs/crc.nd.edu/user/c/cdrisko/SO2.F05
-rw-r--r-- 1 cdrisko campus   37566 Sep 29 10:50 /afs/crc.nd.edu/user/c/cdrisko/SO2.F07
-rw-r--r-- 1 cdrisko campus 3960352 Sep 29 10:50 /afs/crc.nd.edu/user/c/cdrisko/SO2.F08
-rw-r--r-- 1 cdrisko campus 1766880 Sep 29 10:50 /afs/crc.nd.edu/user/c/cdrisko/SO2.F10
Sun Sep 29 10:50:36 EDT 2019
0.453u 0.225s 0:06.33 10.5%	0+0k 0+24io 0pf+0w
