----- GAMESS execution script 'rungms' -----
This job is running on host crcfe02.crc.nd.edu
under operating system Linux at Sun Sep 29 10:46:25 EDT 2019
Available scratch disk space (Kbyte units) at beginning of the job is
Filesystem      1K-blocks  Used  Available Use% Mounted on
AFS            2147483647     0 2147483647   0% /afs
GAMESS temporary binary files will be written to /afs/crc.nd.edu/user/c/cdrisko
GAMESS supplementary output files will be written to /afs/crc.nd.edu/user/c/cdrisko/scr
Copying input file SO2.inp to your run's scratch directory...

 Distributed Data Interface kickoff program.
 Initiating 1 compute processes on 1 nodes to run the following command:
 /afs/crc.nd.edu/x86_64_linux/g/gamess/nov-2017/gamess/gamess.00.x SO2 

          ******************************************************
          *         GAMESS VERSION = 11 NOV 2017 (R3)         *
          *             FROM IOWA STATE UNIVERSITY             *
          * M.W.SCHMIDT, K.K.BALDRIDGE, J.A.BOATZ, S.T.ELBERT, *
          *   M.S.GORDON, J.H.JENSEN, S.KOSEKI, N.MATSUNAGA,   *
          *          K.A.NGUYEN, S.J.SU, T.L.WINDUS,           *
          *       TOGETHER WITH M.DUPUIS, J.A.MONTGOMERY       *
          *         J.COMPUT.CHEM.  14, 1347-1363(1993)        *
          **************** 64 BIT INTEL VERSION ****************

  SINCE 1993, STUDENTS AND POSTDOCS WORKING AT IOWA STATE UNIVERSITY
  AND ALSO IN THEIR VARIOUS JOBS AFTER LEAVING ISU HAVE MADE IMPORTANT
  CONTRIBUTIONS TO THE CODE:
     IVANA ADAMOVIC, CHRISTINE AIKENS, YURI ALEXEEV, POOJA ARORA,
     ANDREY ASADCHEV, ROB BELL, PRADIPTA BANDYOPADHYAY, JONATHAN BENTZ,
     BRETT BODE, KURT BRORSEN, CALEB CARLIN, GALINA CHABAN, WEI CHEN,
     CHEOL HO CHOI, PAUL DAY, ALBERT DEFUSCO, NUWAN DESILVA, TIM DUDLEY,
     DMITRI FEDOROV, ALEX FINDLATER, GRAHAM FLETCHER, MARK FREITAG,
     KURT GLAESEMANN, ANASTASIA GUININA,
     DAN KEMP, GRANT MERRILL, NORIYUKI MINEZAWA, JONATHAN MULLIN,
     TAKESHI NAGATA, SEAN NEDD, HEATHER NETZLOFF, BOSILJKA NJEGIC, RYAN OLSON,
     MIKE PAK, BUU PHAM,
     SPENCER PRUITT, LUKE ROSKOP, JIM SHOEMAKER, LYUDMILA SLIPCHENKO,
     TONY SMITH, SAROM SOK LEANG, JIE SONG, TETSUYA TAKETSUGU, SIMON WEBB,
     PENG XU, SOOHAENG YOO, FEDERICO ZAHARIEV

  ADDITIONAL CODE HAS BEEN PROVIDED BY COLLABORATORS IN OTHER GROUPS:
     IOWA STATE UNIVERSITY:
          JOE IVANIC, AARON WEST, LAIMUTIS BYTAUTAS, KLAUS RUEDENBERG
     UNIVERSITY OF TOKYO: KIMIHIKO HIRAO, TAKAHITO NAKAJIMA,
          TAKAO TSUNEDA, MUNEAKI KAMIYA, SUSUMU YANAGISAWA,
          KIYOSHI YAGI, MAHITO CHIBA, SEIKEN TOKURA, NAOAKI KAWAKAMI
     UNIVERSITY OF AARHUS: FRANK JENSEN
     UNIVERSITY OF IOWA: VISVALDAS KAIRYS, HUI LI
     NATIONAL INST. OF STANDARDS AND TECHNOLOGY: WALT STEVENS, DAVID GARMER
     UNIVERSITY OF PISA: BENEDETTA MENNUCCI, JACOPO TOMASI
     UNIVERSITY OF MEMPHIS: HENRY KURTZ, PRAKASHAN KORAMBATH
     UNIVERSITY OF ALBERTA: TOBY ZENG, MARIUSZ KLOBUKOWSKI
     UNIVERSITY OF NEW ENGLAND: MARK SPACKMAN
     MIE UNIVERSITY: HIROAKI UMEDA
     NAT. INST. OF ADVANCED INDUSTRIAL SCIENCE AND TECHNOLOGY: KAZUO KITAURA
     MICHIGAN STATE UNIVERSITY:
          KAROL KOWALSKI, MARTA WLOCH, JEFFREY GOUR, JESSE LUTZ,
          WEI LI, PIOTR PIECUCH
     UNIVERSITY OF SILESIA: MONIKA MUSIAL, STANISLAW KUCHARSKI
     FACULTES UNIVERSITAIRES NOTRE-DAME DE LA PAIX:
          OLIVIER QUINET, BENOIT CHAMPAGNE
     UNIVERSITY OF CALIFORNIA - SANTA BARBARA: BERNARD KIRTMAN
     INSTITUTE FOR MOLECULAR SCIENCE:
          KAZUYA ISHIMURA, MICHIO KATOUDA, AND SHIGERU NAGASE
     UNIVERSITY OF NOTRE DAME: ANNA POMOGAEVA, DAN CHIPMAN
     KYUSHU UNIVERSITY:
          HARUYUKI NAKANO,
          FENG LONG GU, JACEK KORCHOWIEC, MARCIN MAKOWSKI, AND YURIKO AOKI,
          HIROTOSHI MORI AND EISAKU MIYOSHI
     PENNSYLVANIA STATE UNIVERSITY:
          TZVETELIN IORDANOV, CHET SWALINA, JONATHAN SKONE,
          SHARON HAMMES-SCHIFFER
     WASEDA UNIVERSITY:
          MASATO KOBAYASHI, TOMOKO AKAMA, TSUGUKI TOUMA,
          TAKESHI YOSHIKAWA, YASUHIRO IKABATA, JUNJI SEINO,
          YUYA NAKAJIMA, HIROMI NAKAI
     NANJING UNIVERSITY: SHUHUA LI
     UNIVERSITY OF NEBRASKA:
          PEIFENG SU, DEJUN SI, NANDUN THELLAMUREGE, YALI WANG, HUI LI
     UNIVERSITY OF ZURICH: ROBERTO PEVERATI, KIM BALDRIDGE
     N. COPERNICUS UNIVERSITY AND JACKSON STATE UNIVERSITY:
          MARIA BARYSZ
     UNIVERSITY OF COPENHAGEN: Jimmy Kromann, CASPER STEINMANN
     TOKYO INSTITUTE OF TECHNOLOGY: HIROYA NAKATA
     NAGOYA UNIVERSITY: YOSHIO NISHIMOTO, STEPHAN IRLE
     MOSCOW STATE UNIVERSITY: VLADIMIR MIRONOV

 EXECUTION OF GAMESS BEGUN Sun Sep 29 10:46:25 2019

            ECHO OF THE FIRST FEW INPUT CARDS -
 INPUT CARD> $BASIS GBASIS=PCSEG-1 $END                                                     
 INPUT CARD> $CONTRL COORD=ZMT ISPHER=1 RUNTYP=ENERGY DFTTYP=PBE MULT=1 $END                
 INPUT CARD>                                                                                
 INPUT CARD> $DATA                                                                          
 INPUT CARD>Title SO2 single-point calculation template with Z-Matrix                       
 INPUT CARD>C1                                                                              
 INPUT CARD>S                                                                               
 INPUT CARD>O 1 1.40                                                                        
 INPUT CARD>O 1 1.40 2 145                                                                  
 INPUT CARD> $END                                                                           
    1000000 WORDS OF MEMORY AVAILABLE

     BASIS OPTIONS
     -------------
     GBASIS=PCSEG-1      IGAUSS=       0      POLAR=NONE    
     NDFUNC=       0     NFFUNC=       0     DIFFSP=       F
     NPFUNC=       0      DIFFS=       F     BASNAM=        


     RUN TITLE
     ---------
 Title SO2 single-point calculation template with Z-Matrix                       

 THE POINT GROUP OF THE MOLECULE IS C1      
 THE ORDER OF THE PRINCIPAL AXIS IS     0

 YOUR FULLY SUBSTITUTED Z-MATRIX IS
 S   
 O      1   1.4000000
 O      1   1.4000000  2  145.0000

 THE MOMENTS OF INERTIA ARE (AMU-ANGSTROM**2)
 IXX=     2.834   IYY=    57.030   IZZ=    59.864

 ATOM      ATOMIC                      COORDINATES (BOHR)
           CHARGE         X                   Y                   Z
 S          16.0     0.0000000000       -0.3978864812        0.0000000000
 O           8.0     2.5231691895        0.3976657083        0.0000000000
 O           8.0    -2.5231691895        0.3976657083        0.0000000000

          INTERNUCLEAR DISTANCES (ANGS.)
          ------------------------------

                1 S          2 O          3 O     

   1 S       0.0000000    1.4000000 *  1.4000000 *
   2 O       1.4000000 *  0.0000000    2.6704075 *
   3 O       1.4000000 *  2.6704075 *  0.0000000  

  * ... LESS THAN  3.000


     ATOMIC BASIS SET
     ----------------
 THE CONTRACTED PRIMITIVE FUNCTIONS HAVE BEEN UNNORMALIZED
 THE CONTRACTED BASIS FUNCTIONS ARE NOW NORMALIZED TO UNITY

  SHELL TYPE  PRIMITIVE        EXPONENT          CONTRACTION COEFFICIENT(S)

 S         

      1   S       1         49299.4000000    0.000677492991
      1   S       2          7395.8400000    0.005232317766
      1   S       3          1683.3000000    0.026769459077
      1   S       4           476.1440000    0.102869580705
      1   S       5           154.3290000    0.286438127414
      1   S       6            55.0288000    0.454278639081
      1   S       7            20.5029000    0.271743121997

      2   S       8            45.9596000   -0.088421914560
      2   S       9             4.9274000    0.564350486135
      2   S      10             1.9179900    0.505415953466

      3   S      11             0.3684980    1.000000000000

      4   S      12             0.1291650    1.000000000000

      5   P      13           451.6620000    0.003707705453
      5   P      14           106.0980000    0.029219352245
      5   P      15            33.6996000    0.124444551509
      5   P      16            12.3054000    0.321808587656
      5   P      17             4.7141200    0.462822172957
      5   P      18             1.7810500    0.266513371364

      6   P      19             0.8722350    0.349265132972
      6   P      20             0.3102780    0.717115018770

      7   P      21             0.1001940    1.000000000000

      8   D      22             0.5500000    1.000000000000

 O         

      9   S      23          2288.6400000    0.005451138222
      9   S      24           344.4160000    0.040718922842
      9   S      25            78.2538000    0.181369420873
      9   S      26            21.7195000    0.465536820246
      9   S      27             6.5590700    0.451211321214

     10   S      28            10.4656000   -0.150211201174
     10   S      29             0.9643510    1.052867983385

     11   S      30             0.2851270    1.000000000000

     12   P      31            17.0590000    0.068749256972
     12   P      32             3.6899900    0.351671941499
     12   P      33             0.9929960    0.724532099722

     13   P      34             0.2449240    1.000000000000

     14   D      35             1.0000000    1.000000000000

 O         

     15   S      36          2288.6400000    0.005451138222
     15   S      37           344.4160000    0.040718922842
     15   S      38            78.2538000    0.181369420873
     15   S      39            21.7195000    0.465536820246
     15   S      40             6.5590700    0.451211321214

     16   S      41            10.4656000   -0.150211201174
     16   S      42             0.9643510    1.052867983385

     17   S      43             0.2851270    1.000000000000

     18   P      44            17.0590000    0.068749256972
     18   P      45             3.6899900    0.351671941499
     18   P      46             0.9929960    0.724532099722

     19   P      47             0.2449240    1.000000000000

     20   D      48             1.0000000    1.000000000000

 TOTAL NUMBER OF BASIS SET SHELLS             =   20
 NUMBER OF CARTESIAN GAUSSIAN BASIS FUNCTIONS =   49
 NOTE: THIS RUN WILL RESTRICT THE MO VARIATION SPACE TO SPHERICAL HARMONICS.
 THE NUMBER OF ORBITALS KEPT IN THE VARIATIONAL SPACE WILL BE PRINTED LATER.
 NUMBER OF ELECTRONS                          =   32
 CHARGE OF MOLECULE                           =    0
 SPIN MULTIPLICITY                            =    1
 NUMBER OF OCCUPIED ORBITALS (ALPHA)          =   16
 NUMBER OF OCCUPIED ORBITALS (BETA )          =   16
 TOTAL NUMBER OF ATOMS                        =    3
 THE NUCLEAR REPULSION ENERGY IS      109.4463029054

     LEBEDEV GRID-BASED DFT OPTIONS
     ------------------------------
     DFTTYP=PBE     
     NRAD  =      96     NLEB  =     302
     NRAD0 =      24     NLEB0 =     110
     SWOFF =    5.00E-03 (PURE SCF -> DFT)
     SWITCH=    3.00E-04 (COARSE -> TIGHT GRID)
     THRESH=    0.00E+00 GTHRE=    1.00E+00

 GRIMME'S EMPIRICAL DISPERSION CORRECTION= F

     $CONTRL OPTIONS
     ---------------
 SCFTYP=RHF          RUNTYP=ENERGY       EXETYP=RUN     
 MPLEVL=       0     CITYP =NONE         CCTYP =NONE         VBTYP =NONE    
 DFTTYP=PBE          TDDFT =NONE    
 MULT  =       1     ICHARG=       0     NZVAR =       0     COORD =ZMT     
 PP    =NONE         RELWFN=NONE         LOCAL =NONE         NUMGRD=       F
 ISPHER=       1     NOSYM =       0     MAXIT =      30     UNITS =ANGS    
 PLTORB=       F     MOLPLT=       F     AIMPAC=       F     FRIEND=        
 NPRINT=       7     IREST =       0     GEOM  =INPUT   
 NORMF =       0     NORMP =       0     ITOL  =      20     ICUT  =       9
 INTTYP=BEST         GRDTYP=BEST         QMTTOL= 1.0E-06

     $SYSTEM OPTIONS
     ---------------
  REPLICATED MEMORY=     1000000 WORDS (ON EVERY NODE).
 DISTRIBUTED MEMDDI=           0 MILLION WORDS IN AGGREGATE,
 MEMDDI DISTRIBUTED OVER   1 PROCESSORS IS           0 WORDS/PROCESSOR.
 TOTAL MEMORY REQUESTED ON EACH PROCESSOR=     1000000 WORDS.
 TIMLIM=      525600.00 MINUTES, OR     365.0 DAYS.
 PARALL= F  BALTYP=  DLB     KDIAG=    0  COREFL= F
 MXSEQ2=     300 MXSEQ3=     150  mem10=         0

          ----------------
          PROPERTIES INPUT
          ----------------

     MOMENTS            FIELD           POTENTIAL          DENSITY
 IEMOM =       1   IEFLD =       0   IEPOT =       0   IEDEN =       0
 WHERE =COMASS     WHERE =NUCLEI     WHERE =NUCLEI     WHERE =NUCLEI  
 OUTPUT=BOTH       OUTPUT=BOTH       OUTPUT=BOTH       OUTPUT=BOTH    
 IEMINT=       0   IEFINT=       0                     IEDINT=       0
                                                       MORB  =       0
          EXTRAPOLATION IN EFFECT
          DIIS IN EFFECT
 ORBITAL PRINTING OPTION: NPREO=     1    49     2     1

     -------------------------------
     INTEGRAL TRANSFORMATION OPTIONS
     -------------------------------
     NWORD  =            0
     CUTOFF = 1.0E-09     MPTRAN =       0
     DIRTRF =       F     AOINTS =DUP     

          ----------------------
          INTEGRAL INPUT OPTIONS
          ----------------------
 NOPK  =       1 NORDER=       0 SCHWRZ=       F

   --- ENCODED Z MATRIX ---
 COORD  TYPE   I   J   K   L   M   N
    1      1    2   1
    2      1    3   1
    3      2    3   1   2

 THE DETERMINANT OF THE G MATRIX IS 10**(    -4)

 THE DETERMINANT OF THE G MATRIX IS 10**(    -4)
 * * * WARNING * * *
 YOUR B MATRIX HAS A SMALL DETERMINANT.
 THIS SUGGESTS YOU MAY HAVE BADLY CHOSEN COORDINATES.

     ------------------------------------------
     THE POINT GROUP IS C1 , NAXIS= 0, ORDER= 1
     ------------------------------------------

 -- VARIATIONAL SPACE WILL BE RESTRICTED TO PURE SPHERICAL HARMONICS ONLY --
 AFTER EXCLUDING CONTAMINANT COMBINATIONS FROM THE CARTESIAN GAUSSIAN BASIS
 SET, THE NUMBER OF SPHERICAL HARMONICS KEPT IN THE VARIATION SPACE IS   46

     DIMENSIONS OF THE SYMMETRY SUBSPACES ARE
 A   =   46

 ..... DONE SETTING UP THE RUN .....
 STEP CPU TIME =     0.04 TOTAL CPU TIME =          0.0 (      0.0 MIN)
 TOTAL WALL CLOCK TIME=          0.0 SECONDS, CPU UTILIZATION IS    80.00%

          ********************
          1 ELECTRON INTEGRALS
          ********************
 ...... END OF ONE-ELECTRON INTEGRALS ......
 STEP CPU TIME =     0.00 TOTAL CPU TIME =          0.0 (      0.0 MIN)
 TOTAL WALL CLOCK TIME=          0.0 SECONDS, CPU UTILIZATION IS    80.00%

          -------------
          GUESS OPTIONS
          -------------
          GUESS =HUCKEL            NORB  =       0          NORDER=       0
          MIX   =       F          PRTMO =       F          PUNMO =       F
          TOLZ  = 1.0E-08          TOLE  = 1.0E-05
          SYMDEN=       F          PURIFY=       F

 INITIAL GUESS ORBITALS GENERATED BY HUCKEL   ROUTINE.
 HUCKEL GUESS REQUIRES     21634 WORDS.

 STATISTICS FOR GENERATION OF SYMMETRY ORBITAL -Q- MATRIX
 NUMBER OF CARTESIAN ATOMIC ORBITALS=         49
 NUMBER OF SPHERICAL CONTAMINANTS DROPPED=     3
 NUMBER OF LINEARLY DEPENDENT MOS DROPPED=     0
 TOTAL NUMBER OF MOS IN VARIATION SPACE=      46

 SYMMETRIES FOR INITIAL GUESS ORBITALS FOLLOW.   BOTH SET(S).
    16 ORBITALS ARE OCCUPIED (    7 CORE ORBITALS).
     8=A        9=A       10=A       11=A       12=A       13=A       14=A   
    15=A       16=A       17=A       18=A       19=A       20=A       21=A   
    22=A       23=A       24=A       25=A       26=A   
 ...... END OF INITIAL ORBITAL SELECTION ......
 STEP CPU TIME =     0.00 TOTAL CPU TIME =          0.0 (      0.0 MIN)
 TOTAL WALL CLOCK TIME=          0.0 SECONDS, CPU UTILIZATION IS    80.00%

                    ----------------------
                    AO INTEGRAL TECHNOLOGY
                    ----------------------
     S,P,L SHELL ROTATED AXIS INTEGRALS, REPROGRAMMED BY
        KAZUYA ISHIMURA (IMS) AND JOSE SIERRA (SYNSTAR).
     S,P,D,L SHELL ROTATED AXIS INTEGRALS PROGRAMMED BY
        KAZUYA ISHIMURA (INSTITUTE FOR MOLECULAR SCIENCE).
     S,P,D,F,G SHELL TO TOTAL QUARTET ANGULAR MOMENTUM SUM 5,
        ERIC PROGRAM BY GRAHAM FLETCHER (ELORET AND NASA ADVANCED
        SUPERCOMPUTING DIVISION, AMES RESEARCH CENTER).
     S,P,D,F,G,L SHELL GENERAL RYS QUADRATURE PROGRAMMED BY
        MICHEL DUPUIS (PACIFIC NORTHWEST NATIONAL LABORATORY).

          --------------------
          2 ELECTRON INTEGRALS
          --------------------

 THE -PK- OPTION IS OFF, THE INTEGRALS ARE NOT IN SUPERMATRIX FORM.
 STORING   15000 INTEGRALS/RECORD ON DISK, USING 12 BYTES/INTEGRAL.
 TWO ELECTRON INTEGRAL EVALUATION REQUIRES   90606 WORDS OF MEMORY.
 II,JST,KST,LST =  1  1  1  1 NREC =         1 INTLOC =    1
 II,JST,KST,LST =  2  1  1  1 NREC =         1 INTLOC =    2
 II,JST,KST,LST =  3  1  1  1 NREC =         1 INTLOC =    7
 II,JST,KST,LST =  4  1  1  1 NREC =         1 INTLOC =   22
 II,JST,KST,LST =  5  1  1  1 NREC =         1 INTLOC =   56
 II,JST,KST,LST =  6  1  1  1 NREC =         1 INTLOC =  125
 II,JST,KST,LST =  7  1  1  1 NREC =         1 INTLOC =  329
 II,JST,KST,LST =  8  1  1  1 NREC =         1 INTLOC =  776
 II,JST,KST,LST =  9  1  1  1 NREC =         1 INTLOC = 2864
 II,JST,KST,LST = 10  1  1  1 NREC =         1 INTLOC = 4993
 II,JST,KST,LST = 11  1  1  1 NREC =         1 INTLOC = 7661
 II,JST,KST,LST = 12  1  1  1 NREC =         1 INTLOC =10779
 II,JST,KST,LST = 13  1  1  1 NREC =         2 INTLOC = 6707
 II,JST,KST,LST = 14  1  1  1 NREC =         3 INTLOC = 6981
 II,JST,KST,LST = 15  1  1  1 NREC =         6 INTLOC = 9015
 II,JST,KST,LST = 16  1  1  1 NREC =         7 INTLOC = 1480
 II,JST,KST,LST = 17  1  1  1 NREC =         7 INTLOC =13126
 II,JST,KST,LST = 18  1  1  1 NREC =         8 INTLOC =11560
 II,JST,KST,LST = 19  1  1  1 NREC =        11 INTLOC = 6730
 II,JST,KST,LST = 20  1  1  1 NREC =        14 INTLOC =13908
 TOTAL NUMBER OF NONZERO TWO-ELECTRON INTEGRALS =              341048
         23 INTEGRAL RECORDS WERE STORED ON DISK FILE  8.
  ...... END OF TWO-ELECTRON INTEGRALS .....
 STEP CPU TIME =     0.10 TOTAL CPU TIME =          0.1 (      0.0 MIN)
 TOTAL WALL CLOCK TIME=          0.2 SECONDS, CPU UTILIZATION IS    93.33%

          --------------------------
               R-PBE SCF CALCULATION
          --------------------------

     NUCLEAR ENERGY =       109.4463029054
     MAXIT =   30     NPUNCH=    2
     EXTRAP=T  DAMP=F  SHIFT=F  RSTRCT=F  DIIS=T  DEM=F  SOSCF=F
         DENSITY MATRIX CONVERGENCE THRESHOLD=  1.00E-05
     COARSE -> FINE DFT GRID SWITCH THRESHOLD=  3.00E-04 (SWITCH IN $DFT)
                   HF -> DFT SWITCH THRESHOLD=  5.00E-03 (SWOFF IN $DFT)
     MEMORY REQUIRED FOR RHF ITERS=    183108 WORDS.

 DFT CODE IS SWITCHING FROM THE FINE GRID NRAD= 96,  NLEB=  302
                      TO THE COARSE GRID NRAD0= 24, NLEB0=  110

     EXCHANGE FUNCTIONAL   =PBE       
     CORRELATION FUNCTIONAL=PBE       
     DFT THRESHOLD         =.460E-07
     GRID CHANGE THRESHOLD =.300E-03
 FOR AN EULER-MACLAURIN QUADRATURE USING  96 RADIAL POINTS:
 SMALLEST GAUSSIAN PRIMITIVE EXPONENT=        0.1001940000 OF TYPE -P-
 ON ATOM NUMBER   1 HAS RADIAL NORMALIZATION=  1.000000
  LARGEST GAUSSIAN PRIMITIVE EXPONENT=    49299.4000000000 OF TYPE -S-
 ON ATOM NUMBER   1 HAS RADIAL NORMALIZATION=  1.000000
 DFT IS SWITCHED OFF, PERFORMING PURE SCF UNTIL SWOFF THRESHOLD IS REACHED.

 ITER EX DEM     TOTAL ENERGY        E CHANGE  DENSITY CHANGE    DIIS ERROR
   1  0  0     -545.9745491471  -545.9745491471   0.676044482   0.981834125
          * * *   INITIATING DIIS PROCEDURE   * * *
   2  1  0     -546.8391067724    -0.8645576253   0.514903386   0.237884112
   3  2  0     -546.9544878106    -0.1153810382   0.164373591   0.175137854
   4  3  0     -547.0542601198    -0.0997723092   0.071426418   0.017830898
   5  4  0     -547.0592289503    -0.0049688306   0.051184042   0.010058344
   6  5  0     -547.0606755170    -0.0014465667   0.020766227   0.004077798
   7  6  0     -547.0609466033    -0.0002710863   0.003046453   0.000770711
 CONVERGED TO SWOFF, SO DFT CALCULATION IS NOW SWITCHED ON.
          * * *   INITIATING DIIS PROCEDURE   * * *
   8  7  0     -548.1827523448    -1.1218057415   0.263558779   0.097163197
   9  8  0     -548.1982677414    -0.0155153966   0.216584072   0.070857749
  10  9  0     -548.1940618437     0.0042058977   0.092692552   0.078149817
  11 10  0     -548.2143636556    -0.0203018119   0.019985229   0.012898015
  12 11  0     -548.2148592153    -0.0004955596   0.001301141   0.000763549
  13 12  0     -548.2148608059    -0.0000015906   0.000497463   0.000094136
  14 13  0     -548.2148608567    -0.0000000509   0.000085948   0.000024143
 DFT CODE IS SWITCHING BACK TO THE FINE GRID
          * * *   INITIATING DIIS PROCEDURE   * * *
  15 14  0     -548.1970074558     0.0178534009   0.008918499   0.006267596
  16 15  0     -548.1971308549    -0.0001233991   0.004540606   0.003085555
  17 16  0     -548.1971214604     0.0000093945   0.004193188   0.003310778
  18 17  0     -548.1971497945    -0.0000283341   0.001195625   0.000818213
  19 18  0     -548.1971514544    -0.0000016599   0.000130979   0.000053512
  20 19  0     -548.1971514602    -0.0000000057   0.000047418   0.000058697
  21 20  0     -548.1971514683    -0.0000000081   0.000010986   0.000014969
  22 21  0     -548.1971514689    -0.0000000006   0.000001209   0.000000305
  23 22  0     -548.1971514689     0.0000000000   0.000000341   0.000000069

          -----------------
          DENSITY CONVERGED
          -----------------
     TIME TO FORM FOCK OPERATORS=       2.6 SECONDS (       0.1 SEC/ITER)
     TIME TO SOLVE SCF EQUATIONS=       0.0 SECONDS (       0.0 SEC/ITER)

 FINAL R-PBE ENERGY IS     -548.1971514689 AFTER  23 ITERATIONS
 DFT EXCHANGE + CORRELATION ENERGY =       -42.5973677046
 TOTAL ELECTRON NUMBER             =        32.0000115080

          ------------
          EIGENVECTORS
          ------------

                      1          2          3          4          5
                  -88.2188   -18.8084   -18.8084    -7.8335    -5.8606
                     A          A          A          A          A   
    1  S  1  S    0.997744  -0.000001  -0.000046  -0.308335  -0.000000
    2  S  1  S    0.008395   0.000007   0.000277   1.031491   0.000000
    3  S  1  S   -0.003657   0.000022   0.000863   0.028311  -0.000000
    4  S  1  S    0.000312   0.000175   0.007030  -0.005084  -0.000000
    5  S  1  X   -0.000000   0.000091  -0.000002  -0.000000   0.994182
    6  S  1  Y    0.000156  -0.000001  -0.000042   0.014322  -0.000000
    7  S  1  Z    0.000000   0.000000   0.000000   0.000000   0.000000
    8  S  1  X    0.000000   0.001416  -0.000035   0.000000   0.018098
    9  S  1  Y   -0.000463   0.000022   0.000864   0.001478  -0.000000
   10  S  1  Z    0.000000   0.000000   0.000000   0.000000   0.000000
   11  S  1  X    0.000000   0.005442  -0.000136   0.000000  -0.002202
   12  S  1  Y   -0.000035   0.000050   0.002010  -0.000292  -0.000000
   13  S  1  Z    0.000000   0.000000   0.000000   0.000000   0.000000
   14  S  1 XX   -0.000662  -0.000018  -0.000710   0.001320  -0.000000
   15  S  1 YY    0.000287   0.000012   0.000478  -0.000678   0.000000
   16  S  1 ZZ    0.000375   0.000006   0.000231  -0.000642   0.000000
   17  S  1 XY    0.000000  -0.000550   0.000014   0.000000   0.001680
   18  S  1 XZ    0.000000   0.000000   0.000000   0.000000   0.000000
   19  S  1 YZ    0.000000   0.000000   0.000000   0.000000   0.000000
   20  O  2  S   -0.000031   0.719531   0.684573  -0.000248  -0.000806
   21  O  2  S   -0.000189   0.024850   0.023545  -0.000143   0.000622
   22  O  2  S    0.000985  -0.012699  -0.011376  -0.000789  -0.001385
   23  O  2  X   -0.000186  -0.001008  -0.001255  -0.000026  -0.001451
   24  O  2  Y   -0.000071  -0.000316  -0.000131   0.000006  -0.000532
   25  O  2  Z    0.000000   0.000000   0.000000   0.000000   0.000000
   26  O  2  X   -0.000762   0.001724   0.003030   0.001140   0.001205
   27  O  2  Y   -0.000246   0.001320  -0.000071   0.000411   0.000339
   28  O  2  Z    0.000000   0.000000   0.000000   0.000000   0.000000
   29  O  2 XX    0.000316   0.000020  -0.000229   0.000492   0.001334
   30  O  2 YY   -0.000118  -0.000094   0.000160  -0.000228  -0.000481
   31  O  2 ZZ   -0.000198   0.000075   0.000069  -0.000265  -0.000853
   32  O  2 XY    0.000223  -0.000221   0.000122   0.000221   0.001025
   33  O  2 XZ    0.000000   0.000000   0.000000   0.000000   0.000000
   34  O  2 YZ    0.000000   0.000000   0.000000   0.000000   0.000000
   35  O  3  S   -0.000031  -0.684577   0.719527  -0.000248   0.000806
   36  O  3  S   -0.000189  -0.023648   0.024752  -0.000143  -0.000622
   37  O  3  S    0.000985   0.012117  -0.011994  -0.000789   0.001385
   38  O  3  X    0.000186  -0.000944   0.001304   0.000026  -0.001451
   39  O  3  Y   -0.000071   0.000309  -0.000147   0.000006   0.000532
   40  O  3  Z    0.000000   0.000000   0.000000   0.000000   0.000000
   41  O  3  X    0.000762   0.001571  -0.003113  -0.001140   0.001205
   42  O  3  Y   -0.000246  -0.001321  -0.000005   0.000411  -0.000339
   43  O  3  Z    0.000000   0.000000   0.000000   0.000000   0.000000
   44  O  3 XX    0.000316  -0.000031  -0.000228   0.000492  -0.001334
   45  O  3 YY   -0.000118   0.000102   0.000155  -0.000228   0.000481
   46  O  3 ZZ   -0.000198  -0.000071   0.000072  -0.000265   0.000853
   47  O  3 XY   -0.000223  -0.000227  -0.000110  -0.000221   0.001025
   48  O  3 XZ    0.000000   0.000000   0.000000   0.000000   0.000000
   49  O  3 YZ    0.000000   0.000000   0.000000   0.000000   0.000000

                      6          7          8          9         10
                   -5.8579    -5.8528    -1.0819    -1.0095    -0.5670
                     A          A          A          A          A   
    1  S  1  S    0.000000   0.004558   0.054034  -0.000000   0.059651
    2  S  1  S    0.000000  -0.015757  -0.329160   0.000001  -0.382379
    3  S  1  S    0.000000   0.000662   0.450388  -0.000001   0.596570
    4  S  1  S    0.000000   0.000027   0.055771  -0.000005   0.185260
    5  S  1  X    0.000000   0.000000  -0.000001  -0.158231   0.000000
    6  S  1  Y    0.000000   0.994883  -0.048123   0.000000   0.008278
    7  S  1  Z    0.994974   0.000000   0.000000   0.000000   0.000000
    8  S  1  X    0.000000   0.000000   0.000003   0.345240  -0.000000
    9  S  1  Y    0.000000   0.015754   0.103861  -0.000001  -0.011715
   10  S  1  Z    0.015884   0.000000   0.000000   0.000000   0.000000
   11  S  1  X    0.000000   0.000000   0.000003  -0.020769  -0.000002
   12  S  1  Y    0.000000  -0.002786  -0.014462  -0.000001  -0.026784
   13  S  1  Z   -0.002965   0.000000   0.000000   0.000000   0.000000
   14  S  1 XX    0.000000  -0.000677   0.076986  -0.000002  -0.019828
   15  S  1 YY    0.000000   0.001247  -0.032692   0.000001   0.003691
   16  S  1 ZZ    0.000000  -0.000569  -0.044294   0.000001   0.016138
   17  S  1 XY    0.000000   0.000000   0.000001   0.065043  -0.000000
   18  S  1 XZ    0.000000   0.000000   0.000000   0.000000   0.000000
   19  S  1 YZ    0.001016   0.000000   0.000000   0.000000   0.000000
   20  O  2  S    0.000000  -0.000257  -0.136458  -0.158356   0.116892
   21  O  2  S    0.000000   0.000247   0.275587   0.327149  -0.249759
   22  O  2  S    0.000000  -0.000039   0.221034   0.253862  -0.343249
   23  O  2  X    0.000000  -0.000622  -0.120302  -0.118823  -0.211538
   24  O  2  Y    0.000000  -0.000138  -0.029483  -0.034643  -0.072091
   25  O  2  Z    0.000054   0.000000   0.000000   0.000000   0.000000
   26  O  2  X    0.000000   0.000350  -0.030638  -0.008473  -0.102269
   27  O  2  Y    0.000000  -0.000264  -0.002012  -0.002666  -0.029575
   28  O  2  Z   -0.000260   0.000000   0.000000   0.000000   0.000000
   29  O  2 XX    0.000000   0.000564   0.012962   0.009630   0.010751
   30  O  2 YY    0.000000  -0.000300  -0.007773  -0.004318  -0.003578
   31  O  2 ZZ    0.000000  -0.000265  -0.005189  -0.005312  -0.007173
   32  O  2 XY    0.000000   0.000222   0.002218   0.007635   0.007163
   33  O  2 XZ   -0.000141   0.000000   0.000000   0.000000   0.000000
   34  O  2 YZ   -0.000085   0.000000   0.000000   0.000000   0.000000
   35  O  3  S    0.000000  -0.000257  -0.136458   0.158356   0.116893
   36  O  3  S    0.000000   0.000247   0.275585  -0.327151  -0.249759
   37  O  3  S    0.000000  -0.000039   0.221041  -0.253854  -0.343252
   38  O  3  X    0.000000   0.000622   0.120302  -0.118823   0.211538
   39  O  3  Y    0.000000  -0.000138  -0.029482   0.034642  -0.072092
   40  O  3  Z    0.000054   0.000000   0.000000   0.000000   0.000000
   41  O  3  X    0.000000  -0.000350   0.030641  -0.008469   0.102269
   42  O  3  Y    0.000000  -0.000264  -0.002013   0.002665  -0.029575
   43  O  3  Z   -0.000260   0.000000   0.000000   0.000000   0.000000
   44  O  3 XX    0.000000   0.000564   0.012963  -0.009630   0.010751
   45  O  3 YY    0.000000  -0.000300  -0.007773   0.004318  -0.003578
   46  O  3 ZZ    0.000000  -0.000265  -0.005190   0.005312  -0.007173
   47  O  3 XY    0.000000  -0.000222  -0.002218   0.007634  -0.007163
   48  O  3 XZ    0.000141   0.000000   0.000000   0.000000   0.000000
   49  O  3 YZ   -0.000085   0.000000   0.000000   0.000000   0.000000

                     11         12         13         14         15
                   -0.4633    -0.4547    -0.4541    -0.3611    -0.3492
                     A          A          A          A          A   
    1  S  1  S    0.000000  -0.000000  -0.009107   0.000000   0.000000
    2  S  1  S    0.000000   0.000002   0.058441   0.000000  -0.000000
    3  S  1  S    0.000000  -0.000004  -0.084092   0.000000   0.000000
    4  S  1  S    0.000000  -0.000004  -0.085825   0.000000  -0.000001
    5  S  1  X    0.000000  -0.168212   0.000006   0.000000   0.013742
    6  S  1  Y    0.000000  -0.000007  -0.201102   0.000000   0.000000
    7  S  1  Z   -0.209171   0.000000   0.000000  -0.000000   0.000000
    8  S  1  X    0.000000   0.454367  -0.000015   0.000000  -0.029342
    9  S  1  Y    0.000000   0.000018   0.526651   0.000000  -0.000000
   10  S  1  Z    0.551462   0.000000   0.000000   0.000000   0.000000
   11  S  1  X    0.000000  -0.054345   0.000002   0.000000  -0.054638
   12  S  1  Y    0.000000   0.000003   0.096807   0.000000  -0.000000
   13  S  1  Z    0.106261   0.000000   0.000000   0.000000   0.000000
   14  S  1 XX    0.000000  -0.000002  -0.055270   0.000000  -0.000000
   15  S  1 YY    0.000000   0.000002   0.066925   0.000000   0.000000
   16  S  1 ZZ    0.000000  -0.000000  -0.011655   0.000000   0.000000
   17  S  1 XY    0.000000   0.039021  -0.000001   0.000000   0.143156
   18  S  1 XZ    0.000000   0.000000   0.000000  -0.148461   0.000000
   19  S  1 YZ    0.046051   0.000000   0.000000   0.000000   0.000000
   20  O  2  S    0.000000   0.075461   0.013144   0.000000   0.001492
   21  O  2  S    0.000000  -0.157684  -0.027656   0.000000  -0.005259
   22  O  2  S    0.000000  -0.273522  -0.042453   0.000000   0.005309
   23  O  2  X    0.000000  -0.360098  -0.159952   0.000000  -0.196458
   24  O  2  Y    0.000000  -0.154358   0.284856   0.000000   0.418116
   25  O  2  Z    0.321452   0.000000   0.000000  -0.459680   0.000000
   26  O  2  X    0.000000  -0.153018  -0.093818   0.000000  -0.121896
   27  O  2  Y    0.000000  -0.079265   0.166076   0.000000   0.287058
   28  O  2  Z    0.185184   0.000000   0.000000  -0.313844   0.000000
   29  O  2 XX    0.000000   0.012767   0.017393   0.000000   0.007889
   30  O  2 YY    0.000000  -0.003523  -0.012784   0.000000  -0.008754
   31  O  2 ZZ    0.000000  -0.009244  -0.004609   0.000000   0.000864
   32  O  2 XY    0.000000   0.012720  -0.016157   0.000000  -0.019629
   33  O  2 XZ   -0.024435   0.000000   0.000000   0.019888   0.000000
   34  O  2 YZ   -0.006274   0.000000   0.000000   0.005207   0.000000
   35  O  3  S    0.000000  -0.075459   0.013149   0.000000  -0.001492
   36  O  3  S    0.000000   0.157680  -0.027667   0.000000   0.005259
   37  O  3  S    0.000000   0.273520  -0.042471   0.000000  -0.005307
   38  O  3  X    0.000000  -0.360087   0.159977   0.000000  -0.196458
   39  O  3  Y    0.000000   0.154378   0.284845   0.000000  -0.418116
   40  O  3  Z    0.321452   0.000000   0.000000   0.459680   0.000000
   41  O  3  X    0.000000  -0.153010   0.093829   0.000000  -0.121895
   42  O  3  Y    0.000000   0.079276   0.166070   0.000000  -0.287058
   43  O  3  Z    0.185184   0.000000   0.000000   0.313844   0.000000
   44  O  3 XX    0.000000  -0.012766   0.017394   0.000000  -0.007889
   45  O  3 YY    0.000000   0.003522  -0.012784   0.000000   0.008753
   46  O  3 ZZ    0.000000   0.009244  -0.004610   0.000000  -0.000864
   47  O  3 XY    0.000000   0.012721   0.016156   0.000000  -0.019629
   48  O  3 XZ    0.024435   0.000000   0.000000   0.019888   0.000000
   49  O  3 YZ   -0.006274   0.000000   0.000000  -0.005207   0.000000

                     16         17         18         19         20
                   -0.2461    -0.1361    -0.0525     0.1296     0.2081
                     A          A          A          A          A   
    1  S  1  S    0.029292   0.000000   0.017668  -0.000000   0.000000
    2  S  1  S   -0.190954   0.000000  -0.118225   0.000001   0.000000
    3  S  1  S    0.224721   0.000000   0.115472  -0.000007   0.000000
    4  S  1  S    0.666414   0.000000   0.717084  -0.000009   0.000000
    5  S  1  X   -0.000000   0.000000  -0.000000  -0.080265   0.000000
    6  S  1  Y    0.120667   0.000000  -0.193320   0.000000   0.000000
    7  S  1  Z    0.000000  -0.233013   0.000000   0.000000   0.245039
    8  S  1  X    0.000000   0.000000   0.000001   0.260486   0.000000
    9  S  1  Y   -0.334396   0.000000   0.613757  -0.000002   0.000000
   10  S  1  Z    0.000000   0.705843   0.000000   0.000000  -0.964272
   11  S  1  X   -0.000001   0.000000  -0.000005   1.588247   0.000000
   12  S  1  Y   -0.056283   0.000000   0.516667  -0.000001   0.000000
   13  S  1  Z    0.000000   0.374498   0.000000   0.000000   1.306537
   14  S  1 XX   -0.201689   0.000000  -0.164241  -0.000005   0.000000
   15  S  1 YY    0.098528   0.000000   0.030710   0.000002   0.000000
   16  S  1 ZZ    0.103161   0.000000   0.133531   0.000003   0.000000
   17  S  1 XY   -0.000000   0.000000   0.000000  -0.129303   0.000000
   18  S  1 XZ    0.000000   0.000000   0.000000   0.000000   0.000000
   19  S  1 YZ    0.000000  -0.034582   0.000000   0.000000  -0.078084
   20  O  2  S    0.020260   0.000000   0.043439   0.071596   0.000000
   21  O  2  S   -0.047268   0.000000  -0.099041  -0.127462   0.000000
   22  O  2  S   -0.120264   0.000000  -0.322357  -0.835595   0.000000
   23  O  2  X    0.230237   0.000000   0.303871   0.022931   0.000000
   24  O  2  Y    0.319330   0.000000  -0.232172   0.156350   0.000000
   25  O  2  Z    0.000000  -0.393547   0.000000   0.000000  -0.032886
   26  O  2  X    0.152221   0.000000   0.288143   0.106020   0.000000
   27  O  2  Y    0.234052   0.000000  -0.219759   0.182952   0.000000
   28  O  2  Z    0.000000  -0.344073   0.000000   0.000000  -0.106895
   29  O  2 XX   -0.003795   0.000000  -0.001122  -0.010832   0.000000
   30  O  2 YY    0.001561   0.000000  -0.001824   0.006898   0.000000
   31  O  2 ZZ    0.002234   0.000000   0.002946   0.003935   0.000000
   32  O  2 XY   -0.004425   0.000000  -0.002346  -0.002477   0.000000
   33  O  2 XZ    0.000000   0.001146   0.000000   0.000000   0.023829
   34  O  2 YZ    0.000000  -0.001256   0.000000   0.000000   0.005115
   35  O  3  S    0.020260   0.000000   0.043440  -0.071595   0.000000
   36  O  3  S   -0.047269   0.000000  -0.099044   0.127450   0.000000
   37  O  3  S   -0.120265   0.000000  -0.322359   0.835618   0.000000
   38  O  3  X   -0.230237   0.000000  -0.303872   0.022925   0.000000
   39  O  3  Y    0.319330   0.000000  -0.232171  -0.156352   0.000000
   40  O  3  Z    0.000000  -0.393547   0.000000   0.000000  -0.032887
   41  O  3  X   -0.152221   0.000000  -0.288141   0.106037   0.000000
   42  O  3  Y    0.234053   0.000000  -0.219759  -0.182956   0.000000
   43  O  3  Z    0.000000  -0.344073   0.000000   0.000000  -0.106895
   44  O  3 XX   -0.003795   0.000000  -0.001122   0.010833   0.000000
   45  O  3 YY    0.001561   0.000000  -0.001824  -0.006898   0.000000
   46  O  3 ZZ    0.002234   0.000000   0.002946  -0.003935   0.000000
   47  O  3 XY    0.004425   0.000000   0.002346  -0.002477   0.000000
   48  O  3 XZ    0.000000  -0.001146   0.000000   0.000000  -0.023829
   49  O  3 YZ    0.000000  -0.001256   0.000000   0.000000   0.005115

                     21         22         23         24         25
                    0.2198     0.2696     0.4126     0.5172     0.5199
                     A          A          A          A          A   
    1  S  1  S    0.005922  -0.070383   0.000000   0.000000   0.003356
    2  S  1  S   -0.043409   0.511279  -0.000002   0.000000  -0.024948
    3  S  1  S    0.129886  -1.846751   0.000008   0.000000   0.072954
    4  S  1  S   -0.034725   2.215457   0.000002   0.000000   0.087165
    5  S  1  X   -0.000000  -0.000002  -0.299973   0.000000  -0.000000
    6  S  1  Y    0.248979   0.008605  -0.000000   0.000000   0.013539
    7  S  1  Z    0.000000   0.000000   0.000000   0.021100   0.000000
    8  S  1  X    0.000002   0.000009   1.142034   0.000000   0.000001
    9  S  1  Y   -0.971635  -0.001846   0.000002   0.000000  -0.053950
   10  S  1  Z    0.000000   0.000000   0.000000  -0.090342   0.000000
   11  S  1  X    0.000001   0.000001  -0.899748   0.000000   0.000001
   12  S  1  Y    1.299437   0.168316  -0.000000   0.000000   0.122186
   13  S  1  Z    0.000000   0.000000   0.000000   0.115680   0.000000
   14  S  1 XX    0.129792   0.201838   0.000003   0.000000  -0.012337
   15  S  1 YY   -0.121418  -0.092174  -0.000001   0.000000   0.849544
   16  S  1 ZZ   -0.008374  -0.109664  -0.000002   0.000000  -0.837207
   17  S  1 XY    0.000000   0.000001  -0.491390   0.000000   0.000001
   18  S  1 XZ    0.000000   0.000000   0.000000  -0.000000   0.000000
   19  S  1 YZ    0.000000   0.000000   0.000000   0.975968   0.000000
   20  O  2  S    0.003795   0.013107   0.018989   0.000000   0.008161
   21  O  2  S    0.015551   0.017656  -0.109051   0.000000  -0.029719
   22  O  2  S   -0.156113  -0.505368   0.175510   0.000000  -0.057374
   23  O  2  X   -0.059655  -0.208148   0.270652   0.000000   0.051409
   24  O  2  Y   -0.028764  -0.074574   0.220714   0.000000  -0.154687
   25  O  2  Z    0.000000   0.000000   0.000000  -0.153708   0.000000
   26  O  2  X    0.012670   0.119992   0.130512   0.000000   0.059679
   27  O  2  Y   -0.084918   0.041956   0.114196   0.000000   0.038637
   28  O  2  Z    0.000000   0.000000   0.000000   0.015511   0.000000
   29  O  2 XX   -0.021950  -0.045019   0.026097   0.000000   0.007138
   30  O  2 YY    0.014572   0.018846   0.001602   0.000000   0.026374
   31  O  2 ZZ    0.007378   0.026173  -0.027699   0.000000  -0.033512
   32  O  2 XY    0.014400  -0.025975   0.045361   0.000000  -0.027162
   33  O  2 XZ    0.000000   0.000000   0.000000  -0.025808   0.000000
   34  O  2 YZ    0.000000   0.000000   0.000000   0.035239   0.000000
   35  O  3  S    0.003795   0.013107  -0.018989   0.000000   0.008161
   36  O  3  S    0.015549   0.017649   0.109055   0.000000  -0.029720
   37  O  3  S   -0.156109  -0.505351  -0.175521   0.000000  -0.057371
   38  O  3  X    0.059655   0.208146   0.270653   0.000000  -0.051410
   39  O  3  Y   -0.028765  -0.074575  -0.220713   0.000000  -0.154687
   40  O  3  Z    0.000000   0.000000   0.000000  -0.153709   0.000000
   41  O  3  X   -0.012667  -0.119979   0.130502   0.000000  -0.059676
   42  O  3  Y   -0.084919   0.041953  -0.114193   0.000000   0.038636
   43  O  3  Z    0.000000   0.000000   0.000000   0.015511   0.000000
   44  O  3 XX   -0.021950  -0.045018  -0.026097   0.000000   0.007138
   45  O  3 YY    0.014572   0.018845  -0.001602   0.000000   0.026374
   46  O  3 ZZ    0.007378   0.026173   0.027699   0.000000  -0.033512
   47  O  3 XY   -0.014400   0.025975   0.045362   0.000000   0.027162
   48  O  3 XZ    0.000000   0.000000   0.000000   0.025809   0.000000
   49  O  3 YZ    0.000000   0.000000   0.000000   0.035239   0.000000

                     26         27         28         29         30
                    0.5969     0.6292     0.6480     0.7435     0.7707
                     A          A          A          A          A   
    1  S  1  S    0.000000   0.027383  -0.000000   0.000000  -0.000000
    2  S  1  S    0.000000  -0.222449   0.000001   0.000000  -0.000000
    3  S  1  S    0.000000   1.082676  -0.000009   0.000000   0.000002
    4  S  1  S    0.000000   0.815106  -0.000018   0.000000   0.000004
    5  S  1  X    0.000000  -0.000002  -0.219798   0.000000   0.031842
    6  S  1  Y    0.000000  -0.069746   0.000001   0.000000  -0.000000
    7  S  1  Z    0.000000   0.000000   0.000000   0.000000   0.000000
    8  S  1  X    0.000000   0.000015   1.263887   0.000000  -0.238134
    9  S  1  Y    0.000000   0.420142  -0.000005   0.000000   0.000001
   10  S  1  Z   -0.000000   0.000000   0.000000  -0.000000   0.000000
   11  S  1  X    0.000000   0.000008  -0.061307   0.000000   0.225540
   12  S  1  Y    0.000000   0.019043  -0.000002   0.000000  -0.000000
   13  S  1  Z   -0.000000   0.000000   0.000000  -0.000000   0.000000
   14  S  1 XX    0.000000   0.557221  -0.000005   0.000000   0.000000
   15  S  1 YY    0.000000  -0.269676   0.000002   0.000000  -0.000000
   16  S  1 ZZ    0.000000  -0.287545   0.000003   0.000000  -0.000000
   17  S  1 XY    0.000000   0.000005   0.480799   0.000000  -0.262458
   18  S  1 XZ    0.892554   0.000000   0.000000  -0.503390   0.000000
   19  S  1 YZ    0.000000   0.000000   0.000000   0.000000   0.000000
   20  O  2  S    0.000000   0.066295   0.059024   0.000000   0.008381
   21  O  2  S    0.000000  -0.158105  -0.141442   0.000000  -0.128791
   22  O  2  S    0.000000  -0.605535  -0.510443   0.000000   0.181232
   23  O  2  X    0.000000  -0.322497  -0.154035   0.000000   0.221062
   24  O  2  Y    0.000000  -0.011579  -0.232282   0.000000  -0.557703
   25  O  2  Z   -0.396011   0.000000   0.000000  -0.528347   0.000000
   26  O  2  X    0.000000   1.147871   1.031597   0.000000  -0.502285
   27  O  2  Y    0.000000   0.309871   0.418412   0.000000   0.689644
   28  O  2  Z    0.058274   0.000000   0.000000   0.816192   0.000000
   29  O  2 XX    0.000000  -0.001094   0.041928   0.000000  -0.025770
   30  O  2 YY    0.000000   0.001065  -0.024876   0.000000   0.019056
   31  O  2 ZZ    0.000000   0.000028  -0.017052   0.000000   0.006714
   32  O  2 XY    0.000000   0.000782   0.010071   0.000000   0.018153
   33  O  2 XZ   -0.059104   0.000000   0.000000   0.050822   0.000000
   34  O  2 YZ   -0.032454   0.000000   0.000000   0.022149   0.000000
   35  O  3  S    0.000000   0.066294  -0.059025   0.000000  -0.008380
   36  O  3  S    0.000000  -0.158107   0.141443   0.000000   0.128784
   37  O  3  S    0.000000  -0.605510   0.510463   0.000000  -0.181229
   38  O  3  X    0.000000   0.322482  -0.154048   0.000000   0.221068
   39  O  3  Y    0.000000  -0.011578   0.232286   0.000000   0.557699
   40  O  3  Z    0.396010   0.000000   0.000000   0.528347   0.000000
   41  O  3  X    0.000000  -1.147834   1.031630   0.000000  -0.502296
   42  O  3  Y    0.000000   0.309865  -0.418422   0.000000  -0.689639
   43  O  3  Z   -0.058274   0.000000   0.000000  -0.816191   0.000000
   44  O  3 XX    0.000000  -0.001094  -0.041928   0.000000   0.025771
   45  O  3 YY    0.000000   0.001066   0.024876   0.000000  -0.019057
   46  O  3 ZZ    0.000000   0.000029   0.017052   0.000000  -0.006714
   47  O  3 XY    0.000000  -0.000782   0.010071   0.000000   0.018152
   48  O  3 XZ   -0.059104   0.000000   0.000000   0.050822   0.000000
   49  O  3 YZ    0.032454   0.000000   0.000000  -0.022149   0.000000

                     31         32         33         34         35
                    0.8395     0.8687     0.9492     1.1911     1.4493
                     A          A          A          A          A   
    1  S  1  S    0.005012   0.000000  -0.000000   0.016241  -0.002378
    2  S  1  S   -0.042754   0.000000   0.000000  -0.112387   0.036200
    3  S  1  S    0.231420   0.000000   0.000000  -0.040882  -0.270933
    4  S  1  S    0.047560   0.000000  -0.000009   0.965772  -1.655135
    5  S  1  X    0.000000   0.000000  -0.147641  -0.000001  -0.000003
    6  S  1  Y   -0.003827   0.000000   0.000000  -0.077011   0.019539
    7  S  1  Z    0.000000   0.005520   0.000000   0.000000   0.000000
    8  S  1  X   -0.000000   0.000000   0.403878   0.000007   0.000029
    9  S  1  Y   -0.012829   0.000000  -0.000002   0.313225  -0.230934
   10  S  1  Z    0.000000  -0.083308   0.000000   0.000000   0.000000
   11  S  1  X   -0.000000   0.000000   0.185867   0.000017   0.000054
   12  S  1  Y   -0.641466   0.000000  -0.000004   0.118611  -0.494174
   13  S  1  Z    0.000000  -0.684821   0.000000   0.000000   0.000000
   14  S  1 XX    0.206460   0.000000  -0.000003   1.123472  -0.072373
   15  S  1 YY   -0.274876   0.000000   0.000001  -0.471465  -0.008936
   16  S  1 ZZ    0.068416   0.000000   0.000002  -0.652007   0.081309
   17  S  1 XY   -0.000001   0.000000   0.792619   0.000003   0.000002
   18  S  1 XZ    0.000000  -0.000000   0.000000   0.000000   0.000000
   19  S  1 YZ    0.000000  -0.200803   0.000000   0.000000   0.000000
   20  O  2  S   -0.012435   0.000000   0.034289   0.030373   0.076818
   21  O  2  S    0.148773   0.000000  -0.171487   0.020713  -1.261021
   22  O  2  S   -0.174168   0.000000  -0.226593  -0.782707   2.024652
   23  O  2  X    0.184784   0.000000   0.605818   0.530551   0.113881
   24  O  2  Y   -0.567606   0.000000   0.089210   0.284824  -0.054075
   25  O  2  Z    0.000000  -0.620092   0.000000   0.000000   0.000000
   26  O  2  X   -0.125467   0.000000  -0.314880   0.009216  -0.735457
   27  O  2  Y    0.954218   0.000000  -0.196882  -0.031717   0.052506
   28  O  2  Z    0.000000   0.987207   0.000000   0.000000   0.000000
   29  O  2 XX   -0.013222   0.000000   0.054409  -0.020138  -0.159287
   30  O  2 YY    0.009666   0.000000  -0.066828   0.054534   0.095138
   31  O  2 ZZ    0.003556   0.000000   0.012418  -0.034396   0.064149
   32  O  2 XY    0.039605   0.000000  -0.069594   0.084193   0.014225
   33  O  2 XZ    0.000000   0.045324   0.000000   0.000000   0.000000
   34  O  2 YZ    0.000000   0.002826   0.000000   0.000000   0.000000
   35  O  3  S   -0.012435   0.000000  -0.034287   0.030375   0.076826
   36  O  3  S    0.148774   0.000000   0.171469   0.020683  -1.261151
   37  O  3  S   -0.174169   0.000000   0.226620  -0.782654   2.024865
   38  O  3  X   -0.184786   0.000000   0.605823  -0.530543  -0.113879
   39  O  3  Y   -0.567606   0.000000  -0.089215   0.284826  -0.054069
   40  O  3  Z    0.000000  -0.620093   0.000000   0.000000   0.000000
   41  O  3  X    0.125469   0.000000  -0.314880  -0.009218   0.735492
   42  O  3  Y    0.954218   0.000000   0.196888  -0.031726   0.052473
   43  O  3  Z    0.000000   0.987208   0.000000   0.000000   0.000000
   44  O  3 XX   -0.013222   0.000000  -0.054409  -0.020138  -0.159294
   45  O  3 YY    0.009665   0.000000   0.066828   0.054534   0.095138
   46  O  3 ZZ    0.003556   0.000000  -0.012419  -0.034396   0.064156
   47  O  3 XY   -0.039605   0.000000  -0.069594  -0.084193  -0.014212
   48  O  3 XZ    0.000000  -0.045324   0.000000   0.000000   0.000000
   49  O  3 YZ    0.000000   0.002826   0.000000   0.000000   0.000000

                     36         37         38         39         40
                    1.4945     2.0362     2.0363     2.0620     2.0753
                     A          A          A          A          A   
    1  S  1  S   -0.000000   0.000000   0.000000   0.000000   0.000453
    2  S  1  S    0.000001   0.000000  -0.000000   0.000000  -0.006568
    3  S  1  S   -0.000017   0.000000   0.000000   0.000000   0.059541
    4  S  1  S   -0.000065   0.000000  -0.000000   0.000000  -0.016258
    5  S  1  X    0.067950   0.000000   0.000764   0.000000   0.000000
    6  S  1  Y   -0.000000   0.000000   0.000000   0.000000  -0.007382
    7  S  1  Z    0.000000  -0.000000   0.000000  -0.030980   0.000000
    8  S  1  X   -0.615714   0.000000   0.005943   0.000000  -0.000000
    9  S  1  Y   -0.000007   0.000000  -0.000000   0.000000   0.040209
   10  S  1  Z    0.000000   0.000000   0.000000   0.126611   0.000000
   11  S  1  X   -1.278514   0.000000  -0.019071   0.000000   0.000001
   12  S  1  Y   -0.000021   0.000000  -0.000000   0.000000  -0.011742
   13  S  1  Z    0.000000   0.000000   0.000000  -0.005692   0.000000
   14  S  1 XX    0.000009   0.000000   0.000000   0.000000  -0.068910
   15  S  1 YY   -0.000005   0.000000   0.000000   0.000000  -0.087943
   16  S  1 ZZ   -0.000004   0.000000  -0.000000   0.000000   0.156853
   17  S  1 XY   -0.124779   0.000000   0.029435   0.000000   0.000000
   18  S  1 XZ    0.000000  -0.026635   0.000000   0.000000   0.000000
   19  S  1 YZ    0.000000  -0.000000   0.000000  -0.081856   0.000000
   20  O  2  S    0.072461   0.000000   0.000787   0.000000  -0.004400
   21  O  2  S   -1.278382   0.000000  -0.008167   0.000000   0.047577
   22  O  2  S    2.237174   0.000000   0.008712   0.000000  -0.029526
   23  O  2  X   -0.086658   0.000000  -0.004829   0.000000  -0.036174
   24  O  2  Y    0.075987   0.000000   0.010241   0.000000  -0.007517
   25  O  2  Z    0.000000  -0.007108   0.000000   0.024387   0.000000
   26  O  2  X   -0.302588   0.000000   0.016425   0.000000   0.035656
   27  O  2  Y   -0.344911   0.000000  -0.015204   0.000000   0.005123
   28  O  2  Z    0.000000   0.012509   0.000000  -0.040872   0.000000
   29  O  2 XX   -0.101087   0.000000  -0.123772   0.000000  -0.008509
   30  O  2 YY    0.026281   0.000000  -0.489512   0.000000   0.601915
   31  O  2 ZZ    0.074806   0.000000   0.613283   0.000000  -0.593406
   32  O  2 XY   -0.117865   0.000000   0.282428   0.000000  -0.158196
   33  O  2 XZ    0.000000  -0.305991   0.000000   0.057809   0.000000
   34  O  2 YZ    0.000000   0.637762   0.000000   0.707371   0.000000
   35  O  3  S   -0.072453   0.000000  -0.000787   0.000000  -0.004400
   36  O  3  S    1.278259   0.000000   0.008167   0.000000   0.047576
   37  O  3  S   -2.236996   0.000000  -0.008712   0.000000  -0.029524
   38  O  3  X   -0.086680   0.000000  -0.004829   0.000000   0.036174
   39  O  3  Y   -0.075986   0.000000  -0.010241   0.000000  -0.007517
   40  O  3  Z    0.000000   0.007108   0.000000   0.024387   0.000000
   41  O  3  X   -0.302518   0.000000   0.016425   0.000000  -0.035656
   42  O  3  Y    0.344915   0.000000   0.015205   0.000000   0.005123
   43  O  3  Z    0.000000  -0.012509   0.000000  -0.040872   0.000000
   44  O  3 XX    0.101070   0.000000   0.123772   0.000000  -0.008510
   45  O  3 YY   -0.026269   0.000000   0.489511   0.000000   0.601916
   46  O  3 ZZ   -0.074801   0.000000  -0.613283   0.000000  -0.593406
   47  O  3 XY   -0.117871   0.000000   0.282428   0.000000   0.158197
   48  O  3 XZ    0.000000  -0.305991   0.000000  -0.057808   0.000000
   49  O  3 YZ    0.000000  -0.637761   0.000000   0.707372   0.000000

                     41         42         43         44         45
                    2.1736     2.3275     2.3443     2.4375     2.8533
                     A          A          A          A          A   
    1  S  1  S    0.000000   0.004395  -0.000000   0.000000   0.044277
    2  S  1  S    0.000000  -0.048287   0.000001   0.000000  -0.397259
    3  S  1  S    0.000000   0.290322  -0.000003   0.000000   1.489134
    4  S  1  S    0.000000   0.226712   0.000001   0.000000   0.982119
    5  S  1  X    0.000000   0.000000   0.040474   0.000000  -0.000003
    6  S  1  Y    0.000000  -0.086909   0.000000   0.000000  -0.068889
    7  S  1  Z   -0.079033   0.000000   0.000000   0.000000   0.000000
    8  S  1  X    0.000000  -0.000002  -0.315159   0.000000   0.000016
    9  S  1  Y    0.000000   0.418026  -0.000001   0.000000   0.515456
   10  S  1  Z    0.324617   0.000000   0.000000  -0.000000   0.000000
   11  S  1  X    0.000000   0.000003  -0.060645   0.000000   0.000004
   12  S  1  Y    0.000000   0.128964   0.000000   0.000000   0.055580
   13  S  1  Z    0.050308   0.000000   0.000000  -0.000000   0.000000
   14  S  1 XX    0.000000  -0.310203  -0.000000   0.000000   0.956601
   15  S  1 YY    0.000000   0.330536  -0.000000   0.000000  -0.444047
   16  S  1 ZZ    0.000000  -0.020332   0.000000   0.000000  -0.512554
   17  S  1 XY    0.000000   0.000000   0.524878   0.000000   0.000007
   18  S  1 XZ    0.000000   0.000000   0.000000   0.637581   0.000000
   19  S  1 YZ    0.228954   0.000000   0.000000  -0.000000   0.000000
   20  O  2  S    0.000000  -0.016839   0.013157   0.000000   0.013385
   21  O  2  S    0.000000   0.303510  -0.231997   0.000000   0.454649
   22  O  2  S    0.000000  -0.420289   0.306620   0.000000  -1.468819
   23  O  2  X    0.000000  -0.130271   0.087754   0.000000   0.150740
   24  O  2  Y    0.000000   0.021854   0.058915   0.000000   0.067373
   25  O  2  Z    0.067134   0.000000   0.000000   0.014625   0.000000
   26  O  2  X    0.000000   0.298677  -0.117296   0.000000   0.817146
   27  O  2  Y    0.000000  -0.160272  -0.235256   0.000000   0.291264
   28  O  2  Z   -0.173960   0.000000   0.000000  -0.207385   0.000000
   29  O  2 XX    0.000000  -0.485885  -0.256091   0.000000  -0.671224
   30  O  2 YY    0.000000   0.341314   0.403994   0.000000   0.213905
   31  O  2 ZZ    0.000000   0.144570  -0.147903   0.000000   0.457319
   32  O  2 XY    0.000000   0.541860   0.625354   0.000000  -0.587849
   33  O  2 XZ    0.731611   0.000000   0.000000   0.703798   0.000000
   34  O  2 YZ   -0.048840   0.000000   0.000000   0.327183   0.000000
   35  O  3  S    0.000000  -0.016839  -0.013157   0.000000   0.013385
   36  O  3  S    0.000000   0.303508   0.231996   0.000000   0.454643
   37  O  3  S    0.000000  -0.420286  -0.306619   0.000000  -1.468793
   38  O  3  X    0.000000   0.130272   0.087754   0.000000  -0.150736
   39  O  3  Y    0.000000   0.021854  -0.058915   0.000000   0.067373
   40  O  3  Z    0.067134   0.000000   0.000000  -0.014625   0.000000
   41  O  3  X    0.000000  -0.298680  -0.117295   0.000000  -0.817132
   42  O  3  Y    0.000000  -0.160272   0.235255   0.000000   0.291259
   43  O  3  Z   -0.173960   0.000000   0.000000   0.207385   0.000000
   44  O  3 XX    0.000000  -0.485888   0.256094   0.000000  -0.671207
   45  O  3 YY    0.000000   0.341315  -0.403996   0.000000   0.213896
   46  O  3 ZZ    0.000000   0.144573   0.147902   0.000000   0.457311
   47  O  3 XY    0.000000  -0.541857   0.625353   0.000000   0.587845
   48  O  3 XZ   -0.731611   0.000000   0.000000   0.703798   0.000000
   49  O  3 YZ   -0.048840   0.000000   0.000000  -0.327183   0.000000

                     46
                    2.8885
                     A   
    1  S  1  S   -0.000000
    2  S  1  S    0.000004
    3  S  1  S   -0.000012
    4  S  1  S   -0.000010
    5  S  1  X   -0.257874
    6  S  1  Y    0.000001
    7  S  1  Z    0.000000
    8  S  1  X    1.778375
    9  S  1  Y   -0.000004
   10  S  1  Z    0.000000
   11  S  1  X    0.175514
   12  S  1  Y   -0.000000
   13  S  1  Z    0.000000
   14  S  1 XX   -0.000012
   15  S  1 YY    0.000006
   16  S  1 ZZ    0.000006
   17  S  1 XY    0.563560
   18  S  1 XZ    0.000000
   19  S  1 YZ    0.000000
   20  O  2  S    0.009196
   21  O  2  S    0.459560
   22  O  2  S   -1.400409
   23  O  2  X    0.106148
   24  O  2  Y    0.009912
   25  O  2  Z    0.000000
   26  O  2  X    0.825226
   27  O  2  Y    0.239691
   28  O  2  Z    0.000000
   29  O  2 XX   -0.815369
   30  O  2 YY    0.417619
   31  O  2 ZZ    0.397749
   32  O  2 XY   -0.305749
   33  O  2 XZ    0.000000
   34  O  2 YZ    0.000000
   35  O  3  S   -0.009196
   36  O  3  S   -0.459564
   37  O  3  S    1.400434
   38  O  3  X    0.106153
   39  O  3  Y   -0.009914
   40  O  3  Z    0.000000
   41  O  3  X    0.825239
   42  O  3  Y   -0.239697
   43  O  3  Z    0.000000
   44  O  3 XX    0.815380
   45  O  3 YY   -0.417622
   46  O  3 ZZ   -0.397758
   47  O  3 XY   -0.305762
   48  O  3 XZ    0.000000
   49  O  3 YZ    0.000000
 ...... END OF RHF CALCULATION ......
 STEP CPU TIME =     2.61 TOTAL CPU TIME =          2.8 (      0.0 MIN)
 TOTAL WALL CLOCK TIME=          2.8 SECONDS, CPU UTILIZATION IS    96.83%

     ---------------------------------------------------------------------
     PROPERTIES FOR THE PBE      DFT FUNCTIONAL (RHF  TYPE) DENSITY MATRIX
     ---------------------------------------------------------------------

          -----------------
          ENERGY COMPONENTS
          -----------------

         WAVEFUNCTION NORMALIZATION =       1.0000000000

                ONE ELECTRON ENERGY =    -972.5890661035
                TWO ELECTRON ENERGY =     314.9456117292
           NUCLEAR REPULSION ENERGY =     109.4463029054
                                      ------------------
                       TOTAL ENERGY =    -548.1971514689

 ELECTRON-ELECTRON POTENTIAL ENERGY =     314.9456117292
  NUCLEUS-ELECTRON POTENTIAL ENERGY =   -1520.4689074512
   NUCLEUS-NUCLEUS POTENTIAL ENERGY =     109.4463029054
                                      ------------------
             TOTAL POTENTIAL ENERGY =   -1096.0769928166
               TOTAL KINETIC ENERGY =     547.8798413477
                 VIRIAL RATIO (V/T) =       2.0005791601

          ---------------------------------------
          MULLIKEN AND LOWDIN POPULATION ANALYSES
          ---------------------------------------

     ATOMIC MULLIKEN POPULATION IN EACH MOLECULAR ORBITAL

                      1          2          3          4          5

                  2.000000   2.000000   2.000000   2.000000   2.000000

    1             1.999870   0.001227   0.000978   2.001182   2.000030
    2             0.000065   1.049117   0.949781  -0.000591  -0.000015
    3             0.000065   0.949656   1.049241  -0.000591  -0.000015

                      6          7          8          9         10

                  2.000000   2.000000   2.000000   2.000000   2.000000

    1             2.000029   2.000000   0.738228   0.507702   0.678951
    2            -0.000014   0.000000   0.630883   0.746152   0.660523
    3            -0.000014   0.000000   0.630889   0.746145   0.660526

                     11         12         13         14         15

                  2.000000   2.000000   2.000000   2.000000   2.000000

    1             0.961160   0.351997   0.923599   0.141244   0.152004
    2             0.519420   0.824008   0.538196   0.929378   0.923998
    3             0.519420   0.823995   0.538205   0.929378   0.923998

                     16

                  2.000000

    1             1.079383
    2             0.460308
    3             0.460309

               ----- POPULATIONS IN EACH AO -----
                             MULLIKEN      LOWDIN
              1  S  1  S      1.99979     1.99923
              2  S  1  S      1.99194     1.88203
              3  S  1  S      1.25950     0.61871
              4  S  1  S      0.73333     0.54330
              5  S  1  X      1.99458     1.95894
              6  S  1  Y      1.99494     1.96579
              7  S  1  Z      1.99377     1.95908
              8  S  1  X      0.84505     0.66088
              9  S  1  Y      0.99644     0.90722
             10  S  1  Z      0.81519     0.71589
             11  S  1  X      0.01222     0.18993
             12  S  1  Y      0.13483     0.26652
             13  S  1  Z      0.14173     0.25411
             14  S  1 XX      0.07422     0.39979
             15  S  1 YY      0.23721     0.32902
             16  S  1 ZZ      0.16111     0.32035
             17  S  1 XY      0.14124     0.18907
             18  S  1 XZ      0.01050     0.17308
             19  S  1 YZ      0.00000     0.01009
             20  O  2  S      1.99549     1.97260
             21  O  2  S      0.95099     0.69034
             22  O  2  S      0.86285     0.50352
             23  O  2  X      0.93504     0.89765
             24  O  2  Y      1.06519     1.03003
             25  O  2  Z      0.87837     0.83532
             26  O  2  X      0.34960     0.52227
             27  O  2  Y      0.60600     0.65131
             28  O  2  Z      0.56218     0.59753
             29  O  2 XX      0.00237     0.21351
             30  O  2 YY      0.00769     0.19398
             31  O  2 ZZ      0.00720     0.19687
             32  O  2 XY      0.00765     0.01253
             33  O  2 XZ      0.00059     0.01023
             34  O  2 YZ      0.00000     0.00080
             35  O  3  S      1.99549     1.97260
             36  O  3  S      0.95099     0.69034
             37  O  3  S      0.86285     0.50352
             38  O  3  X      0.93504     0.89765
             39  O  3  Y      1.06519     1.03003
             40  O  3  Z      0.87837     0.83532
             41  O  3  X      0.34960     0.52227
             42  O  3  Y      0.60600     0.65131
             43  O  3  Z      0.56218     0.59753
             44  O  3 XX      0.00237     0.21351
             45  O  3 YY      0.00769     0.19398
             46  O  3 ZZ      0.00720     0.19687
             47  O  3 XY      0.00765     0.01253
             48  O  3 XZ      0.00059     0.01023
             49  O  3 YZ      0.00000     0.00080

          ----- MULLIKEN ATOMIC OVERLAP POPULATIONS -----
          (OFF-DIAGONAL ELEMENTS NEED TO BE MULTIPLIED BY 2)

             1           2           3

    1   14.9781250
    2    0.2797296   7.9434236
    3    0.2797282   0.0080555   7.9434248

          TOTAL MULLIKEN AND LOWDIN ATOMIC POPULATIONS
       ATOM         MULL.POP.    CHARGE          LOW.POP.     CHARGE
    1 S            15.537583    0.462417        15.343021    0.656979
    2 O             8.231209   -0.231209         8.328489   -0.328489
    3 O             8.231208   -0.231208         8.328490   -0.328490

          MULLIKEN SPHERICAL HARMONIC POPULATIONS
       ATOM           S       P       D      F      G      H      I    TOTAL
    1 S             5.98    8.93    0.62   0.00   0.00   0.00   0.00   15.54
    2 O             3.81    4.40    0.03   0.00   0.00   0.00   0.00    8.23
    3 O             3.81    4.40    0.03   0.00   0.00   0.00   0.00    8.23

          -------------------------------
          BOND ORDER AND VALENCE ANALYSIS     BOND ORDER THRESHOLD=0.050
          -------------------------------

                   BOND                       BOND                       BOND
  ATOM PAIR DIST  ORDER      ATOM PAIR DIST  ORDER      ATOM PAIR DIST  ORDER
    1   2  1.400  1.966        1   3  1.400  1.966        2   3  2.670  0.229

                       TOTAL       BONDED        FREE
      ATOM            VALENCE     VALENCE     VALENCE
    1 S                 3.933       3.933       0.000
    2 O                 2.196       2.196      -0.000
    3 O                 2.196       2.196      -0.000

          ---------------------
          ELECTROSTATIC MOMENTS
          ---------------------

 POINT   1           X           Y           Z (BOHR)    CHARGE
                 0.000000    0.000000    0.000000       -0.00 (A.U.)
         DX          DY          DZ         /D/  (DEBYE)
     0.000000   -0.246762    0.000000    0.246762
 ...... END OF PROPERTY EVALUATION ......
 STEP CPU TIME =     0.01 TOTAL CPU TIME =          2.8 (      0.0 MIN)
 TOTAL WALL CLOCK TIME=          2.8 SECONDS, CPU UTILIZATION IS    97.18%
                580000  WORDS OF DYNAMIC MEMORY USED
 EXECUTION OF GAMESS TERMINATED NORMALLY Sun Sep 29 10:46:28 2019
 DDI: 263640 bytes (0.3 MB / 0 MWords) used by master data server.

 ----------------------------------------
 CPU timing information for all processes
 ========================================
 0: 2.691 + 0.72 = 2.763
 ----------------------------------------
 ddikick.x: exited gracefully.
----- accounting info -----
Files used on the master node crcfe02.crc.nd.edu were:
-rw-r--r-- 1 cdrisko campus     208 Sep 29 10:46 /afs/crc.nd.edu/user/c/cdrisko/SO2.F05
-rw-r--r-- 1 cdrisko campus   37566 Sep 29 10:46 /afs/crc.nd.edu/user/c/cdrisko/SO2.F07
-rw-r--r-- 1 cdrisko campus 4140368 Sep 29 10:46 /afs/crc.nd.edu/user/c/cdrisko/SO2.F08
-rw-r--r-- 1 cdrisko campus 1766880 Sep 29 10:46 /afs/crc.nd.edu/user/c/cdrisko/SO2.F10
Sun Sep 29 10:46:31 EDT 2019
0.466u 0.227s 0:06.51 10.4%	0+0k 0+24io 0pf+0w
