   4   4   0   0
  0.1697933E+02  0.4080000E-09  0.4080000E-09  0.4080000E-09  0.5000000E-15
  1.000000000000000E-004
  CAR 
 unknown system                          
     39.57394067     -2.26016789  301      9.50194770      1.00000000
     -2.260  0.0000E+00  0.0000E+00
     -2.121  0.0000E+00  0.0000E+00
     -1.981  0.0000E+00  0.0000E+00
     -1.842  0.0000E+00  0.0000E+00
     -1.702  0.0000E+00  0.0000E+00
     -1.563  0.0000E+00  0.0000E+00
     -1.423  0.0000E+00  0.0000E+00
     -1.284 -0.3292E-38 -0.4591E-39
     -1.145 -0.6470E-28 -0.9023E-29
     -1.005 -0.2520E-19 -0.3515E-20
     -0.866 -0.1843E-12 -0.2569E-13
     -0.726 -0.2558E-07 -0.3566E-08
     -0.587 -0.5716E-04 -0.7974E-05
     -0.447 -0.4015E-03 -0.6396E-04
     -0.308  0.1507E-01  0.2038E-02
     -0.168  0.9972E-01  0.1594E-01
     -0.029  0.2177E+00  0.4630E-01
      0.110  0.1727E+00  0.7039E-01
      0.250  0.1140E+00  0.8629E-01
      0.389  0.4345E+00  0.1469E+00
      0.529  0.5022E+00  0.2169E+00
      0.668  0.4675E-01  0.2234E+00
      0.808  0.3277E+00  0.2691E+00
      0.947  0.5496E+00  0.3458E+00
      1.087  0.5859E+00  0.4275E+00
      1.226  0.4432E+00  0.4893E+00
      1.365  0.4277E+00  0.5489E+00
      1.505  0.9970E+00  0.6879E+00
      1.644  0.3177E+00  0.7322E+00
      1.784  0.4453E+00  0.7943E+00
      1.923  0.1414E+01  0.9915E+00
      2.063  0.8563E+00  0.1111E+01
      2.202  0.1871E+01  0.1372E+01
      2.342  0.2132E+01  0.1669E+01
      2.481  0.2837E+01  0.2065E+01
      2.620  0.3427E+01  0.2543E+01
      2.760  0.5368E+01  0.3291E+01
      2.899  0.5788E+01  0.4098E+01
      3.039  0.7636E+01  0.5163E+01
      3.178  0.6865E+01  0.6120E+01
      3.318  0.8217E+01  0.7266E+01
      3.457  0.4885E+01  0.7947E+01
      3.597  0.7469E+01  0.8989E+01
      3.736  0.5815E+01  0.9800E+01
      3.876  0.3238E+01  0.1025E+02
      4.015  0.6633E+01  0.1118E+02
      4.154  0.7513E+01  0.1222E+02
      4.294  0.7780E+01  0.1331E+02
      4.433  0.6820E+01  0.1426E+02
      4.573  0.7632E+01  0.1532E+02
      4.712  0.9906E+01  0.1671E+02
      4.852  0.6759E+01  0.1765E+02
      4.991  0.1147E+02  0.1925E+02
      5.131  0.1294E+02  0.2105E+02
      5.270  0.1070E+02  0.2254E+02
      5.409  0.8740E+01  0.2376E+02
      5.549  0.6669E+01  0.2469E+02
      5.688  0.7216E+01  0.2570E+02
      5.828  0.5467E+01  0.2646E+02
      5.967  0.8228E+01  0.2761E+02
      6.107  0.6719E+01  0.2855E+02
      6.246  0.7492E+01  0.2959E+02
      6.386  0.1061E+02  0.3107E+02
      6.525  0.7741E+01  0.3215E+02
      6.664  0.5373E+01  0.3290E+02
      6.804  0.5283E+01  0.3364E+02
      6.943  0.8622E+01  0.3484E+02
      7.083  0.5324E+01  0.3558E+02
      7.222  0.7549E+01  0.3663E+02
      7.362  0.7756E+01  0.3771E+02
      7.501  0.1218E+02  0.3941E+02
      7.641  0.8173E+01  0.4055E+02
      7.780  0.8692E+01  0.4176E+02
      7.919  0.3827E+01  0.4230E+02
      8.059  0.6968E+00  0.4240E+02
      8.198  0.1120E+00  0.4241E+02
      8.338  0.2906E+00  0.4245E+02
      8.477  0.1759E+01  0.4270E+02
      8.617  0.2343E+01  0.4302E+02
      8.756  0.1337E+01  0.4321E+02
      8.896  0.1743E+00  0.4323E+02
      9.035  0.1797E+00  0.4326E+02
      9.174  0.1603E+01  0.4348E+02
      9.314  0.2671E+01  0.4386E+02
      9.453  0.6206E+00  0.4394E+02
      9.593  0.1069E+01  0.4409E+02
      9.732  0.4053E+00  0.4415E+02
      9.872  0.1116E+01  0.4430E+02
     10.011  0.7207E+00  0.4440E+02
     10.151  0.1313E+01  0.4459E+02
     10.290  0.1878E+01  0.4485E+02
     10.430  0.1009E+01  0.4499E+02
     10.569  0.5172E+00  0.4506E+02
     10.708  0.2422E+01  0.4540E+02
     10.848  0.5466E+00  0.4548E+02
     10.987  0.8175E+00  0.4559E+02
     11.127  0.5316E+00  0.4566E+02
     11.266  0.1201E+01  0.4583E+02
     11.406  0.8346E+00  0.4595E+02
     11.545  0.1713E+01  0.4619E+02
     11.685  0.1506E+01  0.4640E+02
     11.824  0.8502E+00  0.4651E+02
     11.963  0.1216E+00  0.4653E+02
     12.103  0.5362E+00  0.4661E+02
     12.242  0.1008E+01  0.4675E+02
     12.382  0.2007E+01  0.4703E+02
     12.521  0.1058E+01  0.4717E+02
     12.661  0.1087E+01  0.4733E+02
     12.800  0.2340E+01  0.4765E+02
     12.940  0.7428E+00  0.4776E+02
     13.079  0.2164E+01  0.4806E+02
     13.218  0.2070E+01  0.4835E+02
     13.358  0.1190E+00  0.4836E+02
     13.497  0.5080E-01  0.4837E+02
     13.637  0.1473E+01  0.4858E+02
     13.776  0.1211E+01  0.4874E+02
     13.916  0.1279E+01  0.4892E+02
     14.055  0.1698E+01  0.4916E+02
     14.195  0.1678E+01  0.4939E+02
     14.334  0.1200E+01  0.4956E+02
     14.473  0.1493E+00  0.4958E+02
     14.613  0.1070E+01  0.4973E+02
     14.752  0.1373E+01  0.4992E+02
     14.892  0.1565E+01  0.5014E+02
     15.031  0.3118E+01  0.5058E+02
     15.171  0.1668E+01  0.5081E+02
     15.310  0.3346E+00  0.5085E+02
     15.450  0.7519E+00  0.5096E+02
     15.589  0.1120E+01  0.5112E+02
     15.728  0.5812E+00  0.5120E+02
     15.868  0.2268E+01  0.5151E+02
     16.007  0.9168E+00  0.5164E+02
     16.147  0.1267E+01  0.5182E+02
     16.286  0.1374E+01  0.5201E+02
     16.426  0.9681E+00  0.5214E+02
     16.565  0.1109E+01  0.5230E+02
     16.705  0.1226E+01  0.5247E+02
     16.844  0.3480E+01  0.5295E+02
     16.984  0.1064E+01  0.5310E+02
     17.123  0.3184E+00  0.5315E+02
     17.262  0.9441E+00  0.5328E+02
     17.402  0.9991E+00  0.5342E+02
     17.541  0.5598E+00  0.5350E+02
     17.681  0.1075E+01  0.5365E+02
     17.820  0.1044E+01  0.5379E+02
     17.960  0.2508E+01  0.5414E+02
     18.099  0.2401E+01  0.5448E+02
     18.239  0.1835E+01  0.5473E+02
     18.378  0.1013E+01  0.5487E+02
     18.517  0.1165E+01  0.5504E+02
     18.657  0.1837E+01  0.5529E+02
     18.796  0.1670E+01  0.5553E+02
     18.936  0.4029E+00  0.5558E+02
     19.075  0.1693E+01  0.5582E+02
     19.215  0.1559E+01  0.5603E+02
     19.354  0.2991E+01  0.5645E+02
     19.494  0.1577E+01  0.5667E+02
     19.633  0.1410E+01  0.5687E+02
     19.772  0.1600E+01  0.5709E+02
     19.912  0.2584E+01  0.5745E+02
     20.051  0.4456E+00  0.5751E+02
     20.191  0.1135E+01  0.5767E+02
     20.330  0.3210E+01  0.5812E+02
     20.470  0.2799E+01  0.5851E+02
     20.609  0.2255E+01  0.5882E+02
     20.749  0.3394E+01  0.5930E+02
     20.888  0.1358E+01  0.5949E+02
     21.027  0.1572E+01  0.5971E+02
     21.167  0.1851E+01  0.5996E+02
     21.306  0.2204E+01  0.6027E+02
     21.446  0.2004E+01  0.6055E+02
     21.585  0.1305E+01  0.6073E+02
     21.725  0.1605E+01  0.6096E+02
     21.864  0.8996E+00  0.6108E+02
     22.004  0.2731E+01  0.6146E+02
     22.143  0.1408E+01  0.6166E+02
     22.283  0.1749E+01  0.6190E+02
     22.422  0.6015E+01  0.6274E+02
     22.561  0.1061E+01  0.6289E+02
     22.701  0.1014E+01  0.6303E+02
     22.840  0.2145E+01  0.6333E+02
     22.980  0.8187E+00  0.6344E+02
     23.119  0.2524E+01  0.6380E+02
     23.259  0.1449E+01  0.6400E+02
     23.398  0.1162E+01  0.6416E+02
     23.538  0.6145E+01  0.6502E+02
     23.677  0.2295E+01  0.6534E+02
     23.816  0.1087E+01  0.6549E+02
     23.956  0.1756E+01  0.6573E+02
     24.095  0.2627E+01  0.6610E+02
     24.235  0.2473E+01  0.6645E+02
     24.374  0.1810E+01  0.6670E+02
     24.514  0.2421E+01  0.6704E+02
     24.653  0.2372E+01  0.6737E+02
     24.793  0.4745E+01  0.6803E+02
     24.932  0.2823E+01  0.6842E+02
     25.071  0.7218E+00  0.6852E+02
     25.211  0.3673E+01  0.6903E+02
     25.350  0.1755E+01  0.6928E+02
     25.490  0.1879E+01  0.6954E+02
     25.629  0.1798E+01  0.6979E+02
     25.769  0.8985E+00  0.6992E+02
     25.908  0.1382E+01  0.7011E+02
     26.048  0.5530E+00  0.7019E+02
     26.187  0.2326E+01  0.7051E+02
     26.326  0.3859E+01  0.7105E+02
     26.466  0.3558E+01  0.7155E+02
     26.605  0.2703E+01  0.7192E+02
     26.745  0.2851E+01  0.7232E+02
     26.884  0.1684E+01  0.7256E+02
     27.024  0.3856E+01  0.7309E+02
     27.163  0.3727E+01  0.7361E+02
     27.303  0.1910E+01  0.7388E+02
     27.442  0.5009E+01  0.7458E+02
     27.581  0.3882E+01  0.7512E+02
     27.721  0.2927E+01  0.7553E+02
     27.860  0.4584E+00  0.7559E+02
     28.000  0.2331E+01  0.7592E+02
     28.139  0.4416E+01  0.7653E+02
     28.279  0.2705E+01  0.7691E+02
     28.418  0.2363E+01  0.7724E+02
     28.558  0.2656E+01  0.7761E+02
     28.697  0.2485E+01  0.7796E+02
     28.837  0.1605E+01  0.7818E+02
     28.976  0.2695E+01  0.7856E+02
     29.115  0.3338E+01  0.7902E+02
     29.255  0.2614E+01  0.7938E+02
     29.394  0.1393E+01  0.7958E+02
     29.534  0.1730E+01  0.7982E+02
     29.673  0.1270E+01  0.8000E+02
     29.813  0.1246E+01  0.8017E+02
     29.952  0.2567E+01  0.8053E+02
     30.092  0.1471E+01  0.8073E+02
     30.231  0.1493E+01  0.8094E+02
     30.370  0.9545E+00  0.8108E+02
     30.510  0.6508E+00  0.8117E+02
     30.649  0.6782E+00  0.8126E+02
     30.789  0.1084E+01  0.8141E+02
     30.928  0.3786E+01  0.8194E+02
     31.068  0.2818E+01  0.8233E+02
     31.207  0.1724E+01  0.8257E+02
     31.347  0.1101E+01  0.8273E+02
     31.486  0.2644E+01  0.8310E+02
     31.625  0.2418E+01  0.8343E+02
     31.765  0.1782E+01  0.8368E+02
     31.904  0.6643E+00  0.8377E+02
     32.044  0.4421E+00  0.8384E+02
     32.183  0.1831E+01  0.8409E+02
     32.323  0.2648E+01  0.8446E+02
     32.462  0.1256E+01  0.8464E+02
     32.602  0.1430E+01  0.8483E+02
     32.741  0.3638E+01  0.8534E+02
     32.880  0.1244E+01  0.8552E+02
     33.020  0.3177E+01  0.8596E+02
     33.159  0.1932E+01  0.8623E+02
     33.299  0.2313E+01  0.8655E+02
     33.438  0.4038E+01  0.8711E+02
     33.578  0.1758E+01  0.8736E+02
     33.717  0.2290E+01  0.8768E+02
     33.857  0.1854E+01  0.8794E+02
     33.996  0.3016E+01  0.8836E+02
     34.136  0.2772E+01  0.8874E+02
     34.275  0.3354E+01  0.8921E+02
     34.414  0.4410E+01  0.8983E+02
     34.554  0.3280E+01  0.9028E+02
     34.693  0.2347E+01  0.9061E+02
     34.833  0.5456E+01  0.9137E+02
     34.972  0.4900E+01  0.9206E+02
     35.112  0.4453E+01  0.9268E+02
     35.251  0.4352E+01  0.9328E+02
     35.391  0.4781E+01  0.9395E+02
     35.530  0.1967E+01  0.9422E+02
     35.669  0.2426E+01  0.9456E+02
     35.809  0.3160E+01  0.9500E+02
     35.948  0.3190E+01  0.9545E+02
     36.088  0.9039E+00  0.9557E+02
     36.227  0.9323E+00  0.9570E+02
     36.367  0.1226E+01  0.9587E+02
     36.506 -0.5354E-01  0.9587E+02
     36.646  0.1866E+00  0.9589E+02
     36.785  0.3631E+00  0.9594E+02
     36.924  0.2738E+00  0.9598E+02
     37.064  0.1011E+00  0.9600E+02
     37.203  0.8030E-02  0.9600E+02
     37.343 -0.8742E-03  0.9600E+02
     37.482 -0.2149E-03  0.9600E+02
     37.622  0.2693E-02  0.9600E+02
     37.761  0.1737E-01  0.9600E+02
     37.901 -0.1230E-03  0.9600E+02
     38.040 -0.5705E-04  0.9600E+02
     38.179 -0.2557E-07  0.9600E+02
     38.319 -0.1843E-12  0.9600E+02
     38.458  0.0000E+00  0.9600E+02
     38.598  0.0000E+00  0.9600E+02
     38.737  0.0000E+00  0.9600E+02
     38.877  0.0000E+00  0.9600E+02
     39.016  0.0000E+00  0.9600E+02
     39.156  0.0000E+00  0.9600E+02
     39.295  0.0000E+00  0.9600E+02
     39.434  0.0000E+00  0.9600E+02
     39.574  0.0000E+00  0.9600E+02
