       N       E                     dE             d eps       ncg     rms          rms(c)
DAV:   1     0.183389769945E+03    0.18339E+03   -0.18765E+04  3408   0.715E+02
DAV:   2    -0.112931962548E+02   -0.19468E+03   -0.18357E+03  4440   0.180E+02
DAV:   3    -0.138403800374E+02   -0.25472E+01   -0.25445E+01  4344   0.204E+01
DAV:   4    -0.138508259687E+02   -0.10446E-01   -0.10446E-01  4800   0.148E+00
DAV:   5    -0.138509196937E+02   -0.93725E-04   -0.93725E-04  4152   0.140E-01    0.190E+01
DAV:   6    -0.128733675780E+02    0.97755E+00   -0.17138E+00  4152   0.649E+00    0.120E+01
DAV:   7    -0.127960153064E+02    0.77352E-01   -0.23342E-01  4416   0.241E+00    0.482E+00
DAV:   8    -0.127868519141E+02    0.91634E-02   -0.16760E-02  4368   0.600E-01    0.547E-01
DAV:   9    -0.127867907768E+02    0.61137E-04   -0.79962E-05  3696   0.425E-02
   1 F= -.12786791E+02 E0= -.12786256E+02  d E =-.160577E-02
