unknown system                          
           1
     4.080000    0.000000    0.000000
     0.000000    4.080000    0.000000
     0.000000    0.000000    4.080000
   Au
   4
Direct configuration=     1
   0.00000000  0.00000000  0.00000000
   0.00000000  0.50000000  0.50000000
   0.50000000  0.00000000  0.50000000
   0.50000000  0.50000000  0.00000000
