   4   4   0   0
  0.1710448E+02  0.4090000E-09  0.4090000E-09  0.4090000E-09  0.5000000E-15
  1.000000000000000E-004
  CAR 
 unknown system                          
     39.76019835     -1.21772650  301      8.16864155      1.00000000
     -1.218  0.0000E+00  0.0000E+00
     -1.081  0.0000E+00  0.0000E+00
     -0.945  0.0000E+00  0.0000E+00
     -0.808  0.0000E+00  0.0000E+00
     -0.671  0.0000E+00  0.0000E+00
     -0.535  0.0000E+00  0.0000E+00
     -0.398  0.0000E+00  0.0000E+00
     -0.262 -0.6167E-36 -0.8424E-37
     -0.125 -0.4610E-26 -0.6296E-27
      0.012 -0.7994E-18 -0.1092E-18
      0.148 -0.3041E-11 -0.4153E-12
      0.285 -0.2571E-06 -0.3511E-07
      0.421 -0.4073E-03 -0.5567E-04
      0.558 -0.2601E-03 -0.9120E-04
      0.695  0.1024E+00  0.1389E-01
      0.831  0.1439E-01  0.1586E-01
      0.968 -0.2741E-02  0.1548E-01
      1.104  0.6146E+00  0.9944E-01
      1.241  0.8427E-01  0.1109E+00
      1.378  0.1791E+00  0.1354E+00
      1.514  0.1228E+01  0.3032E+00
      1.651  0.9078E-01  0.3156E+00
      1.787  0.8335E+00  0.4295E+00
      1.924  0.3443E-02  0.4299E+00
      2.061  0.8320E+00  0.5436E+00
      2.197  0.3982E+01  0.1087E+01
      2.334  0.1080E+02  0.2562E+01
      2.470  0.1242E+02  0.4259E+01
      2.607  0.1144E+02  0.5822E+01
      2.743  0.1572E+02  0.7969E+01
      2.880  0.9630E+01  0.9284E+01
      3.017  0.4614E+01  0.9914E+01
      3.153  0.1333E+02  0.1174E+02
      3.290  0.1008E+02  0.1311E+02
      3.426  0.1033E+02  0.1452E+02
      3.563  0.8735E+01  0.1572E+02
      3.700  0.9729E+01  0.1705E+02
      3.836  0.1952E+02  0.1971E+02
      3.973  0.1923E+02  0.2234E+02
      4.109  0.6323E+01  0.2320E+02
      4.246  0.1344E+02  0.2504E+02
      4.383  0.9665E+01  0.2636E+02
      4.519  0.1192E+02  0.2799E+02
      4.656  0.1019E+02  0.2938E+02
      4.792  0.1525E+02  0.3146E+02
      4.929  0.1193E+02  0.3309E+02
      5.066  0.9643E+01  0.3441E+02
      5.202  0.7487E+01  0.3543E+02
      5.339  0.1607E+02  0.3763E+02
      5.475  0.2048E+02  0.4042E+02
      5.612  0.4671E+01  0.4106E+02
      5.749  0.2528E+01  0.4141E+02
      5.885 -0.1082E+00  0.4139E+02
      6.022 -0.1018E+00  0.4138E+02
      6.158  0.2208E+01  0.4168E+02
      6.295  0.2020E+01  0.4196E+02
      6.431  0.1277E+01  0.4213E+02
      6.568  0.2681E+01  0.4250E+02
      6.705 -0.1840E+00  0.4247E+02
      6.841  0.9823E+00  0.4261E+02
      6.978  0.1990E+01  0.4288E+02
      7.114 -0.9451E-01  0.4286E+02
      7.251 -0.2945E-02  0.4286E+02
      7.388 -0.7846E-06  0.4286E+02
      7.524 -0.3722E-08  0.4286E+02
      7.661 -0.9493E-04  0.4286E+02
      7.797 -0.4136E-01  0.4286E+02
      7.934  0.4212E+00  0.4292E+02
      8.071  0.3721E+01  0.4342E+02
      8.207  0.5053E+01  0.4411E+02
      8.344 -0.5402E-01  0.4411E+02
      8.480  0.8042E+00  0.4422E+02
      8.617  0.2134E+01  0.4451E+02
      8.754 -0.1323E+00  0.4449E+02
      8.890  0.6161E+00  0.4457E+02
      9.027  0.2305E+01  0.4489E+02
      9.163 -0.6083E-01  0.4488E+02
      9.300 -0.6804E-02  0.4488E+02
      9.437 -0.8294E-01  0.4487E+02
      9.573  0.1287E+01  0.4504E+02
      9.710  0.1703E+01  0.4528E+02
      9.846 -0.2334E+00  0.4525E+02
      9.983  0.2779E+01  0.4562E+02
     10.119  0.2058E+01  0.4591E+02
     10.256 -0.1282E+00  0.4589E+02
     10.393 -0.9555E-02  0.4589E+02
     10.529 -0.3174E-01  0.4588E+02
     10.666  0.2404E+01  0.4621E+02
     10.802  0.4006E+00  0.4627E+02
     10.939  0.9764E+00  0.4640E+02
     11.076  0.6107E+01  0.4723E+02
     11.212  0.1794E-01  0.4724E+02
     11.349 -0.2628E-01  0.4723E+02
     11.485 -0.2114E-04  0.4723E+02
     11.622 -0.2930E-02  0.4723E+02
     11.759 -0.3203E-01  0.4723E+02
     11.895  0.1145E+01  0.4738E+02
     12.032  0.3198E+00  0.4743E+02
     12.168 -0.4614E-01  0.4742E+02
     12.305  0.2011E+00  0.4745E+02
     12.442  0.2464E+01  0.4778E+02
     12.578  0.1334E+01  0.4797E+02
     12.715  0.2066E+01  0.4825E+02
     12.851  0.2389E+01  0.4858E+02
     12.988 -0.8879E-01  0.4856E+02
     13.125  0.1312E+01  0.4874E+02
     13.261  0.5813E+01  0.4954E+02
     13.398  0.1864E-01  0.4954E+02
     13.534 -0.2577E-01  0.4954E+02
     13.671 -0.8294E-01  0.4952E+02
     13.808  0.1283E+01  0.4970E+02
     13.944  0.1710E+01  0.4993E+02
     14.081  0.7305E+00  0.5003E+02
     14.217  0.1188E+00  0.5005E+02
     14.354 -0.5592E-01  0.5004E+02
     14.490  0.4207E+00  0.5010E+02
     14.627  0.5071E+01  0.5079E+02
     14.764  0.3864E+00  0.5084E+02
     14.900  0.1198E+01  0.5101E+02
     15.037 -0.4246E-01  0.5100E+02
     15.173  0.1181E+01  0.5116E+02
     15.310  0.1282E+01  0.5134E+02
     15.447  0.9132E+00  0.5146E+02
     15.583  0.5656E+01  0.5224E+02
     15.720  0.1889E+01  0.5249E+02
     15.856  0.2191E+01  0.5279E+02
     15.993 -0.8348E-01  0.5278E+02
     16.130  0.1316E+00  0.5280E+02
     16.266  0.2526E+01  0.5315E+02
     16.403  0.3979E+00  0.5320E+02
     16.539  0.2400E+01  0.5353E+02
     16.676  0.3187E+01  0.5396E+02
     16.813  0.2409E+01  0.5429E+02
     16.949  0.2943E+00  0.5433E+02
     17.086  0.2514E+01  0.5468E+02
     17.222  0.2339E+00  0.5471E+02
     17.359 -0.2409E-01  0.5470E+02
     17.496 -0.5094E-02  0.5470E+02
     17.632 -0.2198E+00  0.5467E+02
     17.769  0.4073E+01  0.5523E+02
     17.905  0.6422E+01  0.5611E+02
     18.042  0.1309E+01  0.5629E+02
     18.178  0.4530E+00  0.5635E+02
     18.315  0.2489E+01  0.5669E+02
     18.452  0.2814E+00  0.5673E+02
     18.588  0.2440E+01  0.5706E+02
     18.725  0.2572E+01  0.5741E+02
     18.861  0.1914E+01  0.5767E+02
     18.998  0.4538E+01  0.5829E+02
     19.135  0.6198E+01  0.5914E+02
     19.271 -0.1170E+00  0.5912E+02
     19.408 -0.6840E-01  0.5911E+02
     19.544  0.8886E+00  0.5923E+02
     19.681  0.5822E+00  0.5931E+02
     19.818  0.1020E+01  0.5945E+02
     19.954  0.5454E+01  0.6020E+02
     20.091  0.4029E+01  0.6075E+02
     20.227  0.3013E+01  0.6116E+02
     20.364  0.8350E+00  0.6127E+02
     20.501  0.6283E+01  0.6213E+02
     20.637  0.4907E+00  0.6220E+02
     20.774 -0.5733E-01  0.6219E+02
     20.910 -0.9598E-01  0.6218E+02
     21.047  0.1947E+01  0.6244E+02
     21.184  0.1033E+01  0.6259E+02
     21.320 -0.1922E+00  0.6256E+02
     21.457  0.1842E+01  0.6281E+02
     21.593  0.4942E+01  0.6349E+02
     21.730  0.5490E+00  0.6356E+02
     21.867  0.1626E+01  0.6378E+02
     22.003  0.2003E+01  0.6406E+02
     22.140  0.5951E+00  0.6414E+02
     22.276  0.3049E+01  0.6455E+02
     22.413  0.2811E+01  0.6494E+02
     22.549  0.2509E+01  0.6528E+02
     22.686  0.2502E+00  0.6532E+02
     22.823  0.2526E+01  0.6566E+02
     22.959 -0.1985E-01  0.6566E+02
     23.096  0.3895E+01  0.6619E+02
     23.232  0.6970E+01  0.6714E+02
     23.369  0.3424E+01  0.6761E+02
     23.506 -0.5654E-01  0.6760E+02
     23.642 -0.1850E-01  0.6760E+02
     23.779 -0.5343E-01  0.6759E+02
     23.915  0.2279E+01  0.6790E+02
     24.052  0.1528E+01  0.6811E+02
     24.189  0.1933E+01  0.6838E+02
     24.325  0.2417E+01  0.6871E+02
     24.462  0.1223E+01  0.6887E+02
     24.598  0.8886E+00  0.6899E+02
     24.735  0.2562E+01  0.6934E+02
     24.872  0.2628E+01  0.6970E+02
     25.008  0.1451E+01  0.6990E+02
     25.145  0.6389E+01  0.7077E+02
     25.281  0.8846E+01  0.7198E+02
     25.418  0.3831E+01  0.7251E+02
     25.555  0.1066E+01  0.7265E+02
     25.691  0.1499E+01  0.7286E+02
     25.828  0.2398E+01  0.7318E+02
     25.964  0.4933E+00  0.7325E+02
     26.101 -0.2305E-01  0.7325E+02
     26.237 -0.6076E-02  0.7325E+02
     26.374 -0.1401E+00  0.7323E+02
     26.511  0.2871E+01  0.7362E+02
     26.647  0.3508E+01  0.7410E+02
     26.784  0.7497E+01  0.7512E+02
     26.920  0.7553E+01  0.7616E+02
     27.057  0.5335E+01  0.7688E+02
     27.194  0.5345E+01  0.7761E+02
     27.330  0.1661E+01  0.7784E+02
     27.467 -0.1773E+00  0.7782E+02
     27.603  0.5384E+00  0.7789E+02
     27.740  0.5172E+01  0.7860E+02
     27.877  0.1475E+01  0.7880E+02
     28.013  0.9696E-01  0.7881E+02
     28.150  0.1305E+01  0.7899E+02
     28.286  0.6082E+01  0.7982E+02
     28.423  0.1591E+01  0.8004E+02
     28.560  0.1954E+01  0.8030E+02
     28.696  0.9831E+00  0.8044E+02
     28.833  0.5825E+00  0.8052E+02
     28.969  0.7684E-01  0.8053E+02
     29.106 -0.8015E-02  0.8053E+02
     29.243 -0.6291E-01  0.8052E+02
     29.379  0.9215E+00  0.8065E+02
     29.516  0.2909E+01  0.8104E+02
     29.652  0.2358E+01  0.8136E+02
     29.789  0.8840E+00  0.8149E+02
     29.925  0.1090E+01  0.8163E+02
     30.062  0.4544E+01  0.8226E+02
     30.199  0.6951E-01  0.8226E+02
     30.335  0.1962E+01  0.8253E+02
     30.472  0.2253E+01  0.8284E+02
     30.608  0.1751E+01  0.8308E+02
     30.745  0.5656E+01  0.8385E+02
     30.882  0.2460E+01  0.8419E+02
     31.018 -0.1371E+00  0.8417E+02
     31.155  0.1511E+01  0.8438E+02
     31.291  0.3944E+01  0.8491E+02
     31.428  0.3569E+01  0.8540E+02
     31.565  0.5702E+01  0.8618E+02
     31.701  0.8373E+00  0.8629E+02
     31.838 -0.4897E-01  0.8629E+02
     31.974 -0.4444E-01  0.8628E+02
     32.111  0.1071E+00  0.8630E+02
     32.248  0.8277E+01  0.8743E+02
     32.384  0.7944E+01  0.8851E+02
     32.521 -0.3416E+00  0.8847E+02
     32.657 -0.2003E-01  0.8846E+02
     32.794  0.2573E-01  0.8847E+02
     32.931  0.1178E+01  0.8863E+02
     33.067  0.4501E+01  0.8924E+02
     33.204  0.7235E+01  0.9023E+02
     33.340  0.1195E+01  0.9039E+02
     33.477  0.1006E+01  0.9053E+02
     33.614  0.3418E+01  0.9100E+02
     33.750  0.2734E+01  0.9137E+02
     33.887  0.2113E+01  0.9166E+02
     34.023  0.2914E+01  0.9206E+02
     34.160  0.6655E+01  0.9297E+02
     34.296  0.1639E+01  0.9319E+02
     34.433  0.5812E+01  0.9399E+02
     34.570  0.7032E+01  0.9495E+02
     34.706  0.3793E+01  0.9546E+02
     34.843 -0.1681E+00  0.9544E+02
     34.979 -0.7221E-02  0.9544E+02
     35.116 -0.4194E-05  0.9544E+02
     35.253 -0.3322E-07  0.9544E+02
     35.389 -0.2450E-03  0.9544E+02
     35.526 -0.2247E-01  0.9544E+02
     35.662  0.3391E+00  0.9548E+02
     35.799  0.6382E+00  0.9557E+02
     35.936  0.1849E+01  0.9582E+02
     36.072  0.1203E+01  0.9599E+02
     36.209 -0.1997E-01  0.9598E+02
     36.345 -0.4226E-02  0.9598E+02
     36.482 -0.2376E-05  0.9598E+02
     36.619 -0.2525E-10  0.9598E+02
     36.755  0.0000E+00  0.9598E+02
     36.892  0.0000E+00  0.9598E+02
     37.028 -0.4413E-33  0.9598E+02
     37.165 -0.1183E-23  0.9598E+02
     37.302 -0.7334E-16  0.9598E+02
     37.438 -0.9841E-10  0.9598E+02
     37.575 -0.2879E-05  0.9598E+02
     37.711 -0.1419E-02  0.9598E+02
     37.848  0.1685E-01  0.9599E+02
     37.984  0.1024E+00  0.9600E+02
     38.121 -0.2601E-03  0.9600E+02
     38.258 -0.4073E-03  0.9600E+02
     38.394 -0.2571E-06  0.9600E+02
     38.531 -0.3041E-11  0.9600E+02
     38.667  0.0000E+00  0.9600E+02
     38.804  0.0000E+00  0.9600E+02
     38.941  0.0000E+00  0.9600E+02
     39.077  0.0000E+00  0.9600E+02
     39.214  0.0000E+00  0.9600E+02
     39.350  0.0000E+00  0.9600E+02
     39.487  0.0000E+00  0.9600E+02
     39.624  0.0000E+00  0.9600E+02
     39.760  0.0000E+00  0.9600E+02
