    4    4    1    1
  0.1710448E+02  0.4090000E-09  0.4090000E-09  0.4090000E-09  0.5000000E-15
  1.000000000000000E-004
  CAR 
 unknown system                          
     44     10     48
 
  0.0000000E+00  0.0000000E+00  0.0000000E+00  0.8000000E-02
    1        0.644906   1.000000
    2        1.982248   1.000000
    3        1.982248   1.000000
    4        1.982248   1.000000
    5        2.123028   1.000000
    6        2.123028   1.000000
    7        2.123028   1.000000
    8        3.613751   1.000000
    9        3.613751   1.000000
   10        3.613751   1.000000
   11        4.643933   1.000000
   12        4.643933   1.000000
   13        5.404366   1.000000
   14        5.404366   1.000000
   15        5.404366   1.000000
   16        5.643477   1.000000
   17        5.643477   1.000000
   18        5.643477   1.000000
   19        5.643477   1.000000
   20        5.643477   1.000000
   21        5.643477   1.000000
   22        9.999216  -0.000000
   23        9.999216  -0.000000
   24        9.999216  -0.000000
   25       15.114718   0.000000
   26       15.114718   0.000000
   27       15.114718   0.000000
   28       19.038897   0.000000
   29       19.038897   0.000000
   30       19.038897   0.000000
   31       19.038897   0.000000
   32       19.038897   0.000000
   33       19.038897   0.000000
   34       24.409564   0.000000
   35       25.544665   0.000000
   36       25.544665   0.000000
   37       25.544665   0.000000
   38       25.604648   0.000000
   39       25.604648   0.000000
   40       25.604648   0.000000
   41       27.965825   0.000000
   42       27.965825   0.000000
   43       27.965825   0.000000
   44       32.765452   0.000000
   45       33.893924   0.000000
   46       33.893924   0.000000
   47       33.893924   0.000000
   48       37.897565   0.000000
 
  0.2000000E+00  0.0000000E+00  0.0000000E+00  0.4800000E-01
    1        1.054525   1.000000
    2        2.144049   1.000000
    3        2.194264   1.000000
    4        2.194264   1.000000
    5        2.250824   1.000000
    6        2.321853   1.000000
    7        2.321853   1.000000
    8        3.454570   1.000000
    9        3.764191   1.000000
   10        3.764191   1.000000
   11        4.491205   1.000000
   12        4.713127   1.000000
   13        4.978548   1.000000
   14        4.978548   1.000000
   15        5.192744   1.000000
   16        5.192744   1.000000
   17        5.327607   1.000000
   18        5.387456   1.000000
   19        5.387456   1.000000
   20        5.643568   1.000000
   21        5.643568   1.000000
   22        8.025490   1.030565
   23       11.006883   0.000000
   24       11.006883   0.000000
   25       15.159686   0.000000
   26       15.159686   0.000000
   27       17.720552   0.000000
   28       17.886467   0.000000
   29       17.886467   0.000000
   30       18.015354   0.000000
   31       18.015354   0.000000
   32       19.769099   0.000000
   33       19.769099   0.000000
   34       24.553167   0.000000
   35       25.461216   0.000000
   36       25.557970   0.000000
   37       26.681509   0.000000
   38       26.784409   0.000000
   39       26.784409   0.000000
   40       26.944105   0.000000
   41       26.944105   0.000000
   42       27.633028   0.000000
   43       27.633028   0.000000
   44       33.484528   0.000000
   45       33.484528   0.000000
   46       33.711749   0.000000
   47       34.570190   0.000000
   48       35.664452   0.000000
 
  0.4000000E+00  0.0000000E+00  0.0000000E+00  0.4800000E-01
    1        2.067038   1.000000
    2        2.458749   1.000000
    3        2.598337   1.000000
    4        2.633966   1.000000
    5        2.633966   1.000000
    6        2.910586   1.000000
    7        2.910586   1.000000
    8        3.056759   1.000000
    9        3.849156   1.000000
   10        3.849156   1.000000
   11        4.190382   1.000000
   12        4.190382   1.000000
   13        4.305803   1.000000
   14        4.749291   1.000000
   15        4.749291   1.000000
   16        4.799951   1.000000
   17        4.799951   1.000000
   18        4.897041   1.000000
   19        5.131626   1.000000
   20        5.444773   1.000000
   21        5.644139   1.000000
   22        5.644139   1.000000
   23       13.128621   0.000000
   24       13.128621   0.000000
   25       15.313844   0.000000
   26       15.313844   0.000000
   27       15.581332   0.000000
   28       15.581332   0.000000
   29       16.774055   0.000000
   30       16.774055   0.000000
   31       21.730156   0.000000
   32       21.730156   0.000000
   33       22.097594   0.000000
   34       24.404189   0.000000
   35       24.404189   0.000000
   36       24.884090   0.000000
   37       25.035285   0.000000
   38       25.224682   0.000000
   39       25.862483   0.000000
   40       28.777403   0.000000
   41       29.486178   0.000000
   42       29.486178   0.000000
   43       31.594770   0.000000
   44       31.594770   0.000000
   45       32.901323   0.000000
   46       32.901323   0.000000
   47       34.481422   0.000000
   48       34.481422   0.000000
 
  0.2000000E+00  0.2000000E+00  0.0000000E+00  0.9600000E-01
    1        1.429013   1.000000
    2        2.285716   1.000000
    3        2.365487   1.000000
    4        2.365487   1.000000
    5        2.434406   1.000000
    6        2.434406   1.000000
    7        2.594606   1.000000
    8        3.418550   1.000000
    9        3.814150   1.000000
   10        3.839420   1.000000
   11        4.462726   1.000000
   12        4.613194   1.000000
   13        4.613194   1.000000
   14        4.660023   1.000000
   15        4.756854   1.000000
   16        5.026118   1.000000
   17        5.234302   1.000000
   18        5.234302   1.000000
   19        5.383905   1.000000
   20        5.383905   1.000000
   21        5.460439   1.000000
   22        8.927980  -0.000000
   23        8.927980  -0.000000
   24       11.858370   0.000000
   25       14.814236   0.000000
   26       15.531177   0.000000
   27       17.753798   0.000000
   28       17.753798   0.000000
   29       18.532032   0.000000
   30       18.532032   0.000000
   31       18.682805   0.000000
   32       18.682805   0.000000
   33       20.419763   0.000000
   34       23.860628   0.000000
   35       24.151687   0.000000
   36       25.299424   0.000000
   37       26.814961   0.000000
   38       26.814961   0.000000
   39       27.162065   0.000000
   40       27.664421   0.000000
   41       27.664421   0.000000
   42       29.438953   0.000000
   43       30.261505   0.000000
   44       30.548013   0.000000
   45       33.741392   0.000000
   46       34.125230   0.000000
   47       34.463151   0.000000
   48       35.981489   0.000000
 
  0.4000000E+00  0.2000000E+00  0.0000000E+00  0.1920000E+00
    1        2.341477   1.000000
    2        2.676862   1.000000
    3        2.713734   1.000000
    4        2.737407   1.000000
    5        2.828630   1.000000
    6        2.971626   1.000000
    7        3.092591   1.000000
    8        3.126124   1.000000
    9        3.627655   1.000000
   10        3.796689   1.000000
   11        3.846348   1.000000
   12        4.007783   1.000000
   13        4.190293   1.000000
   14        4.503113   1.000000
   15        4.671956   1.000000
   16        4.779243   1.000000
   17        4.792479   1.000000
   18        4.999303   1.000000
   19        5.190785   1.000000
   20        5.376557   1.000000
   21        5.379669   1.000000
   22        6.449269   1.000000
   23       10.620948  -0.000000
   24       12.587683   0.000000
   25       13.816077   0.000000
   26       15.756528   0.000000
   27       16.198965   0.000000
   28       16.670541   0.000000
   29       18.856695   0.000000
   30       19.928104   0.000000
   31       20.064732   0.000000
   32       20.187950   0.000000
   33       21.891711   0.000000
   34       22.210062   0.000000
   35       22.326885   0.000000
   36       26.489895   0.000000
   37       26.935974   0.000000
   38       27.153880   0.000000
   39       27.160213   0.000000
   40       28.231953   0.000000
   41       29.632249   0.000000
   42       29.989927   0.000000
   43       30.368335   0.000000
   44       32.298521   0.000000
   45       33.139843   0.000000
   46       33.981974   0.000000
   47       34.308452   0.000000
   48       34.381478   0.000000
 
  0.4000000E+00  0.4000000E+00  0.0000000E+00  0.9600000E-01
    1        2.853218   1.000000
    2        2.878099   1.000000
    3        3.113466   1.000000
    4        3.113466   1.000000
    5        3.203541   1.000000
    6        3.255663   1.000000
    7        3.255663   1.000000
    8        3.327579   1.000000
    9        3.327579   1.000000
   10        3.491281   1.000000
   11        3.554515   1.000000
   12        3.780679   1.000000
   13        4.237218   1.000000
   14        4.335581   1.000000
   15        4.427017   1.000000
   16        4.574876   1.000000
   17        4.574876   1.000000
   18        4.804935   1.000000
   19        4.804935   1.000000
   20        4.967353   1.000000
   21        6.225821   1.000000
   22        7.978616   1.010886
   23        7.978616   1.010886
   24        9.948258  -0.000000
   25       15.539021   0.000000
   26       16.439073   0.000000
   27       17.789847   0.000000
   28       17.789847   0.000000
   29       17.803848   0.000000
   30       17.803848   0.000000
   31       19.532496   0.000000
   32       19.896659   0.000000
   33       23.086063   0.000000
   34       23.086063   0.000000
   35       23.929804   0.000000
   36       25.124159   0.000000
   37       26.485095   0.000000
   38       28.426505   0.000000
   39       28.426505   0.000000
   40       28.587856   0.000000
   41       29.371716   0.000000
   42       29.947367   0.000000
   43       29.947367   0.000000
   44       33.256205   0.000000
   45       33.663959   0.000000
   46       33.808241   0.000000
   47       34.386325   0.000000
   48       34.623064   0.000000
 
  0.2000000E+00  0.2000000E+00  0.2000000E+00  0.6400000E-01
    1        1.709606   1.000000
    2        2.389605   1.000000
    3        2.389605   1.000000
    4        2.389605   1.000000
    5        2.746114   1.000000
    6        2.746114   1.000000
    7        2.746114   1.000000
    8        3.560394   1.000000
    9        3.816667   1.000000
   10        3.816667   1.000000
   11        4.412764   1.000000
   12        4.412764   1.000000
   13        4.412764   1.000000
   14        4.652893   1.000000
   15        4.652893   1.000000
   16        4.740618   1.000000
   17        4.740618   1.000000
   18        4.740618   1.000000
   19        5.514292   1.000000
   20        5.514292   1.000000
   21        5.514292   1.000000
   22        9.581679  -0.000000
   23        9.581679  -0.000000
   24        9.581679  -0.000000
   25       15.509009   0.000000
   26       15.509009   0.000000
   27       15.509009   0.000000
   28       18.255150   0.000000
   29       18.255150   0.000000
   30       18.255150   0.000000
   31       21.027983   0.000000
   32       21.027983   0.000000
   33       21.027983   0.000000
   34       21.436602   0.000000
   35       25.194894   0.000000
   36       25.194894   0.000000
   37       25.194894   0.000000
   38       25.223031   0.000000
   39       28.173208   0.000000
   40       28.173208   0.000000
   41       30.679867   0.000000
   42       30.679867   0.000000
   43       30.679867   0.000000
   44       31.101521   0.000000
   45       32.238742   0.000000
   46       32.238742   0.000000
   47       35.848640   0.000000
   48       35.848641   0.000000
 
  0.4000000E+00  0.2000000E+00  0.2000000E+00  0.1920000E+00
    1        2.292117   1.000000
    2        2.527640   1.000000
    3        2.709571   1.000000
    4        2.709571   1.000000
    5        3.107403   1.000000
    6        3.107403   1.000000
    7        3.191070   1.000000
    8        3.568681   1.000000
    9        3.786482   1.000000
   10        3.829971   1.000000
   11        3.829971   1.000000
   12        3.905653   1.000000
   13        3.950664   1.000000
   14        4.287692   1.000000
   15        4.484300   1.000000
   16        4.484300   1.000000
   17        5.039496   1.000000
   18        5.052132   1.000000
   19        5.382820   1.000000
   20        5.396433   1.000000
   21        5.396433   1.000000
   22        6.862229   1.000000
   23       10.984938   0.000000
   24       10.984938   0.000000
   25       13.180117   0.000000
   26       13.180117   0.000000
   27       17.024544   0.000000
   28       19.001323   0.000000
   29       19.001323   0.000000
   30       19.059979   0.000000
   31       20.439581   0.000000
   32       20.439581   0.000000
   33       22.478211   0.000000
   34       22.754975   0.000000
   35       24.667616   0.000000
   36       25.222191   0.000000
   37       25.332100   0.000000
   38       26.915471   0.000000
   39       26.915471   0.000000
   40       27.737722   0.000000
   41       30.784287   0.000000
   42       31.215086   0.000000
   43       32.250435   0.000000
   44       32.250435   0.000000
   45       32.995361   0.000000
   46       33.098945   0.000000
   47       34.538927   0.000000
   48       34.569880   0.000000
 
  0.4000000E+00  0.4000000E+00  0.2000000E+00  0.1920000E+00
    1        2.346744   1.000000
    2        2.542689   1.000000
    3        2.542689   1.000000
    4        2.596214   1.000000
    5        3.297651   1.000000
    6        3.383170   1.000000
    7        3.383170   1.000000
    8        3.647062   1.000000
    9        3.842569   1.000000
   10        3.949059   1.000000
   11        3.949059   1.000000
   12        4.097439   1.000000
   13        4.185153   1.000000
   14        4.199922   1.000000
   15        4.199922   1.000000
   16        4.325887   1.000000
   17        4.835840   1.000000
   18        5.249394   1.000000
   19        5.249394   1.000000
   20        5.250517   1.000000
   21        6.130507   1.000000
   22        8.123054   0.844907
   23        8.123054   0.844907
   24        9.982153  -0.000000
   25       12.767667   0.000000
   26       14.553534   0.000000
   27       14.553534   0.000000
   28       16.544233   0.000000
   29       19.933610   0.000000
   30       21.495928   0.000000
   31       21.495928   0.000000
   32       23.058851   0.000000
   33       23.189712   0.000000
   34       23.189712   0.000000
   35       24.213739   0.000000
   36       24.838394   0.000000
   37       25.726338   0.000000
   38       26.685813   0.000000
   39       26.685813   0.000000
   40       28.188293   0.000000
   41       30.652866   0.000000
   42       31.412342   0.000000
   43       31.454770   0.000000
   44       31.454770   0.000000
   45       33.099889   0.000000
   46       33.527077   0.000000
   47       34.086539   0.000000
   48       34.086539   0.000000
 
  0.4000000E+00  0.4000000E+00  0.4000000E+00  0.6400000E-01
    1        2.083452   1.000000
    2        2.199952   1.000000
    3        2.199952   1.000000
    4        2.199952   1.000000
    5        3.489730   1.000000
    6        3.489730   1.000000
    7        3.489730   1.000000
    8        3.645258   1.000000
    9        3.645258   1.000000
   10        3.744252   1.000000
   11        3.744252   1.000000
   12        3.744252   1.000000
   13        4.860828   1.000000
   14        4.860828   1.000000
   15        4.860828   1.000000
   16        5.286308   1.000000
   17        5.286308   1.000000
   18        5.446336   1.000000
   19        5.446336   1.000000
   20        5.446336   1.000000
   21        6.469740   1.000000
   22        8.508405  -0.000009
   23        8.508405  -0.000009
   24        8.508405  -0.000009
   25       12.368730   0.000000
   26       12.368730   0.000000
   27       12.368730   0.000000
   28       14.028372   0.000000
   29       23.287144   0.000000
   30       23.287144   0.000000
   31       23.287144   0.000000
   32       23.920159   0.000000
   33       25.065217   0.000000
   34       25.065217   0.000000
   35       25.065217   0.000000
   36       25.122746   0.000000
   37       25.122746   0.000000
   38       25.122746   0.000000
   39       26.659613   0.000000
   40       26.659613   0.000000
   41       31.190403   0.000000
   42       31.190403   0.000000
   43       32.156623   0.000000
   44       32.156623   0.000000
   45       32.156623   0.000000
   46       32.248177   0.000000
   47       32.248177   0.000000
   48       32.248177   0.000000
