       N       E                     dE             d eps       ncg     rms          rms(c)
DAV:   1     0.194543223154E+03    0.19454E+03   -0.18681E+04   960   0.732E+02
DAV:   2    -0.861403557920E+01   -0.20316E+03   -0.19035E+03  1296   0.185E+02
DAV:   3    -0.117021847341E+02   -0.30881E+01   -0.30859E+01  1128   0.246E+01
DAV:   4    -0.117111144017E+02   -0.89297E-02   -0.89296E-02  1296   0.140E+00
DAV:   5    -0.117111921343E+02   -0.77733E-04   -0.77733E-04  1176   0.131E-01    0.105E+01
DAV:   6    -0.107842141941E+02    0.92698E+00   -0.23250E+00  1080   0.844E+00    0.678E+00
DAV:   7    -0.107505921393E+02    0.33622E-01   -0.32134E-02  1248   0.987E-01    0.373E+00
DAV:   8    -0.107396461165E+02    0.10946E-01   -0.24318E-03  1200   0.192E-01    0.176E-01
DAV:   9    -0.107396700963E+02   -0.23980E-04   -0.25005E-05   912   0.191E-02
   1 F= -.10739670E+02 E0= -.10738440E+02  d E =-.368982E-02
