 vasp.5.4.1 05Feb16 (build Feb 08 2018 09:21:51) complex                        
  
 executed on             LinuxIFC date 2019.11.21  13:19:01
 running on   24 total cores
 distrk:  each k-point on   24 cores,    1 groups
 distr:  one band on NCORES_PER_BAND=   1 cores,   24 groups


--------------------------------------------------------------------------------------------------------


 INCAR:
 POTCAR:    PAW_PBE Ag 02Apr2005                  

 ----------------------------------------------------------------------------- 
|                                                                             |
|           W    W    AA    RRRRR   N    N  II  N    N   GGGG   !!!           |
|           W    W   A  A   R    R  NN   N  II  NN   N  G    G  !!!           |
|           W    W  A    A  R    R  N N  N  II  N N  N  G       !!!           |
|           W WW W  AAAAAA  RRRRR   N  N N  II  N  N N  G  GGG   !            |
|           WW  WW  A    A  R   R   N   NN  II  N   NN  G    G                |
|           W    W  A    A  R    R  N    N  II  N    N   GGGG   !!!           |
|                                                                             |
|      For optimal performance we recommend to set                            |
|        NCORE= 4 - approx SQRT( number of cores)                             |
|      NCORE specifies how many cores store one orbital (NPAR=cpu/NCORE).     |
|      This setting can  greatly improve the performance of VASP for DFT.     |
|      The default, NPAR=number of cores might be grossly inefficient         |
|      on modern multi-core architectures or massively parallel machines.     |
|      Do your own testing !!!!                                               |
|      Unfortunately you need to use the default for GW and RPA calculations. |
|      (for HF NCORE is supported but not extensively tested yet)             |
|                                                                             |
 ----------------------------------------------------------------------------- 

 POTCAR:    PAW_PBE Ag 02Apr2005                  
   VRHFIN =Ag : s1 d10                                                          
   LEXCH  = PE                                                                  
   EATOM  =  1037.2675 eV,   76.2370 Ry                                         
                                                                                
   TITEL  = PAW_PBE Ag 02Apr2005                                                
   LULTRA =        F    use ultrasoft PP ?                                      
   IUNSCR =        1    unscreen: 0-lin 1-nonlin 2-no                           
   RPACOR =    2.000    partial core radius                                     
   POMASS =  107.868; ZVAL   =   11.000    mass and valenz                      
   RCORE  =    2.500    outmost cutoff radius                                   
   RWIGS  =    2.840; RWIGS  =    1.503    wigner-seitz radius (au A)           
   ENMAX  =  249.844; ENMIN  =  187.383 eV                                      
   ICORE  =        3    local potential                                         
   LCOR   =        T    correct aug charges                                     
   LPAW   =        T    paw PP                                                  
   EAUG   =  412.496                                                            
   DEXC   =    0.000                                                            
   RMAX   =    2.560    core radius for proj-oper                               
   RAUG   =    1.300    factor for augmentation sphere                          
   RDEP   =    2.576    radius for radial grids                                 
   RDEPT  =    2.072    core radius for aug-charge                              
                                                                                
   Atomic configuration                                                         
   12 entries                                                                   
     n  l   j            E        occ.                                          
     1  0  0.50    -25324.9161   2.0000                                         
     2  0  0.50     -3728.5341   2.0000                                         
     2  1  1.50     -3344.0404   6.0000                                         
     3  0  0.50      -683.5581   2.0000                                         
     3  1  1.50      -557.3225   6.0000                                         
     3  2  2.50      -358.3853  10.0000                                         
     4  0  0.50       -95.0341   2.0000                                         
     4  1  1.50       -58.5511   6.0000                                         
     4  2  2.50        -7.4440  10.0000                                         
     5  0  0.50        -4.4045   1.0000                                         
     5  1  0.50        -1.3606   0.0000                                         
     4  3  2.50        -1.3606   0.0000                                         
   Description                                                                  
     l       E           TYP  RCUT    TYP  RCUT                                 
     2     -7.4439781     23  2.400                                             
     2     -8.8045607     23  2.400                                             
     0     -4.4044681     23  2.400                                             
     0      1.9520038     23  2.400                                             
     1     -1.3605826     23  2.500                                             
     1     27.2116520     23  2.500                                             
     3     -4.0817478     23  2.400                                             
  local pseudopotential read in
  partial core-charges read in
  partial kinetic energy density read in
  atomic valenz-charges read in
  non local Contribution for L=           2  read in
    real space projection operators read in
  non local Contribution for L=           2  read in
    real space projection operators read in
  non local Contribution for L=           0  read in
    real space projection operators read in
  non local Contribution for L=           0  read in
    real space projection operators read in
  non local Contribution for L=           1  read in
    real space projection operators read in
  non local Contribution for L=           1  read in
    real space projection operators read in
    PAW grid and wavefunctions read in
 
   number of l-projection  operators is LMAX  =           6
   number of lm-projection operators is LMMAX =          18
 
  PAW_PBE Ag 02Apr2005                  :
 energy of atom  1       EATOM=-1037.2675
 kinetic energy error for atom=    0.0091 (will be added to EATOM!!)
 
 
 POSCAR: Ag                                      
  positions in cartesian coordinates
  No initial velocities read in
 exchange correlation table for  LEXCH =        8
   RHO(1)=    0.500       N(1)  =     2000
   RHO(2)=  100.500       N(2)  =     4000
 


--------------------------------------------------------------------------------------------------------


 ion  position               nearest neighbor table
   1  0.000  0.000  0.000-   2 2.89   3 2.89   4 2.89   2 2.89   3 2.89   2 2.89   4 2.89   2 2.89
                             3 2.89   4 2.89   3 2.89   4 2.89
   2  0.000  0.500  0.500-   1 2.89   3 2.89   4 2.89   1 2.89   4 2.89   1 2.89   3 2.89   1 2.89
                             3 2.89   4 2.89   4 2.89   3 2.89
   3  0.500  0.000  0.500-   1 2.89   2 2.89   4 2.89   1 2.89   4 2.89   2 2.89   4 2.89   4 2.89
                             1 2.89   2 2.89   1 2.89   2 2.89
   4  0.500  0.500  0.000-   1 2.89   2 2.89   3 2.89   2 2.89   3 2.89   1 2.89   3 2.89   3 2.89
                             1 2.89   2 2.89   2 2.89   1 2.89
 
  LATTYP: Found a simple cubic cell.
 ALAT       =     4.0900000000
  
  Lattice vectors:
  
 A1 = (   4.0900000000,   0.0000000000,   0.0000000000)
 A2 = (   0.0000000000,   4.0900000000,   0.0000000000)
 A3 = (   0.0000000000,   0.0000000000,   4.0900000000)


Analysis of symmetry for initial positions (statically):
=====================================================================
 Subroutine PRICEL returns following result:
 
  LATTYP: Found a face centered cubic cell.
 ALAT       =     4.0900000000
  
  Lattice vectors:
  
 A1 = (   2.0450000000,   2.0450000000,   0.0000000000)
 A2 = (   2.0450000000,   0.0000000000,  -2.0450000000)
 A3 = (   0.0000000000,   2.0450000000,  -2.0450000000)
 
   4 primitive cells build up your supercell.
 

 Routine SETGRP: Setting up the symmetry group for a 
 simple cubic supercell.


 Subroutine GETGRP returns: Found 48 space group operations
 (whereof 48 operations were pure point group operations)
 out of a pool of 48 trial point group operations.


The static configuration has the point symmetry O_h .


Analysis of symmetry for dynamics (positions and initial velocities):
=====================================================================
 Subroutine PRICEL returns following result:
 
  LATTYP: Found a face centered cubic cell.
 ALAT       =     4.0900000000
  
  Lattice vectors:
  
 A1 = (   2.0450000000,   2.0450000000,   0.0000000000)
 A2 = (   2.0450000000,   0.0000000000,  -2.0450000000)
 A3 = (   0.0000000000,   2.0450000000,  -2.0450000000)
 
   4 primitive cells build up your supercell.
 

 Routine SETGRP: Setting up the symmetry group for a 
 simple cubic supercell.


 Subroutine GETGRP returns: Found 48 space group operations
 (whereof 48 operations were pure point group operations)
 out of a pool of 48 trial point group operations.


The dynamic configuration has the point symmetry O_h .


 Subroutine INISYM returns: Found 48 space group operations
 (whereof 48 operations are pure point group operations),
 and found     4 'primitive' translations

 
 
 KPOINTS: KPOINTS created by Atomic Simulation Env

Automatic generation of k-mesh.
Space group operators:
 irot       det(A)        alpha          n_x          n_y          n_z        tau_x        tau_y        tau_z
    1     1.000000     0.000000     1.000000     0.000000     0.000000     0.000000     0.000000     0.000000
    2    -1.000000     0.000000     1.000000     0.000000     0.000000     0.000000     0.000000     0.000000
    3     1.000000   120.000000    -0.577350    -0.577350    -0.577350     0.000000     0.000000     0.000000
    4    -1.000000   120.000000    -0.577350    -0.577350    -0.577350     0.000000     0.000000     0.000000
    5     1.000000   120.000000     0.577350     0.577350     0.577350     0.000000     0.000000     0.000000
    6    -1.000000   120.000000     0.577350     0.577350     0.577350     0.000000     0.000000     0.000000
    7     1.000000    90.000000     0.000000     0.000000    -1.000000     0.000000     0.000000     0.000000
    8    -1.000000    90.000000     0.000000     0.000000    -1.000000     0.000000     0.000000     0.000000
    9     1.000000   180.000000     0.000000     0.707107     0.707107     0.000000     0.000000     0.000000
   10    -1.000000   180.000000     0.000000     0.707107     0.707107     0.000000     0.000000     0.000000
   11     1.000000    90.000000     0.000000     1.000000     0.000000     0.000000     0.000000     0.000000
   12    -1.000000    90.000000     0.000000     1.000000     0.000000     0.000000     0.000000     0.000000
   13     1.000000   180.000000     0.000000     0.000000     1.000000     0.000000     0.000000     0.000000
   14    -1.000000   180.000000     0.000000     0.000000     1.000000     0.000000     0.000000     0.000000
   15     1.000000   120.000000    -0.577350     0.577350     0.577350     0.000000     0.000000     0.000000
   16    -1.000000   120.000000    -0.577350     0.577350     0.577350     0.000000     0.000000     0.000000
   17     1.000000   120.000000    -0.577350     0.577350    -0.577350     0.000000     0.000000     0.000000
   18    -1.000000   120.000000    -0.577350     0.577350    -0.577350     0.000000     0.000000     0.000000
   19     1.000000    90.000000     0.000000     0.000000     1.000000     0.000000     0.000000     0.000000
   20    -1.000000    90.000000     0.000000     0.000000     1.000000     0.000000     0.000000     0.000000
   21     1.000000    90.000000    -1.000000     0.000000     0.000000     0.000000     0.000000     0.000000
   22    -1.000000    90.000000    -1.000000     0.000000     0.000000     0.000000     0.000000     0.000000
   23     1.000000   180.000000     0.707107     0.000000     0.707107     0.000000     0.000000     0.000000
   24    -1.000000   180.000000     0.707107     0.000000     0.707107     0.000000     0.000000     0.000000
   25     1.000000   120.000000     0.577350    -0.577350     0.577350     0.000000     0.000000     0.000000
   26    -1.000000   120.000000     0.577350    -0.577350     0.577350     0.000000     0.000000     0.000000
   27     1.000000   120.000000    -0.577350    -0.577350     0.577350     0.000000     0.000000     0.000000
   28    -1.000000   120.000000    -0.577350    -0.577350     0.577350     0.000000     0.000000     0.000000
   29     1.000000   180.000000     1.000000     0.000000     0.000000     0.000000     0.000000     0.000000
   30    -1.000000   180.000000     1.000000     0.000000     0.000000     0.000000     0.000000     0.000000
   31     1.000000    90.000000     0.000000    -1.000000     0.000000     0.000000     0.000000     0.000000
   32    -1.000000    90.000000     0.000000    -1.000000     0.000000     0.000000     0.000000     0.000000
   33     1.000000   180.000000     0.707107     0.707107     0.000000     0.000000     0.000000     0.000000
   34    -1.000000   180.000000     0.707107     0.707107     0.000000     0.000000     0.000000     0.000000
   35     1.000000    90.000000     1.000000     0.000000     0.000000     0.000000     0.000000     0.000000
   36    -1.000000    90.000000     1.000000     0.000000     0.000000     0.000000     0.000000     0.000000
   37     1.000000   120.000000     0.577350    -0.577350    -0.577350     0.000000     0.000000     0.000000
   38    -1.000000   120.000000     0.577350    -0.577350    -0.577350     0.000000     0.000000     0.000000
   39     1.000000   180.000000     0.000000     1.000000     0.000000     0.000000     0.000000     0.000000
   40    -1.000000   180.000000     0.000000     1.000000     0.000000     0.000000     0.000000     0.000000
   41     1.000000   120.000000     0.577350     0.577350    -0.577350     0.000000     0.000000     0.000000
   42    -1.000000   120.000000     0.577350     0.577350    -0.577350     0.000000     0.000000     0.000000
   43     1.000000   180.000000     0.000000    -0.707107     0.707107     0.000000     0.000000     0.000000
   44    -1.000000   180.000000     0.000000    -0.707107     0.707107     0.000000     0.000000     0.000000
   45     1.000000   180.000000     0.707107    -0.707107     0.000000     0.000000     0.000000     0.000000
   46    -1.000000   180.000000     0.707107    -0.707107     0.000000     0.000000     0.000000     0.000000
   47     1.000000   180.000000     0.707107     0.000000    -0.707107     0.000000     0.000000     0.000000
   48    -1.000000   180.000000     0.707107     0.000000    -0.707107     0.000000     0.000000     0.000000
 
 Subroutine IBZKPT returns following result:
 ===========================================
 
 Found     10 irreducible k-points:
 
 Following reciprocal coordinates:
            Coordinates               Weight
  0.000000  0.000000  0.000000      1.000000
  0.200000  0.000000  0.000000      6.000000
  0.400000  0.000000  0.000000      6.000000
  0.200000  0.200000  0.000000     12.000000
  0.400000  0.200000  0.000000     24.000000
  0.400000  0.400000  0.000000     12.000000
  0.200000  0.200000  0.200000      8.000000
  0.400000  0.200000  0.200000     24.000000
  0.400000  0.400000  0.200000     24.000000
  0.400000  0.400000  0.400000      8.000000
 
 Following cartesian coordinates:
            Coordinates               Weight
  0.000000  0.000000  0.000000      1.000000
  0.048900  0.000000  0.000000      6.000000
  0.097800  0.000000  0.000000      6.000000
  0.048900  0.048900  0.000000     12.000000
  0.097800  0.048900  0.000000     24.000000
  0.097800  0.097800  0.000000     12.000000
  0.048900  0.048900  0.048900      8.000000
  0.097800  0.048900  0.048900     24.000000
  0.097800  0.097800  0.048900     24.000000
  0.097800  0.097800  0.097800      8.000000
 


--------------------------------------------------------------------------------------------------------




 Dimension of arrays:
   k-points           NKPTS =     10   k-points in BZ     NKDIM =     10   number of bands    NBANDS=     48
   number of dos      NEDOS =    301   number of ions     NIONS =      4
   non local maximal  LDIM  =      6   non local SUM 2l+1 LMDIM =     18
   total plane-waves  NPLWV =   8000
   max r-space proj   IRMAX =      1   max aug-charges    IRDMAX=   5948
   dimension x,y,z NGX =    20 NGY =   20 NGZ =   20
   dimension x,y,z NGXF=    40 NGYF=   40 NGZF=   40
   support grid    NGXF=    40 NGYF=   40 NGZF=   40
   ions per type =               4
 NGX,Y,Z   is equivalent  to a cutoff of   8.13,  8.13,  8.13 a.u.
 NGXF,Y,Z  is equivalent  to a cutoff of  16.26, 16.26, 16.26 a.u.


 I would recommend the setting:
   dimension x,y,z NGX =    20 NGY =   20 NGZ =   20
 SYSTEM =  unknown system                          
 POSCAR =  Ag                                      

 Startparameter for this run:
   NWRITE =      2    write-flag & timer
   PREC   = normal    normal or accurate (medium, high low for compatibility)
   ISTART =      0    job   : 0-new  1-cont  2-samecut
   ICHARG =      2    charge: 1-file 2-atom 10-const
   ISPIN  =      1    spin polarized calculation?
   LNONCOLLINEAR =      F non collinear calculations
   LSORBIT =      F    spin-orbit coupling
   INIWAV =      1    electr: 0-lowe 1-rand  2-diag
   LASPH  =      F    aspherical Exc in radial PAW
   METAGGA=      F    non-selfconsistent MetaGGA calc.

 Electronic Relaxation 1
   ENCUT  =  400.0 eV  29.40 Ry    5.42 a.u.   6.67  6.67  6.67*2*pi/ulx,y,z
   ENINI  =  400.0     initial cutoff
   ENAUG  =  412.5 eV  augmentation charge cutoff
   NELM   =     60;   NELMIN=  2; NELMDL= -5     # of ELM steps 
   EDIFF  = 0.1E-03   stopping-criterion for ELM
   LREAL  =      F    real-space projection
   NLSPLINE    = F    spline interpolate recip. space projectors
   LCOMPAT=      F    compatible to vasp.4.4
   GGA_COMPAT  = T    GGA compatible to vasp.4.4-vasp.4.6
   LMAXPAW     = -100 max onsite density
   LMAXMIX     =    2 max onsite mixed and CHGCAR
   VOSKOWN=      0    Vosko Wilk Nusair interpolation
   ROPT   =    0.00000
 Ionic relaxation
   EDIFFG = 0.1E-02   stopping-criterion for IOM
   NSW    =      0    number of steps for IOM
   NBLOCK =      1;   KBLOCK =      1    inner block; outer block 
   IBRION =     -1    ionic relax: 0-MD 1-quasi-New 2-CG
   NFREE  =      0    steps in history (QN), initial steepest desc. (CG)
   ISIF   =      2    stress and relaxation
   IWAVPR =     10    prediction:  0-non 1-charg 2-wave 3-comb
   ISYM   =      2    0-nonsym 1-usesym 2-fastsym
   LCORR  =      T    Harris-Foulkes like correction to forces

   POTIM  = 0.5000    time-step for ionic-motion
   TEIN   =    0.0    initial temperature
   TEBEG  =    0.0;   TEEND  =   0.0 temperature during run
   SMASS  =  -3.00    Nose mass-parameter (am)
   estimated Nose-frequenzy (Omega)   =  0.10E-29 period in steps =****** mass=  -0.382E-27a.u.
   SCALEE = 1.0000    scale energy and forces
   NPACO  =    256;   APACO  = 16.0  distance and # of slots for P.C.
   PSTRESS=    0.0 pullay stress

  Mass of Ions in am
   POMASS = 107.87
  Ionic Valenz
   ZVAL   =  11.00
  Atomic Wigner-Seitz radii
   RWIGS  =  -1.00
  virtual crystal weights 
   VCA    =   1.00
   NELECT =      44.0000    total number of electrons
   NUPDOWN=      -1.0000    fix difference up-down

 DOS related values:
   EMIN   =  10.00;   EMAX   =-10.00  energy-range for DOS
   EFERMI =   0.00
   ISMEAR =     1;   SIGMA  =   0.10  broadening in eV -4-tet -1-fermi 0-gaus

 Electronic relaxation 2 (details)
   IALGO  =     38    algorithm
   LDIAG  =      T    sub-space diagonalisation (order eigenvalues)
   LSUBROT=      F    optimize rotation matrix (better conditioning)
   TURBO    =      0    0=normal 1=particle mesh
   IRESTART =      0    0=no restart 2=restart with 2 vectors
   NREBOOT  =      0    no. of reboots
   NMIN     =      0    reboot dimension
   EREF     =   0.00    reference energy to select bands
   IMIX   =      4    mixing-type and parameters
     AMIX     =   0.40;   BMIX     =  1.00
     AMIX_MAG =   1.60;   BMIX_MAG =  1.00
     AMIN     =   0.10
     WC   =   100.;   INIMIX=   1;  MIXPRE=   1;  MAXMIX= -45

 Intra band minimization:
   WEIMIN = 0.0000     energy-eigenvalue tresh-hold
   EBREAK =  0.52E-06  absolut break condition
   DEPER  =   0.30     relativ break condition  

   TIME   =   0.40     timestep for ELM

  volume/ion in A,a.u.               =      17.10       115.43
  Fermi-wavevector in a.u.,A,eV,Ry     =   1.413088  2.670348 27.168338  1.996817
  Thomas-Fermi vector in A             =   2.534769
 
 Write flags
   LWAVE  =      F    write WAVECAR
   LCHARG =      F    write CHGCAR
   LVTOT  =      F    write LOCPOT, total local potential
   LVHAR  =      F    write LOCPOT, Hartree potential only
   LELF   =      F    write electronic localiz. function (ELF)
   LORBIT =      0    0 simple, 1 ext, 2 COOP (PROOUT)


 Dipole corrections
   LMONO  =      F    monopole corrections only (constant potential shift)
   LDIPOL =      F    correct potential (dipole corrections)
   IDIPOL =      0    1-x, 2-y, 3-z, 4-all directions 
   EPSILON=  1.0000000 bulk dielectric constant

 Exchange correlation treatment:
   GGA     =    --    GGA type
   LEXCH   =     8    internal setting for exchange type
   VOSKOWN=      0    Vosko Wilk Nusair interpolation
   LHFCALC =     F    Hartree Fock is set to
   LHFONE  =     F    Hartree Fock one center treatment
   AEXX    =    0.0000 exact exchange contribution

 Linear response parameters
   LEPSILON=     F    determine dielectric tensor
   LRPA    =     F    only Hartree local field effects (RPA)
   LNABLA  =     F    use nabla operator in PAW spheres
   LVEL    =     F    velocity operator in full k-point grid
   LINTERFAST=   F  fast interpolation
   KINTER  =     0    interpolate to denser k-point grid
   CSHIFT  =0.1000    complex shift for real part using Kramers Kronig
   OMEGAMAX=  -1.0    maximum frequency
   DEG_THRESHOLD= 0.2000000E-02 threshold for treating states as degnerate
   RTIME   =    0.100 relaxation time in fs

 Orbital magnetization related:
   ORBITALMAG=     F  switch on orbital magnetization
   LCHIMAG   =     F  perturbation theory with respect to B field
   DQ        =  0.001000  dq finite difference perturbation B field



--------------------------------------------------------------------------------------------------------


 Static calculation
 charge density and potential will be updated during run
 non-spin polarized calculation
 Variant of blocked Davidson
 Davidson routine will perform the subspace rotation
 perform sub-space diagonalisation
    after iterative eigenvector-optimisation
 modified Broyden-mixing scheme, WC =      100.0
 initial mixing is a Kerker type mixing with AMIX =  0.4000 and BMIX =      1.0000
 Hartree-type preconditioning will be used
 using additional bands           26
 reciprocal scheme for non local part
 use partial core corrections
 calculate Harris-corrections to forces 
   (improved forces if not selfconsistent)
 use gradient corrections 
 use of overlap-Matrix (Vanderbilt PP)
 Methfessel and Paxton  Order N= 1 SIGMA  =   0.10


--------------------------------------------------------------------------------------------------------


  energy-cutoff  :      400.00
  volume of cell :       68.42
      direct lattice vectors                 reciprocal lattice vectors
     4.090000000  0.000000000  0.000000000     0.244498778  0.000000000  0.000000000
     0.000000000  4.090000000  0.000000000     0.000000000  0.244498778  0.000000000
     0.000000000  0.000000000  4.090000000     0.000000000  0.000000000  0.244498778

  length of vectors
     4.090000000  4.090000000  4.090000000     0.244498778  0.244498778  0.244498778


 
 k-points in units of 2pi/SCALE and weight: KPOINTS created by Atomic Simulation Env
   0.00000000  0.00000000  0.00000000       0.008
   0.04889976  0.00000000  0.00000000       0.048
   0.09779951  0.00000000  0.00000000       0.048
   0.04889976  0.04889976  0.00000000       0.096
   0.09779951  0.04889976  0.00000000       0.192
   0.09779951  0.09779951  0.00000000       0.096
   0.04889976  0.04889976  0.04889976       0.064
   0.09779951  0.04889976  0.04889976       0.192
   0.09779951  0.09779951  0.04889976       0.192
   0.09779951  0.09779951  0.09779951       0.064
 
 k-points in reciprocal lattice and weights: KPOINTS created by Atomic Simulation Env
   0.00000000  0.00000000  0.00000000       0.008
   0.20000000  0.00000000  0.00000000       0.048
   0.40000000  0.00000000  0.00000000       0.048
   0.20000000  0.20000000  0.00000000       0.096
   0.40000000  0.20000000  0.00000000       0.192
   0.40000000  0.40000000  0.00000000       0.096
   0.20000000  0.20000000  0.20000000       0.064
   0.40000000  0.20000000  0.20000000       0.192
   0.40000000  0.40000000  0.20000000       0.192
   0.40000000  0.40000000  0.40000000       0.064
 
 position of ions in fractional coordinates (direct lattice) 
   0.00000000  0.00000000  0.00000000
   0.00000000  0.50000000  0.50000000
   0.50000000  0.00000000  0.50000000
   0.50000000  0.50000000  0.00000000
 
 position of ions in cartesian coordinates  (Angst):
   0.00000000  0.00000000  0.00000000
   0.00000000  2.04500000  2.04500000
   2.04500000  0.00000000  2.04500000
   2.04500000  2.04500000  0.00000000
 


--------------------------------------------------------------------------------------------------------


 k-point  1 :   0.0000 0.0000 0.0000  plane waves:    1237
 k-point  2 :   0.2000 0.0000 0.0000  plane waves:    1261
 k-point  3 :   0.4000 0.0000 0.0000  plane waves:    1238
 k-point  4 :   0.2000 0.2000 0.0000  plane waves:    1263
 k-point  5 :   0.4000 0.2000 0.0000  plane waves:    1236
 k-point  6 :   0.4000 0.4000 0.0000  plane waves:    1234
 k-point  7 :   0.2000 0.2000 0.2000  plane waves:    1232
 k-point  8 :   0.4000 0.2000 0.2000  plane waves:    1246
 k-point  9 :   0.4000 0.4000 0.2000  plane waves:    1244
 k-point 10 :   0.4000 0.4000 0.4000  plane waves:    1253

 maximum and minimum number of plane-waves per node :      1263     1232

 maximum number of plane-waves:      1263
 maximum index in each direction: 
   IXMAX=    6   IYMAX=    6   IZMAX=    6
   IXMIN=   -7   IYMIN=   -7   IZMIN=   -7

 WARNING: aliasing errors must be expected set NGX to  28 to avoid them
 WARNING: aliasing errors must be expected set NGY to  28 to avoid them
 WARNING: aliasing errors must be expected set NGZ to  28 to avoid them
 aliasing errors are usually negligible using standard VASP settings
 and one can safely disregard these warnings

 serial   3D FFT for wavefunctions
 parallel 3D FFT for charge:
    minimum data exchange during FFTs selected (reduces bandwidth)


 total amount of memory used by VASP on root node    33037. kBytes
========================================================================

   base      :      30000. kBytes
   nonl-proj :       1913. kBytes
   fftplans  :        147. kBytes
   grid      :        485. kBytes
   one-center:         62. kBytes
   wavefun   :        430. kBytes
 
     INWAV:  cpu time    0.0000: real time    0.0001
 Broyden mixing: mesh for mixing (old mesh)
   NGX = 13   NGY = 13   NGZ = 13
  (NGX  = 40   NGY  = 40   NGZ  = 40)
  gives a total of   2197 points

 initial charge density was supplied:
 charge density of overlapping atoms calculated
 number of electron      44.0000000 magnetization 
 keeping initial charge density in first step


--------------------------------------------------------------------------------------------------------


 Maximum index for augmentation-charges          377 (set IRDMAX)


--------------------------------------------------------------------------------------------------------


 First call to EWALD:  gamma=   0.433
 Maximum number of real-space cells 3x 3x 3
 Maximum number of reciprocal cells 3x 3x 3

 FEWALD executed in parallel
    FEWALD:  cpu time    0.0779: real time    0.0779


----------------------------------------- Iteration    1(   1)  ---------------------------------------


    POTLOK:  cpu time    0.8475: real time    0.8476
    SETDIJ:  cpu time    0.2150: real time    0.2150
     EDDAV:  cpu time    1.0215: real time    1.0216
       DOS:  cpu time    0.0014: real time    0.0014
    --------------------------------------------
      LOOP:  cpu time    2.0869: real time    2.0883

 eigenvalue-minimisations  :   960
 total energy-change (2. order) : 0.1945432E+03  (-0.1868150E+04)
 number of electron      44.0000000 magnetization 
 augmentation part       44.0000000 magnetization 

 Free energy of the ion-electron system (eV)
  ---------------------------------------------------
  alpha Z        PSCENC =       198.91349099
  Ewald energy   TEWEN  =     -3906.37931032
  -Hartree energ DENC   =      -811.91229488
  -exchange      EXHF   =         0.00000000
  -V(xc)+E(xc)   XCENC  =       -41.67125304
  PAW double counting   =      4013.84859731    -3829.39709692
  entropy T*S    EENTRO =         0.00300041
  eigenvalues    EBANDS =       422.10437610
  atomic energy  EATOM  =      4149.03371350
  Solvation  Ediel_sol  =         0.00000000
  ---------------------------------------------------
  free energy    TOTEN  =       194.54322315 eV

  energy without entropy =      194.54022274  energy(sigma->0) =      194.54222302


--------------------------------------------------------------------------------------------------------




----------------------------------------- Iteration    1(   2)  ---------------------------------------


     EDDAV:  cpu time    0.2169: real time    0.2170
       DOS:  cpu time    0.0006: real time    0.0006
    --------------------------------------------
      LOOP:  cpu time    0.2190: real time    0.2201

 eigenvalue-minimisations  :  1296
 total energy-change (2. order) :-0.2031573E+03  (-0.1903457E+03)
 number of electron      44.0000000 magnetization 
 augmentation part       44.0000000 magnetization 

 Free energy of the ion-electron system (eV)
  ---------------------------------------------------
  alpha Z        PSCENC =       198.91349099
  Ewald energy   TEWEN  =     -3906.37931032
  -Hartree energ DENC   =      -811.91229488
  -exchange      EXHF   =         0.00000000
  -V(xc)+E(xc)   XCENC  =       -41.67125304
  PAW double counting   =      4013.84859731    -3829.39709692
  entropy T*S    EENTRO =        -0.00104839
  eigenvalues    EBANDS =       218.95116617
  atomic energy  EATOM  =      4149.03371350
  Solvation  Ediel_sol  =         0.00000000
  ---------------------------------------------------
  free energy    TOTEN  =        -8.61403558 eV

  energy without entropy =       -8.61298719  energy(sigma->0) =       -8.61368612


--------------------------------------------------------------------------------------------------------




----------------------------------------- Iteration    1(   3)  ---------------------------------------


     EDDAV:  cpu time    0.1931: real time    0.1946
       DOS:  cpu time    0.0004: real time    0.0004
    --------------------------------------------
      LOOP:  cpu time    0.1946: real time    0.2102

 eigenvalue-minimisations  :  1128
 total energy-change (2. order) :-0.3088149E+01  (-0.3085915E+01)
 number of electron      44.0000000 magnetization 
 augmentation part       44.0000000 magnetization 

 Free energy of the ion-electron system (eV)
  ---------------------------------------------------
  alpha Z        PSCENC =       198.91349099
  Ewald energy   TEWEN  =     -3906.37931032
  -Hartree energ DENC   =      -811.91229488
  -exchange      EXHF   =         0.00000000
  -V(xc)+E(xc)   XCENC  =       -41.67125304
  PAW double counting   =      4013.84859731    -3829.39709692
  entropy T*S    EENTRO =        -0.00020469
  eigenvalues    EBANDS =       215.86217332
  atomic energy  EATOM  =      4149.03371350
  Solvation  Ediel_sol  =         0.00000000
  ---------------------------------------------------
  free energy    TOTEN  =       -11.70218473 eV

  energy without entropy =      -11.70198004  energy(sigma->0) =      -11.70211650


--------------------------------------------------------------------------------------------------------




----------------------------------------- Iteration    1(   4)  ---------------------------------------


     EDDAV:  cpu time    0.2158: real time    0.2175
       DOS:  cpu time    0.0009: real time    0.0009
    --------------------------------------------
      LOOP:  cpu time    0.2178: real time    0.2208

 eigenvalue-minimisations  :  1296
 total energy-change (2. order) :-0.8929668E-02  (-0.8929554E-02)
 number of electron      44.0000000 magnetization 
 augmentation part       44.0000000 magnetization 

 Free energy of the ion-electron system (eV)
  ---------------------------------------------------
  alpha Z        PSCENC =       198.91349099
  Ewald energy   TEWEN  =     -3906.37931032
  -Hartree energ DENC   =      -811.91229488
  -exchange      EXHF   =         0.00000000
  -V(xc)+E(xc)   XCENC  =       -41.67125304
  PAW double counting   =      4013.84859731    -3829.39709692
  entropy T*S    EENTRO =        -0.00020344
  eigenvalues    EBANDS =       215.85324239
  atomic energy  EATOM  =      4149.03371350
  Solvation  Ediel_sol  =         0.00000000
  ---------------------------------------------------
  free energy    TOTEN  =       -11.71111440 eV

  energy without entropy =      -11.71091097  energy(sigma->0) =      -11.71104659


--------------------------------------------------------------------------------------------------------




----------------------------------------- Iteration    1(   5)  ---------------------------------------


     EDDAV:  cpu time    0.1870: real time    0.1892
       DOS:  cpu time    0.0005: real time    0.0005
    CHARGE:  cpu time    0.0094: real time    0.0095
    MIXING:  cpu time    0.0006: real time    0.0006
    --------------------------------------------
      LOOP:  cpu time    0.1985: real time    0.2023

 eigenvalue-minimisations  :  1176
 total energy-change (2. order) :-0.7773269E-04  (-0.7773264E-04)
 number of electron      43.9999963 magnetization 
 augmentation part       20.2971216 magnetization 

 Broyden mixing:
  rms(total) = 0.10492E+01    rms(broyden)= 0.10491E+01
  rms(prec ) = 0.17023E+01
  weight for this iteration     100.00

 Free energy of the ion-electron system (eV)
  ---------------------------------------------------
  alpha Z        PSCENC =       198.91349099
  Ewald energy   TEWEN  =     -3906.37931032
  -Hartree energ DENC   =      -811.91229488
  -exchange      EXHF   =         0.00000000
  -V(xc)+E(xc)   XCENC  =       -41.67125304
  PAW double counting   =      4013.84859731    -3829.39709692
  entropy T*S    EENTRO =        -0.00020342
  eigenvalues    EBANDS =       215.85316464
  atomic energy  EATOM  =      4149.03371350
  Solvation  Ediel_sol  =         0.00000000
  ---------------------------------------------------
  free energy    TOTEN  =       -11.71119213 eV

  energy without entropy =      -11.71098872  energy(sigma->0) =      -11.71112433


--------------------------------------------------------------------------------------------------------




----------------------------------------- Iteration    1(   6)  ---------------------------------------


    POTLOK:  cpu time    0.0054: real time    0.0054
    SETDIJ:  cpu time    0.0024: real time    0.0024
     EDDAV:  cpu time    0.1635: real time    0.1647
       DOS:  cpu time    0.0005: real time    0.0005
    CHARGE:  cpu time    0.0050: real time    0.0050
    MIXING:  cpu time    0.0004: real time    0.0004
    --------------------------------------------
      LOOP:  cpu time    0.1782: real time    0.1808

 eigenvalue-minimisations  :  1080
 total energy-change (2. order) : 0.9269779E+00  (-0.2325005E+00)
 number of electron      43.9999961 magnetization 
 augmentation part       20.9328559 magnetization 

 Broyden mixing:
  rms(total) = 0.67797E+00    rms(broyden)= 0.67796E+00
  rms(prec ) = 0.71550E+00
  weight for this iteration     100.00

 eigenvalues of (default mixing * dielectric matrix)
  average eigenvalue GAMMA=   1.3814
  1.3814

 Free energy of the ion-electron system (eV)
  ---------------------------------------------------
  alpha Z        PSCENC =       198.91349099
  Ewald energy   TEWEN  =     -3906.37931032
  -Hartree energ DENC   =      -773.85862857
  -exchange      EXHF   =         0.00000000
  -V(xc)+E(xc)   XCENC  =       -43.04068287
  PAW double counting   =      4196.50869438    -4016.21079480
  entropy T*S    EENTRO =        -0.00363085
  eigenvalues    EBANDS =       184.25293435
  atomic energy  EATOM  =      4149.03371350
  Solvation  Ediel_sol  =         0.00000000
  ---------------------------------------------------
  free energy    TOTEN  =       -10.78421419 eV

  energy without entropy =      -10.78058334  energy(sigma->0) =      -10.78300391


--------------------------------------------------------------------------------------------------------




----------------------------------------- Iteration    1(   7)  ---------------------------------------


    POTLOK:  cpu time    0.0037: real time    0.0039
    SETDIJ:  cpu time    0.0021: real time    0.0021
     EDDAV:  cpu time    0.2010: real time    0.2029
       DOS:  cpu time    0.0004: real time    0.0004
    CHARGE:  cpu time    0.0050: real time    0.0051
    MIXING:  cpu time    0.0002: real time    0.0002
    --------------------------------------------
      LOOP:  cpu time    0.2136: real time    0.2211

 eigenvalue-minimisations  :  1248
 total energy-change (2. order) : 0.3362205E-01  (-0.3213353E-02)
 number of electron      43.9999961 magnetization 
 augmentation part       20.9950884 magnetization 

 Broyden mixing:
  rms(total) = 0.37257E+00    rms(broyden)= 0.37257E+00
  rms(prec ) = 0.38111E+00
  weight for this iteration     100.00

 eigenvalues of (default mixing * dielectric matrix)
  average eigenvalue GAMMA=   1.8400
  1.0836  2.5963

 Free energy of the ion-electron system (eV)
  ---------------------------------------------------
  alpha Z        PSCENC =       198.91349099
  Ewald energy   TEWEN  =     -3906.37931032
  -Hartree energ DENC   =      -766.63706779
  -exchange      EXHF   =         0.00000000
  -V(xc)+E(xc)   XCENC  =       -43.31056552
  PAW double counting   =      4334.45994427    -4157.34112257
  entropy T*S    EENTRO =        -0.00367653
  eigenvalues    EBANDS =       180.51400183
  atomic energy  EATOM  =      4149.03371350
  Solvation  Ediel_sol  =         0.00000000
  ---------------------------------------------------
  free energy    TOTEN  =       -10.75059214 eV

  energy without entropy =      -10.74691561  energy(sigma->0) =      -10.74936663


--------------------------------------------------------------------------------------------------------




----------------------------------------- Iteration    1(   8)  ---------------------------------------


    POTLOK:  cpu time    0.0031: real time    0.0031
    SETDIJ:  cpu time    0.0020: real time    0.0020
     EDDAV:  cpu time    0.1902: real time    0.1912
       DOS:  cpu time    0.0007: real time    0.0007
    CHARGE:  cpu time    0.0056: real time    0.0056
    MIXING:  cpu time    0.0002: real time    0.0002
    --------------------------------------------
      LOOP:  cpu time    0.2029: real time    0.2055

 eigenvalue-minimisations  :  1200
 total energy-change (2. order) : 0.1094602E-01  (-0.2431797E-03)
 number of electron      43.9999961 magnetization 
 augmentation part       20.9984342 magnetization 

 Broyden mixing:
  rms(total) = 0.17628E-01    rms(broyden)= 0.17627E-01
  rms(prec ) = 0.18089E-01
  weight for this iteration     100.00

 eigenvalues of (default mixing * dielectric matrix)
  average eigenvalue GAMMA=   1.5139
  2.5070  1.0929  0.9418

 Free energy of the ion-electron system (eV)
  ---------------------------------------------------
  alpha Z        PSCENC =       198.91349099
  Ewald energy   TEWEN  =     -3906.37931032
  -Hartree energ DENC   =      -762.02043779
  -exchange      EXHF   =         0.00000000
  -V(xc)+E(xc)   XCENC  =       -43.48963232
  PAW double counting   =      4484.18612737    -4310.58255288
  entropy T*S    EENTRO =        -0.00369077
  eigenvalues    EBANDS =       179.60264610
  atomic energy  EATOM  =      4149.03371350
  Solvation  Ediel_sol  =         0.00000000
  ---------------------------------------------------
  free energy    TOTEN  =       -10.73964612 eV

  energy without entropy =      -10.73595534  energy(sigma->0) =      -10.73841586


--------------------------------------------------------------------------------------------------------




----------------------------------------- Iteration    1(   9)  ---------------------------------------


    POTLOK:  cpu time    0.0033: real time    0.0033
    SETDIJ:  cpu time    0.0020: real time    0.0020
     EDDAV:  cpu time    0.1537: real time    0.1547
       DOS:  cpu time    0.0005: real time    0.0005
    --------------------------------------------
      LOOP:  cpu time    0.1605: real time    0.1630

 eigenvalue-minimisations  :   912
 total energy-change (2. order) :-0.2397974E-04  (-0.2500490E-05)
 number of electron      43.9999961 magnetization 
 augmentation part       20.9984342 magnetization 

 Free energy of the ion-electron system (eV)
  ---------------------------------------------------
  alpha Z        PSCENC =       198.91349099
  Ewald energy   TEWEN  =     -3906.37931032
  -Hartree energ DENC   =      -762.24217062
  -exchange      EXHF   =         0.00000000
  -V(xc)+E(xc)   XCENC  =       -43.48193099
  PAW double counting   =      4478.88584479    -4305.07055723
  entropy T*S    EENTRO =        -0.00368982
  eigenvalues    EBANDS =       179.60493961
  atomic energy  EATOM  =      4149.03371350
  Solvation  Ediel_sol  =         0.00000000
  ---------------------------------------------------
  free energy    TOTEN  =       -10.73967010 eV

  energy without entropy =      -10.73598027  energy(sigma->0) =      -10.73844016


--------------------------------------------------------------------------------------------------------




 average (electrostatic) potential at core
  the test charge radii are     1.1249
  (the norm of the test charge is              1.0000)
       1 -70.7702       2 -70.7702       3 -70.7702       4 -70.7702
 
 
 
 E-fermi :   8.1686     XC(G=0): -12.1847     alpha+bet :-13.4196


 k-point     1 :       0.0000    0.0000    0.0000
  band No.  band energies     occupation 
      1       0.6449      2.00000
      2       1.9822      2.00000
      3       1.9822      2.00000
      4       1.9822      2.00000
      5       2.1230      2.00000
      6       2.1230      2.00000
      7       2.1230      2.00000
      8       3.6138      2.00000
      9       3.6138      2.00000
     10       3.6138      2.00000
     11       4.6439      2.00000
     12       4.6439      2.00000
     13       5.4044      2.00000
     14       5.4044      2.00000
     15       5.4044      2.00000
     16       5.6435      2.00000
     17       5.6435      2.00000
     18       5.6435      2.00000
     19       5.6435      2.00000
     20       5.6435      2.00000
     21       5.6435      2.00000
     22       9.9992     -0.00000
     23       9.9992     -0.00000
     24       9.9992     -0.00000
     25      15.1147      0.00000
     26      15.1147      0.00000
     27      15.1147      0.00000
     28      19.0389      0.00000
     29      19.0389      0.00000
     30      19.0389      0.00000
     31      19.0389      0.00000
     32      19.0389      0.00000
     33      19.0389      0.00000
     34      24.4096      0.00000
     35      25.5447      0.00000
     36      25.5447      0.00000
     37      25.5447      0.00000
     38      25.6046      0.00000
     39      25.6046      0.00000
     40      25.6046      0.00000
     41      27.9658      0.00000
     42      27.9658      0.00000
     43      27.9658      0.00000
     44      32.7655      0.00000
     45      33.8939      0.00000
     46      33.8939      0.00000
     47      33.8939      0.00000
     48      37.8976      0.00000

 k-point     2 :       0.2000    0.0000    0.0000
  band No.  band energies     occupation 
      1       1.0545      2.00000
      2       2.1440      2.00000
      3       2.1943      2.00000
      4       2.1943      2.00000
      5       2.2508      2.00000
      6       2.3219      2.00000
      7       2.3219      2.00000
      8       3.4546      2.00000
      9       3.7642      2.00000
     10       3.7642      2.00000
     11       4.4912      2.00000
     12       4.7131      2.00000
     13       4.9785      2.00000
     14       4.9785      2.00000
     15       5.1927      2.00000
     16       5.1927      2.00000
     17       5.3276      2.00000
     18       5.3875      2.00000
     19       5.3875      2.00000
     20       5.6436      2.00000
     21       5.6436      2.00000
     22       8.0255      2.06113
     23      11.0069      0.00000
     24      11.0069      0.00000
     25      15.1597      0.00000
     26      15.1597      0.00000
     27      17.7206      0.00000
     28      17.8865      0.00000
     29      17.8865      0.00000
     30      18.0154      0.00000
     31      18.0154      0.00000
     32      19.7691      0.00000
     33      19.7691      0.00000
     34      24.5532      0.00000
     35      25.4612      0.00000
     36      25.5580      0.00000
     37      26.6815      0.00000
     38      26.7844      0.00000
     39      26.7844      0.00000
     40      26.9441      0.00000
     41      26.9441      0.00000
     42      27.6330      0.00000
     43      27.6330      0.00000
     44      33.4845      0.00000
     45      33.4845      0.00000
     46      33.7117      0.00000
     47      34.5702      0.00000
     48      35.6645      0.00000

 k-point     3 :       0.4000    0.0000    0.0000
  band No.  band energies     occupation 
      1       2.0670      2.00000
      2       2.4587      2.00000
      3       2.5983      2.00000
      4       2.6340      2.00000
      5       2.6340      2.00000
      6       2.9106      2.00000
      7       2.9106      2.00000
      8       3.0568      2.00000
      9       3.8492      2.00000
     10       3.8492      2.00000
     11       4.1904      2.00000
     12       4.1904      2.00000
     13       4.3058      2.00000
     14       4.7493      2.00000
     15       4.7493      2.00000
     16       4.8000      2.00000
     17       4.8000      2.00000
     18       4.8970      2.00000
     19       5.1316      2.00000
     20       5.4448      2.00000
     21       5.6441      2.00000
     22       5.6441      2.00000
     23      13.1286      0.00000
     24      13.1286      0.00000
     25      15.3138      0.00000
     26      15.3138      0.00000
     27      15.5813      0.00000
     28      15.5813      0.00000
     29      16.7741      0.00000
     30      16.7741      0.00000
     31      21.7302      0.00000
     32      21.7302      0.00000
     33      22.0976      0.00000
     34      24.4042      0.00000
     35      24.4042      0.00000
     36      24.8841      0.00000
     37      25.0353      0.00000
     38      25.2247      0.00000
     39      25.8625      0.00000
     40      28.7774      0.00000
     41      29.4862      0.00000
     42      29.4862      0.00000
     43      31.5948      0.00000
     44      31.5948      0.00000
     45      32.9013      0.00000
     46      32.9013      0.00000
     47      34.4814      0.00000
     48      34.4814      0.00000

 k-point     4 :       0.2000    0.2000    0.0000
  band No.  band energies     occupation 
      1       1.4290      2.00000
      2       2.2857      2.00000
      3       2.3655      2.00000
      4       2.3655      2.00000
      5       2.4344      2.00000
      6       2.4344      2.00000
      7       2.5946      2.00000
      8       3.4185      2.00000
      9       3.8141      2.00000
     10       3.8394      2.00000
     11       4.4627      2.00000
     12       4.6132      2.00000
     13       4.6132      2.00000
     14       4.6600      2.00000
     15       4.7569      2.00000
     16       5.0261      2.00000
     17       5.2343      2.00000
     18       5.2343      2.00000
     19       5.3839      2.00000
     20       5.3839      2.00000
     21       5.4604      2.00000
     22       8.9280     -0.00000
     23       8.9280     -0.00000
     24      11.8584      0.00000
     25      14.8142      0.00000
     26      15.5312      0.00000
     27      17.7538      0.00000
     28      17.7538      0.00000
     29      18.5320      0.00000
     30      18.5320      0.00000
     31      18.6828      0.00000
     32      18.6828      0.00000
     33      20.4198      0.00000
     34      23.8606      0.00000
     35      24.1517      0.00000
     36      25.2994      0.00000
     37      26.8150      0.00000
     38      26.8150      0.00000
     39      27.1621      0.00000
     40      27.6644      0.00000
     41      27.6644      0.00000
     42      29.4390      0.00000
     43      30.2615      0.00000
     44      30.5480      0.00000
     45      33.7414      0.00000
     46      34.1252      0.00000
     47      34.4632      0.00000
     48      35.9815      0.00000

 k-point     5 :       0.4000    0.2000    0.0000
  band No.  band energies     occupation 
      1       2.3415      2.00000
      2       2.6769      2.00000
      3       2.7137      2.00000
      4       2.7374      2.00000
      5       2.8286      2.00000
      6       2.9716      2.00000
      7       3.0926      2.00000
      8       3.1261      2.00000
      9       3.6277      2.00000
     10       3.7967      2.00000
     11       3.8463      2.00000
     12       4.0078      2.00000
     13       4.1903      2.00000
     14       4.5031      2.00000
     15       4.6720      2.00000
     16       4.7792      2.00000
     17       4.7925      2.00000
     18       4.9993      2.00000
     19       5.1908      2.00000
     20       5.3766      2.00000
     21       5.3797      2.00000
     22       6.4493      2.00000
     23      10.6209     -0.00000
     24      12.5877      0.00000
     25      13.8161      0.00000
     26      15.7565      0.00000
     27      16.1990      0.00000
     28      16.6705      0.00000
     29      18.8567      0.00000
     30      19.9281      0.00000
     31      20.0647      0.00000
     32      20.1880      0.00000
     33      21.8917      0.00000
     34      22.2101      0.00000
     35      22.3269      0.00000
     36      26.4899      0.00000
     37      26.9360      0.00000
     38      27.1539      0.00000
     39      27.1602      0.00000
     40      28.2320      0.00000
     41      29.6322      0.00000
     42      29.9899      0.00000
     43      30.3683      0.00000
     44      32.2985      0.00000
     45      33.1398      0.00000
     46      33.9820      0.00000
     47      34.3085      0.00000
     48      34.3815      0.00000

 k-point     6 :       0.4000    0.4000    0.0000
  band No.  band energies     occupation 
      1       2.8532      2.00000
      2       2.8781      2.00000
      3       3.1135      2.00000
      4       3.1135      2.00000
      5       3.2035      2.00000
      6       3.2557      2.00000
      7       3.2557      2.00000
      8       3.3276      2.00000
      9       3.3276      2.00000
     10       3.4913      2.00000
     11       3.5545      2.00000
     12       3.7807      2.00000
     13       4.2372      2.00000
     14       4.3356      2.00000
     15       4.4270      2.00000
     16       4.5749      2.00000
     17       4.5749      2.00000
     18       4.8049      2.00000
     19       4.8049      2.00000
     20       4.9674      2.00000
     21       6.2258      2.00000
     22       7.9786      2.02177
     23       7.9786      2.02177
     24       9.9483     -0.00000
     25      15.5390      0.00000
     26      16.4391      0.00000
     27      17.7898      0.00000
     28      17.7898      0.00000
     29      17.8038      0.00000
     30      17.8038      0.00000
     31      19.5325      0.00000
     32      19.8967      0.00000
     33      23.0861      0.00000
     34      23.0861      0.00000
     35      23.9298      0.00000
     36      25.1242      0.00000
     37      26.4851      0.00000
     38      28.4265      0.00000
     39      28.4265      0.00000
     40      28.5879      0.00000
     41      29.3717      0.00000
     42      29.9474      0.00000
     43      29.9474      0.00000
     44      33.2562      0.00000
     45      33.6640      0.00000
     46      33.8082      0.00000
     47      34.3863      0.00000
     48      34.6231      0.00000

 k-point     7 :       0.2000    0.2000    0.2000
  band No.  band energies     occupation 
      1       1.7096      2.00000
      2       2.3896      2.00000
      3       2.3896      2.00000
      4       2.3896      2.00000
      5       2.7461      2.00000
      6       2.7461      2.00000
      7       2.7461      2.00000
      8       3.5604      2.00000
      9       3.8167      2.00000
     10       3.8167      2.00000
     11       4.4128      2.00000
     12       4.4128      2.00000
     13       4.4128      2.00000
     14       4.6529      2.00000
     15       4.6529      2.00000
     16       4.7406      2.00000
     17       4.7406      2.00000
     18       4.7406      2.00000
     19       5.5143      2.00000
     20       5.5143      2.00000
     21       5.5143      2.00000
     22       9.5817     -0.00000
     23       9.5817     -0.00000
     24       9.5817     -0.00000
     25      15.5090      0.00000
     26      15.5090      0.00000
     27      15.5090      0.00000
     28      18.2551      0.00000
     29      18.2551      0.00000
     30      18.2551      0.00000
     31      21.0280      0.00000
     32      21.0280      0.00000
     33      21.0280      0.00000
     34      21.4366      0.00000
     35      25.1949      0.00000
     36      25.1949      0.00000
     37      25.1949      0.00000
     38      25.2230      0.00000
     39      28.1732      0.00000
     40      28.1732      0.00000
     41      30.6799      0.00000
     42      30.6799      0.00000
     43      30.6799      0.00000
     44      31.1015      0.00000
     45      32.2387      0.00000
     46      32.2387      0.00000
     47      35.8486      0.00000
     48      35.8486      0.00000

 k-point     8 :       0.4000    0.2000    0.2000
  band No.  band energies     occupation 
      1       2.2921      2.00000
      2       2.5276      2.00000
      3       2.7096      2.00000
      4       2.7096      2.00000
      5       3.1074      2.00000
      6       3.1074      2.00000
      7       3.1911      2.00000
      8       3.5687      2.00000
      9       3.7865      2.00000
     10       3.8300      2.00000
     11       3.8300      2.00000
     12       3.9057      2.00000
     13       3.9507      2.00000
     14       4.2877      2.00000
     15       4.4843      2.00000
     16       4.4843      2.00000
     17       5.0395      2.00000
     18       5.0521      2.00000
     19       5.3828      2.00000
     20       5.3964      2.00000
     21       5.3964      2.00000
     22       6.8622      2.00000
     23      10.9849      0.00000
     24      10.9849      0.00000
     25      13.1801      0.00000
     26      13.1801      0.00000
     27      17.0245      0.00000
     28      19.0013      0.00000
     29      19.0013      0.00000
     30      19.0600      0.00000
     31      20.4396      0.00000
     32      20.4396      0.00000
     33      22.4782      0.00000
     34      22.7550      0.00000
     35      24.6676      0.00000
     36      25.2222      0.00000
     37      25.3321      0.00000
     38      26.9155      0.00000
     39      26.9155      0.00000
     40      27.7377      0.00000
     41      30.7843      0.00000
     42      31.2151      0.00000
     43      32.2504      0.00000
     44      32.2504      0.00000
     45      32.9954      0.00000
     46      33.0989      0.00000
     47      34.5389      0.00000
     48      34.5699      0.00000

 k-point     9 :       0.4000    0.4000    0.2000
  band No.  band energies     occupation 
      1       2.3467      2.00000
      2       2.5427      2.00000
      3       2.5427      2.00000
      4       2.5962      2.00000
      5       3.2977      2.00000
      6       3.3832      2.00000
      7       3.3832      2.00000
      8       3.6471      2.00000
      9       3.8426      2.00000
     10       3.9491      2.00000
     11       3.9491      2.00000
     12       4.0974      2.00000
     13       4.1852      2.00000
     14       4.1999      2.00000
     15       4.1999      2.00000
     16       4.3259      2.00000
     17       4.8358      2.00000
     18       5.2494      2.00000
     19       5.2494      2.00000
     20       5.2505      2.00000
     21       6.1305      2.00000
     22       8.1231      1.68981
     23       8.1231      1.68981
     24       9.9822     -0.00000
     25      12.7677      0.00000
     26      14.5535      0.00000
     27      14.5535      0.00000
     28      16.5442      0.00000
     29      19.9336      0.00000
     30      21.4959      0.00000
     31      21.4959      0.00000
     32      23.0589      0.00000
     33      23.1897      0.00000
     34      23.1897      0.00000
     35      24.2137      0.00000
     36      24.8384      0.00000
     37      25.7263      0.00000
     38      26.6858      0.00000
     39      26.6858      0.00000
     40      28.1883      0.00000
     41      30.6529      0.00000
     42      31.4123      0.00000
     43      31.4548      0.00000
     44      31.4548      0.00000
     45      33.0999      0.00000
     46      33.5271      0.00000
     47      34.0865      0.00000
     48      34.0865      0.00000

 k-point    10 :       0.4000    0.4000    0.4000
  band No.  band energies     occupation 
      1       2.0835      2.00000
      2       2.2000      2.00000
      3       2.2000      2.00000
      4       2.2000      2.00000
      5       3.4897      2.00000
      6       3.4897      2.00000
      7       3.4897      2.00000
      8       3.6453      2.00000
      9       3.6453      2.00000
     10       3.7443      2.00000
     11       3.7443      2.00000
     12       3.7443      2.00000
     13       4.8608      2.00000
     14       4.8608      2.00000
     15       4.8608      2.00000
     16       5.2863      2.00000
     17       5.2863      2.00000
     18       5.4463      2.00000
     19       5.4463      2.00000
     20       5.4463      2.00000
     21       6.4697      2.00000
     22       8.5084     -0.00002
     23       8.5084     -0.00002
     24       8.5084     -0.00002
     25      12.3687      0.00000
     26      12.3687      0.00000
     27      12.3687      0.00000
     28      14.0284      0.00000
     29      23.2871      0.00000
     30      23.2871      0.00000
     31      23.2871      0.00000
     32      23.9202      0.00000
     33      25.0652      0.00000
     34      25.0652      0.00000
     35      25.0652      0.00000
     36      25.1227      0.00000
     37      25.1227      0.00000
     38      25.1227      0.00000
     39      26.6596      0.00000
     40      26.6596      0.00000
     41      31.1904      0.00000
     42      31.1904      0.00000
     43      32.1566      0.00000
     44      32.1566      0.00000
     45      32.1566      0.00000
     46      32.2482      0.00000
     47      32.2482      0.00000
     48      32.2482      0.00000


--------------------------------------------------------------------------------------------------------


 soft charge-density along one line, spin component           1
         0         1         2         3         4         5         6         7         8         9
 total charge-density along one line
 
 pseudopotential strength for first ion, spin component:           1
 -4.081  -0.000  -0.000  -0.000   0.000  -4.311  -0.000  -0.000
 -0.000  -4.081  -0.000   0.000   0.000  -0.000  -4.311  -0.000
 -0.000  -0.000  -4.071  -0.000  -0.000  -0.000  -0.000  -4.302
 -0.000   0.000  -0.000  -4.081  -0.000  -0.000   0.000  -0.000
  0.000   0.000   0.000  -0.000  -4.071   0.000   0.000   0.000
 -4.311  -0.000  -0.000  -0.000   0.000  -4.507  -0.000  -0.000
 -0.000  -4.311  -0.000   0.000   0.000  -0.000  -4.507  -0.000
 -0.000  -0.000  -4.302  -0.000   0.000  -0.000  -0.000  -4.498
 -0.000   0.000  -0.000  -4.311  -0.000  -0.000   0.000  -0.000
  0.000   0.000  -0.000  -0.000  -4.302   0.000   0.000  -0.000
 -0.000   0.000   0.000   0.000   0.000  -0.000   0.000   0.000
 -0.000   0.000   0.000   0.000  -0.000  -0.000   0.000   0.000
  0.000   0.000   0.000   0.000   0.000   0.000   0.000   0.000
  0.000  -0.000   0.000   0.000   0.000   0.000  -0.000   0.000
 -0.000   0.000  -0.000   0.000   0.000  -0.000   0.000  -0.000
  0.000   0.000   0.000   0.000   0.000  -0.000   0.000   0.000
  0.000  -0.000   0.000   0.000   0.000   0.000  -0.000   0.000
 -0.000   0.000  -0.000   0.000   0.000  -0.000   0.000  -0.000
 total augmentation occupancy for first ion, spin component:           1
  3.514   0.000  -0.000   0.000   0.000  -1.550  -0.000  -0.000  -0.000   0.000   0.000   0.000  -0.000  -0.000   0.000   0.000
 -0.000   3.514  -0.000  -0.000  -0.000   0.000  -1.550  -0.000   0.000   0.000  -0.000  -0.000  -0.000  -0.000   0.000  -0.000
 -0.000   0.000   3.496   0.000   0.000   0.000   0.000  -1.398  -0.000   0.000   0.000  -0.000   0.000   0.000  -0.000  -0.000
 -0.000  -0.000   0.000   3.514  -0.000  -0.000  -0.000  -0.000  -1.550   0.000   0.000  -0.000  -0.000  -0.000  -0.000  -0.000
 -0.000   0.000   0.000  -0.000   3.496  -0.000   0.000  -0.000   0.000  -1.398   0.000   0.000   0.000  -0.000  -0.000   0.000
 -1.550  -0.000   0.000   0.000  -0.000   1.530   0.000  -0.000   0.000  -0.000  -0.000  -0.000  -0.000  -0.000  -0.000   0.000
 -0.000  -1.550   0.000  -0.000   0.000  -0.000   1.530  -0.000  -0.000  -0.000   0.000  -0.000   0.000   0.000   0.000   0.000
 -0.000  -0.000  -1.398   0.000   0.000  -0.000  -0.000   1.268   0.000   0.000   0.000   0.000   0.000   0.000  -0.000  -0.000
  0.000   0.000  -0.000  -1.550   0.000  -0.000  -0.000  -0.000   1.530   0.000  -0.000   0.000   0.000  -0.000  -0.000  -0.000
  0.000   0.000   0.000   0.000  -1.398  -0.000  -0.000   0.000   0.000   1.268  -0.000   0.000   0.000  -0.000   0.000   0.000
  0.000  -0.000  -0.000  -0.000  -0.000   0.000   0.000   0.000  -0.000  -0.000   2.200  -0.411   0.000   0.000   0.000   0.000
  0.000  -0.000  -0.000  -0.000   0.000  -0.000  -0.000   0.000   0.000  -0.000  -0.411   0.097  -0.000   0.000   0.000   0.000
  0.000   0.000   0.000  -0.000  -0.000  -0.000   0.000   0.000  -0.000   0.000   0.000   0.000   0.169   0.000   0.000  -0.010
 -0.000   0.000   0.000   0.000  -0.000  -0.000  -0.000   0.000   0.000  -0.000   0.000   0.000   0.000   0.169   0.000   0.000
  0.000   0.000  -0.000  -0.000  -0.000  -0.000   0.000  -0.000  -0.000   0.000   0.000   0.000   0.000  -0.000   0.169  -0.000
  0.000   0.000   0.000   0.000   0.000   0.000   0.000   0.000  -0.000   0.000   0.000   0.000  -0.010  -0.000  -0.000   0.001
 -0.000  -0.000   0.000  -0.000  -0.000  -0.000  -0.000  -0.000  -0.000   0.000   0.000   0.000  -0.000  -0.010  -0.000  -0.000
  0.000  -0.000   0.000   0.000  -0.000   0.000  -0.000  -0.000  -0.000  -0.000  -0.000  -0.000  -0.000  -0.000  -0.010   0.000


------------------------ aborting loop because EDIFF is reached ----------------------------------------


    CHARGE:  cpu time    0.0291: real time    0.0301
    FORLOC:  cpu time    0.0002: real time    0.0002
    FORNL :  cpu time    0.0387: real time    0.0388
    STRESS:  cpu time    0.0873: real time    0.0875
    FORCOR:  cpu time    0.0032: real time    0.0032
    FORHAR:  cpu time    0.0009: real time    0.0009
    MIXING:  cpu time    0.0003: real time    0.0003
    OFIELD:  cpu time    0.0000: real time    0.0000

  FORCE on cell =-STRESS in cart. coord.  units (eV):
  Direction    XX          YY          ZZ          XY          YZ          ZX
  --------------------------------------------------------------------------------------
  Alpha Z   198.91349   198.91349   198.91349
  Ewald   -1302.12701 -1302.12701 -1302.12701    -0.00000    -0.00000     0.00000
  Hartree   254.06180   254.06180   254.06180    -0.00000    -0.00000    -0.00000
  E(xc)    -232.83530  -232.83530  -232.83530    -0.00000    -0.00000    -0.00000
  Local     200.28500   200.28500   200.28500     0.00000     0.00000    -0.00000
  n-local   -21.32492   -32.81743   -38.53693    -0.08447     3.28373     2.06049
  augment   368.18926   368.18926   368.18926    -0.00000     0.00000     0.00000
  Kinetic   553.10341   546.61389   539.61550    -4.82005    -0.04143    -0.63956
  Fock        0.00000     0.00000     0.00000     0.00000     0.00000     0.00000
  -------------------------------------------------------------------------------------
  Total       2.03841     2.03841     2.03841    -0.00000     0.00000     0.00000
  in kB      47.73458    47.73458    47.73458    -0.00000     0.00000     0.00000
  external pressure =       47.73 kB  Pullay stress =        0.00 kB


 VOLUME and BASIS-vectors are now :
 -----------------------------------------------------------------------------
  energy-cutoff  :      400.00
  volume of cell :       68.42
      direct lattice vectors                 reciprocal lattice vectors
     4.090000000  0.000000000  0.000000000     0.244498778  0.000000000  0.000000000
     0.000000000  4.090000000  0.000000000     0.000000000  0.244498778  0.000000000
     0.000000000  0.000000000  4.090000000     0.000000000  0.000000000  0.244498778

  length of vectors
     4.090000000  4.090000000  4.090000000     0.244498778  0.244498778  0.244498778


 FORCES acting on ions
    electron-ion (+dipol)            ewald-force                    non-local-force                 convergence-correction
 -----------------------------------------------------------------------------------------------
   0.268E-13 0.543E-13 0.704E-14   -.106E-13 0.211E-15 -.166E-14   0.496E-23 0.000E+00 0.496E-23   -.279E-13 -.112E-13 -.166E-14
   0.261E-13 -.570E-13 -.112E-12   -.884E-14 0.157E-14 0.360E-14   0.331E-23 0.538E-23 0.199E-22   -.190E-13 0.234E-13 -.416E-14
   -.848E-13 0.471E-13 0.857E-12   0.897E-14 -.192E-14 0.347E-14   -.455E-23 -.232E-22 0.993E-23   0.351E-13 -.691E-14 -.523E-13
   -.839E-13 -.285E-15 -.653E-12   0.107E-13 -.558E-15 -.886E-14   -.132E-22 -.265E-22 -.149E-22   0.308E-13 0.297E-13 0.476E-13
 -----------------------------------------------------------------------------------------------
   -.116E-12 0.440E-13 0.994E-13   0.273E-15 -.694E-15 -.345E-14   -.951E-23 -.443E-22 0.199E-22   0.191E-13 0.350E-13 -.105E-13
 
 
 POSITION                                       TOTAL-FORCE (eV/Angst)
 -----------------------------------------------------------------------------------
      0.00000      0.00000      0.00000         0.000000     -0.000000     -0.000000
      0.00000      2.04500      2.04500         0.000000      0.000000      0.000000
      2.04500      0.00000      2.04500        -0.000000     -0.000000     -0.000000
      2.04500      2.04500      0.00000         0.000000      0.000000      0.000000
 -----------------------------------------------------------------------------------
    total drift:                               -0.000000      0.000000      0.000000


--------------------------------------------------------------------------------------------------------



  FREE ENERGIE OF THE ION-ELECTRON SYSTEM (eV)
  ---------------------------------------------------
  free  energy   TOTEN  =       -10.73967010 eV

  energy  without entropy=      -10.73598027  energy(sigma->0) =      -10.73844016
 


--------------------------------------------------------------------------------------------------------


    POTLOK:  cpu time    0.0051: real time    0.0051


--------------------------------------------------------------------------------------------------------


     LOOP+:  cpu time    3.8580: real time    3.9040
    4ORBIT:  cpu time    0.0000: real time    0.0000

 total amount of memory used by VASP on root node    33037. kBytes
========================================================================

   base      :      30000. kBytes
   nonl-proj :       1913. kBytes
   fftplans  :        147. kBytes
   grid      :        485. kBytes
   one-center:         62. kBytes
   wavefun   :        430. kBytes
 
  
  
 General timing and accounting informations for this job:
 ========================================================
  
                  Total CPU time used (sec):       22.119
                            User time (sec):       22.012
                          System time (sec):        0.107
                         Elapsed time (sec):       22.404
  
                   Maximum memory used (kb):       61536.
                   Average memory used (kb):           0.
  
                          Minor page faults:        16841
                          Major page faults:           10
                 Voluntary context switches:         2087
