   4   4   0   0
  0.1533736E+02  0.3944000E-09  0.3944000E-09  0.3944000E-09  0.5000000E-15
  1.000000000000000E-004
  CAR 
 unknown system                          
     43.53772891     -1.74635398  301     11.40144704      1.00000000
     -1.746  0.0000E+00  0.0000E+00
     -1.595  0.0000E+00  0.0000E+00
     -1.444  0.0000E+00  0.0000E+00
     -1.294  0.0000E+00  0.0000E+00
     -1.143  0.0000E+00  0.0000E+00
     -0.992  0.0000E+00  0.0000E+00
     -0.841  0.0000E+00  0.0000E+00
     -0.690  0.0000E+00  0.0000E+00
     -0.539 -0.1597E-32 -0.2411E-33
     -0.388 -0.1923E-22 -0.2902E-23
     -0.237 -0.2239E-14 -0.3380E-15
     -0.086 -0.2538E-08 -0.3831E-09
      0.065 -0.2404E-04 -0.3629E-05
      0.216 -0.4496E-03 -0.7150E-04
      0.367  0.1344E-01  0.1958E-02
      0.518  0.9117E-01  0.1572E-01
      0.669  0.1989E+00  0.4575E-01
      0.820  0.1597E+00  0.6985E-01
      0.971  0.9873E-01  0.8475E-01
      1.122  0.3814E+00  0.1423E+00
      1.273  0.4816E+00  0.2150E+00
      1.424  0.4708E-01  0.2221E+00
      1.574  0.2639E+00  0.2620E+00
      1.725  0.5189E+00  0.3403E+00
      1.876  0.5160E+00  0.4182E+00
      2.027  0.4778E+00  0.4903E+00
      2.178  0.2824E+00  0.5329E+00
      2.329  0.1022E+01  0.6872E+00
      2.480  0.3096E+00  0.7339E+00
      2.631  0.3513E+00  0.7869E+00
      2.782  0.1395E+01  0.9976E+00
      2.933  0.7025E+00  0.1104E+01
      3.084  0.2465E+01  0.1476E+01
      3.235  0.1735E+01  0.1738E+01
      3.386  0.3468E+01  0.2261E+01
      3.537  0.3140E+01  0.2735E+01
      3.688  0.6116E+01  0.3658E+01
      3.839  0.5086E+01  0.4426E+01
      3.990  0.6905E+01  0.5468E+01
      4.141  0.7045E+01  0.6532E+01
      4.292  0.5986E+01  0.7435E+01
      4.442  0.4348E+01  0.8092E+01
      4.593  0.7374E+01  0.9205E+01
      4.744  0.4318E+01  0.9856E+01
      4.895  0.2695E+01  0.1026E+02
      5.046  0.5934E+01  0.1116E+02
      5.197  0.6545E+01  0.1215E+02
      5.348  0.6188E+01  0.1308E+02
      5.499  0.6309E+01  0.1403E+02
      5.650  0.5187E+01  0.1482E+02
      5.801  0.9208E+01  0.1621E+02
      5.952  0.5675E+01  0.1706E+02
      6.103  0.7611E+01  0.1821E+02
      6.254  0.1018E+02  0.1975E+02
      6.405  0.1026E+02  0.2130E+02
      6.556  0.9260E+01  0.2270E+02
      6.707  0.7466E+01  0.2382E+02
      6.858  0.5721E+01  0.2469E+02
      7.009  0.6249E+01  0.2563E+02
      7.160  0.3972E+01  0.2623E+02
      7.310  0.7625E+01  0.2738E+02
      7.461  0.3972E+01  0.2798E+02
      7.612  0.7398E+01  0.2910E+02
      7.763  0.7410E+01  0.3021E+02
      7.914  0.8145E+01  0.3144E+02
      8.065  0.5690E+01  0.3230E+02
      8.216  0.4127E+01  0.3293E+02
      8.367  0.4055E+01  0.3354E+02
      8.518  0.8106E+01  0.3476E+02
      8.669  0.4103E+01  0.3538E+02
      8.820  0.5726E+01  0.3625E+02
      8.971  0.5405E+01  0.3706E+02
      9.122  0.9292E+01  0.3846E+02
      9.273  0.8509E+01  0.3975E+02
      9.424  0.7086E+01  0.4082E+02
      9.575  0.8205E+01  0.4206E+02
      9.726  0.1912E+01  0.4234E+02
      9.877  0.4674E+00  0.4242E+02
     10.028  0.2677E-02  0.4242E+02
     10.178  0.4611E+00  0.4249E+02
     10.329  0.2195E+01  0.4282E+02
     10.480  0.2339E+01  0.4317E+02
     10.631  0.7650E+00  0.4329E+02
     10.782  0.5117E-01  0.4329E+02
     10.933  0.1316E+01  0.4349E+02
     11.084  0.8270E+00  0.4362E+02
     11.235  0.1738E+01  0.4388E+02
     11.386  0.6687E+00  0.4398E+02
     11.537  0.8280E+00  0.4410E+02
     11.688  0.1129E+01  0.4428E+02
     11.839  0.6853E+00  0.4438E+02
     11.990  0.1190E+01  0.4456E+02
     12.141  0.1375E+01  0.4477E+02
     12.292  0.7031E+00  0.4487E+02
     12.443  0.1465E+01  0.4509E+02
     12.594  0.1805E+01  0.4537E+02
     12.745  0.5255E+00  0.4544E+02
     12.895  0.5523E+00  0.4553E+02
     13.046  0.7237E+00  0.4564E+02
     13.197  0.7757E+00  0.4575E+02
     13.348  0.9769E+00  0.4590E+02
     13.499  0.1730E+01  0.4616E+02
     13.650  0.1329E+01  0.4636E+02
     13.801  0.3567E+00  0.4642E+02
     13.952  0.7257E+00  0.4653E+02
     14.103  0.5696E+00  0.4661E+02
     14.254  0.4230E+00  0.4668E+02
     14.405  0.1836E+01  0.4695E+02
     14.556  0.6324E+00  0.4705E+02
     14.707  0.1919E+01  0.4734E+02
     14.858  0.2273E+00  0.4737E+02
     15.009  0.3085E+00  0.4742E+02
     15.160  0.2177E+01  0.4775E+02
     15.311  0.2614E+01  0.4814E+02
     15.462  0.1380E+01  0.4835E+02
     15.613  0.5783E-01  0.4836E+02
     15.763  0.3896E+00  0.4842E+02
     15.914  0.1980E+01  0.4872E+02
     16.065  0.1068E+01  0.4888E+02
     16.216  0.9622E+00  0.4902E+02
     16.367  0.2358E+01  0.4938E+02
     16.518  0.1026E+01  0.4954E+02
     16.669  0.3137E+00  0.4958E+02
     16.820  0.8923E+00  0.4972E+02
     16.971  0.8070E+00  0.4984E+02
     17.122  0.1457E+01  0.5006E+02
     17.273  0.2735E+01  0.5047E+02
     17.424  0.1809E+01  0.5075E+02
     17.575  0.6713E+00  0.5085E+02
     17.726  0.7450E+00  0.5096E+02
     17.877  0.9675E+00  0.5111E+02
     18.028  0.6370E+00  0.5120E+02
     18.179  0.2111E+01  0.5152E+02
     18.330  0.4816E+00  0.5159E+02
     18.481  0.9864E+00  0.5174E+02
     18.631  0.1312E+01  0.5194E+02
     18.782  0.1190E+01  0.5212E+02
     18.933  0.9052E+00  0.5226E+02
     19.084  0.1995E+01  0.5256E+02
     19.235  0.2788E+01  0.5298E+02
     19.386  0.9873E+00  0.5313E+02
     19.537  0.1833E+00  0.5315E+02
     19.688  0.1096E+01  0.5332E+02
     19.839  0.6958E+00  0.5342E+02
     19.990  0.7973E+00  0.5355E+02
     20.141  0.1058E+01  0.5370E+02
     20.292  0.1558E+01  0.5394E+02
     20.443  0.2618E+01  0.5434E+02
     20.594  0.2001E+01  0.5464E+02
     20.745  0.5423E+00  0.5472E+02
     20.896  0.1341E+01  0.5492E+02
     21.047  0.1460E+01  0.5514E+02
     21.198  0.2049E+01  0.5545E+02
     21.349  0.1346E+01  0.5565E+02
     21.499  0.8749E+00  0.5579E+02
     21.650  0.1666E+01  0.5604E+02
     21.801  0.2652E+01  0.5644E+02
     21.952  0.2076E+01  0.5675E+02
     22.103  0.1958E+01  0.5705E+02
     22.254  0.8788E+00  0.5718E+02
     22.405  0.1327E+01  0.5738E+02
     22.556  0.1188E+01  0.5756E+02
     22.707  0.1162E+01  0.5773E+02
     22.858  0.4076E+01  0.5835E+02
     23.009  0.2675E+01  0.5875E+02
     23.160  0.1654E+01  0.5900E+02
     23.311  0.2371E+01  0.5936E+02
     23.462  0.9262E+00  0.5950E+02
     23.613  0.2038E+01  0.5981E+02
     23.764  0.1251E+01  0.6000E+02
     23.915  0.3413E+01  0.6051E+02
     24.066  0.9736E+00  0.6066E+02
     24.217  0.2129E+01  0.6098E+02
     24.367  0.8473E+00  0.6111E+02
     24.518  0.2069E+01  0.6142E+02
     24.669  0.1496E+01  0.6165E+02
     24.820  0.2229E+01  0.6198E+02
     24.971  0.3561E+01  0.6252E+02
     25.122  0.2170E+01  0.6285E+02
     25.273  0.1843E+01  0.6313E+02
     25.424  0.2387E+01  0.6349E+02
     25.575  0.3902E+01  0.6408E+02
     25.726  0.2414E+01  0.6444E+02
     25.877  0.2296E+01  0.6479E+02
     26.028  0.3195E+01  0.6527E+02
     26.179  0.3203E+01  0.6575E+02
     26.330  0.1480E+01  0.6598E+02
     26.481  0.1041E+01  0.6613E+02
     26.632  0.2744E+01  0.6655E+02
     26.783  0.2546E+01  0.6693E+02
     26.934  0.1902E+01  0.6722E+02
     27.085  0.2823E+01  0.6765E+02
     27.235  0.4511E+01  0.6833E+02
     27.386  0.3858E+01  0.6891E+02
     27.537  0.1995E+01  0.6921E+02
     27.688  0.4024E+00  0.6927E+02
     27.839  0.1096E+01  0.6944E+02
     27.990  0.2003E+01  0.6974E+02
     28.141  0.1817E+01  0.7001E+02
     28.292  0.6798E+00  0.7012E+02
     28.443  0.1413E+01  0.7033E+02
     28.594  0.3374E+00  0.7038E+02
     28.745  0.1896E+01  0.7067E+02
     28.896  0.3015E+01  0.7112E+02
     29.047  0.2641E+01  0.7152E+02
     29.198  0.2958E+01  0.7197E+02
     29.349  0.1816E+01  0.7224E+02
     29.500  0.4435E+01  0.7291E+02
     29.651  0.1469E+01  0.7313E+02
     29.802  0.1486E+01  0.7336E+02
     29.953  0.3876E+01  0.7394E+02
     30.103  0.5182E+01  0.7472E+02
     30.254  0.3113E+01  0.7519E+02
     30.405  0.2009E+01  0.7550E+02
     30.556  0.1598E+01  0.7574E+02
     30.707  0.2966E+01  0.7618E+02
     30.858  0.3393E+01  0.7670E+02
     31.009  0.2974E+01  0.7715E+02
     31.160  0.2646E+01  0.7755E+02
     31.311  0.2059E+01  0.7786E+02
     31.462  0.1657E+01  0.7811E+02
     31.613  0.2038E+01  0.7841E+02
     31.764  0.3006E+01  0.7887E+02
     31.915  0.1923E+01  0.7916E+02
     32.066  0.1916E+01  0.7945E+02
     32.217  0.7043E+00  0.7955E+02
     32.368  0.4874E+00  0.7963E+02
     32.519  0.2015E+01  0.7993E+02
     32.670  0.2551E+01  0.8032E+02
     32.820  0.1739E+01  0.8058E+02
     32.971  0.1574E+01  0.8082E+02
     33.122  0.1567E+01  0.8105E+02
     33.273  0.1156E+01  0.8123E+02
     33.424  0.8763E+00  0.8136E+02
     33.575  0.2644E+00  0.8140E+02
     33.726  0.1631E+01  0.8165E+02
     33.877  0.2054E+01  0.8196E+02
     34.028  0.2666E+01  0.8236E+02
     34.179  0.3095E+01  0.8283E+02
     34.330  0.2105E+01  0.8314E+02
     34.481  0.1075E+01  0.8331E+02
     34.632  0.1663E+01  0.8356E+02
     34.783  0.2304E+01  0.8390E+02
     34.934  0.2086E+01  0.8422E+02
     35.085  0.9423E+00  0.8436E+02
     35.236  0.1298E+01  0.8456E+02
     35.387  0.1562E+01  0.8479E+02
     35.538  0.2542E+01  0.8518E+02
     35.688  0.1747E+01  0.8544E+02
     35.839  0.3250E+01  0.8593E+02
     35.990  0.3937E+01  0.8653E+02
     36.141  0.1962E+01  0.8682E+02
     36.292  0.2149E+01  0.8715E+02
     36.443  0.6344E+00  0.8724E+02
     36.594  0.2138E+01  0.8756E+02
     36.745  0.2415E+01  0.8793E+02
     36.896  0.2356E+01  0.8828E+02
     37.047  0.2930E+01  0.8873E+02
     37.198  0.3317E+01  0.8923E+02
     37.349  0.2906E+01  0.8967E+02
     37.500  0.3269E+01  0.9016E+02
     37.651  0.4635E+01  0.9086E+02
     37.802  0.1531E+01  0.9109E+02
     37.953  0.3656E+01  0.9164E+02
     38.104  0.7892E+01  0.9283E+02
     38.255  0.3833E+01  0.9341E+02
     38.406  0.3865E+01  0.9400E+02
     38.556  0.7204E+01  0.9508E+02
     38.707  0.1720E+00  0.9511E+02
     38.858  0.9433E+00  0.9525E+02
     39.009  0.1499E+01  0.9548E+02
     39.160  0.6348E+00  0.9557E+02
     39.311  0.1696E+01  0.9583E+02
     39.462  0.4044E+00  0.9589E+02
     39.613  0.4468E-01  0.9590E+02
     39.764  0.4793E+00  0.9597E+02
     39.915  0.1595E+00  0.9599E+02
     40.066  0.2802E-01  0.9600E+02
     40.217 -0.1666E-02  0.9600E+02
     40.368 -0.1862E-05  0.9600E+02
     40.519 -0.1430E-10  0.9600E+02
     40.670 -0.1414E-29  0.9600E+02
     40.821 -0.4858E-20  0.9600E+02
     40.972 -0.1596E-12  0.9600E+02
     41.123 -0.5009E-07  0.9600E+02
     41.274 -0.1197E-03  0.9600E+02
     41.424  0.2014E-02  0.9600E+02
     41.575  0.1665E-01  0.9600E+02
     41.726 -0.3492E-03  0.9600E+02
     41.877 -0.2403E-04  0.9600E+02
     42.028 -0.2538E-08  0.9600E+02
     42.179 -0.2240E-14  0.9600E+02
     42.330  0.0000E+00  0.9600E+02
     42.481  0.0000E+00  0.9600E+02
     42.632  0.0000E+00  0.9600E+02
     42.783  0.0000E+00  0.9600E+02
     42.934  0.0000E+00  0.9600E+02
     43.085  0.0000E+00  0.9600E+02
     43.236  0.0000E+00  0.9600E+02
     43.387  0.0000E+00  0.9600E+02
     43.538  0.0000E+00  0.9600E+02
