    4    4    1    1
  0.1533736E+02  0.3944000E-09  0.3944000E-09  0.3944000E-09  0.5000000E-15
  1.000000000000000E-004
  CAR 
 unknown system                          
     44     35     48
 
  0.0000000E+00  0.0000000E+00  0.0000000E+00  0.1371742E-02
    1        0.312013   1.000000
    2        3.214260   1.000000
    3        3.214260   1.000000
    4        3.214260   1.000000
    5        3.587244   1.000000
    6        3.587244   1.000000
    7        3.587244   1.000000
    8        6.036820   1.000000
    9        6.036820   1.000000
   10        6.036820   1.000000
   11        7.861987   1.000000
   12        7.861987   1.000000
   13        9.256300   1.000000
   14        9.256300   1.000000
   15        9.256300   1.000000
   16        9.694306   1.000000
   17        9.694306   1.000000
   18        9.694306   1.000000
   19        9.694306   1.000000
   20        9.694306   1.000000
   21        9.694306   1.000000
   22       12.061382  -0.000000
   23       12.061382  -0.000000
   24       12.061382  -0.000000
   25       18.040095   0.000000
   26       18.040095   0.000000
   27       18.040095   0.000000
   28       21.644345   0.000000
   29       21.644345   0.000000
   30       21.644345   0.000000
   31       21.644345   0.000000
   32       21.644345   0.000000
   33       21.644345   0.000000
   34       25.655768   0.000000
   35       29.745498   0.000000
   36       29.745498   0.000000
   37       29.745498   0.000000
   38       30.268475   0.000000
   39       30.268475   0.000000
   40       30.268475   0.000000
   41       32.693349   0.000000
   42       32.693349   0.000000
   43       32.693349   0.000000
   44       35.530188   0.000000
   45       39.491314   0.000000
   46       39.491314   0.000000
   47       39.491314   0.000000
   48       41.479362   0.000000
 
  0.1111111E+00  0.0000000E+00  0.0000000E+00  0.8230453E-02
    1        0.471019   1.000000
    2        3.273779   1.000000
    3        3.324617   1.000000
    4        3.324617   1.000000
    5        3.648229   1.000000
    6        3.681196   1.000000
    7        3.681196   1.000000
    8        5.945170   1.000000
    9        6.113047   1.000000
   10        6.113047   1.000000
   11        7.762480   1.000000
   12        7.900066   1.000000
   13        9.039121   1.000000
   14        9.039121   1.000000
   15        9.111228   1.000000
   16        9.111228   1.000000
   17        9.209533   1.000000
   18        9.519675   1.000000
   19        9.519675   1.000000
   20        9.694655   1.000000
   21        9.694655   1.000000
   22       11.149506   1.001061
   23       12.815618  -0.000000
   24       12.815618  -0.000000
   25       17.824774   0.000000
   26       17.824774   0.000000
   27       19.205281   0.000000
   28       21.456815   0.000000
   29       21.456815   0.000000
   30       21.631189   0.000000
   31       21.631189   0.000000
   32       21.994032   0.000000
   33       21.994032   0.000000
   34       25.877344   0.000000
   35       29.591859   0.000000
   36       29.757111   0.000000
   37       30.247440   0.000000
   38       30.247440   0.000000
   39       30.358979   0.000000
   40       30.358979   0.000000
   41       32.495074   0.000000
   42       32.735769   0.000000
   43       32.735769   0.000000
   44       36.547774   0.000000
   45       39.248322   0.000000
   46       39.248322   0.000000
   47       39.720458   0.000000
   48       39.888116   0.000000
 
  0.2222222E+00  0.0000000E+00  0.0000000E+00  0.8230453E-02
    1        0.936287   1.000000
    2        3.417539   1.000000
    3        3.634338   1.000000
    4        3.634338   1.000000
    5        3.827157   1.000000
    6        3.961861   1.000000
    7        3.961861   1.000000
    8        5.689704   1.000000
    9        6.339444   1.000000
   10        6.339444   1.000000
   11        7.489040   1.000000
   12        7.926683   1.000000
   13        7.926683   1.000000
   14        8.010911   1.000000
   15        8.705384   1.000000
   16        8.705384   1.000000
   17        9.059048   1.000000
   18        9.059048   1.000000
   19        9.077100   1.000000
   20        9.449538   1.000000
   21        9.695410   1.000000
   22        9.695410   1.000000
   23       14.217227   0.000000
   24       14.217227   0.000000
   25       17.359506   0.000000
   26       17.359506   0.000000
   27       20.890810   0.000000
   28       20.890810   0.000000
   29       21.588374   0.000000
   30       21.588374   0.000000
   31       21.685725   0.000000
   32       22.971315   0.000000
   33       22.971315   0.000000
   34       26.511360   0.000000
   35       28.895731   0.000000
   36       29.215509   0.000000
   37       30.043391   0.000000
   38       30.043391   0.000000
   39       31.915611   0.000000
   40       32.002722   0.000000
   41       32.002722   0.000000
   42       32.934595   0.000000
   43       32.934595   0.000000
   44       38.039329   0.000000
   45       38.039329   0.000000
   46       38.374724   0.000000
   47       38.374724   0.000000
   48       38.446910   0.000000
 
  0.3333333E+00  0.0000000E+00  0.0000000E+00  0.8230453E-02
    1        1.663436   1.000000
    2        3.509701   1.000000
    3        4.064470   1.000000
    4        4.064470   1.000000
    5        4.111582   1.000000
    6        4.426151   1.000000
    7        4.426151   1.000000
    8        5.320079   1.000000
    9        6.708390   1.000000
   10        6.708390   1.000000
   11        6.841915   1.000000
   12        6.841915   1.000000
   13        7.123543   1.000000
   14        7.897796   1.000000
   15        8.153261   1.000000
   16        8.153261   1.000000
   17        8.184328   1.000000
   18        8.445502   1.000000
   19        8.445502   1.000000
   20        8.879157   1.000000
   21        9.696315   1.000000
   22        9.696315   1.000000
   23       15.756125   0.000000
   24       15.756125   0.000000
   25       16.934015   0.000000
   26       16.934015   0.000000
   27       19.961003   0.000000
   28       19.961003   0.000000
   29       21.530945   0.000000
   30       21.530945   0.000000
   31       24.412619   0.000000
   32       24.412619   0.000000
   33       24.614490   0.000000
   34       27.473481   0.000000
   35       28.261194   0.000000
   36       28.832655   0.000000
   37       29.295007   0.000000
   38       29.295007   0.000000
   39       31.007782   0.000000
   40       33.426932   0.000000
   41       33.426932   0.000000
   42       34.277062   0.000000
   43       34.277062   0.000000
   44       35.267170   0.000000
   45       36.975817   0.000000
   46       36.975817   0.000000
   47       37.109651   0.000000
   48       37.109651   0.000000
 
  0.4444444E+00  0.0000000E+00  0.0000000E+00  0.8230453E-02
    1        2.534240   1.000000
    2        3.260221   1.000000
    3        4.424090   1.000000
    4        4.424090   1.000000
    5        4.479506   1.000000
    6        4.897619   1.000000
    7        5.068180   1.000000
    8        5.068180   1.000000
    9        5.878659   1.000000
   10        5.878659   1.000000
   11        6.838058   1.000000
   12        6.974669   1.000000
   13        7.204597   1.000000
   14        7.204597   1.000000
   15        7.707483   1.000000
   16        7.707483   1.000000
   17        7.799962   1.000000
   18        7.799962   1.000000
   19        8.403205   1.000000
   20        8.644252   1.000000
   21        9.696780   1.000000
   22        9.696780   1.000000
   23       16.700943   0.000000
   24       16.700943   0.000000
   25       17.293174   0.000000
   26       17.293174   0.000000
   27       18.729217   0.000000
   28       18.729217   0.000000
   29       21.490769   0.000000
   30       21.490769   0.000000
   31       26.126569   0.000000
   32       26.126569   0.000000
   33       27.288078   0.000000
   34       27.874548   0.000000
   35       27.874548   0.000000
   36       27.930888   0.000000
   37       28.641605   0.000000
   38       29.087778   0.000000
   39       29.870471   0.000000
   40       31.801485   0.000000
   41       34.293208   0.000000
   42       34.293208   0.000000
   43       35.516604   0.000000
   44       35.516604   0.000000
   45       36.594056   0.000000
   46       36.594056   0.000000
   47       37.361711   0.000000
   48       37.361713   0.000000
 
  0.1111111E+00  0.1111111E+00  0.0000000E+00  0.1646091E-01
    1        0.626682   1.000000
    2        3.385871   1.000000
    3        3.385871   1.000000
    4        3.411370   1.000000
    5        3.740066   1.000000
    6        3.740066   1.000000
    7        3.790558   1.000000
    8        5.906405   1.000000
    9        6.141231   1.000000
   10        6.177043   1.000000
   11        7.736798   1.000000
   12        7.880436   1.000000
   13        8.672093   1.000000
   14        8.721289   1.000000
   15        8.721289   1.000000
   16        8.982468   1.000000
   17        9.152331   1.000000
   18        9.152331   1.000000
   19        9.519201   1.000000
   20        9.519201   1.000000
   21        9.580812   1.000000
   22       11.935331  -0.000000
   23       11.935331  -0.000000
   24       13.397658  -0.000000
   25       17.547601   0.000000
   26       18.945132   0.000000
   27       18.945132   0.000000
   28       20.811016   0.000000
   29       21.800751   0.000000
   30       21.800751   0.000000
   31       22.011306   0.000000
   32       22.011306   0.000000
   33       22.298148   0.000000
   34       26.076552   0.000000
   35       28.845978   0.000000
   36       30.218531   0.000000
   37       30.227068   0.000000
   38       30.227068   0.000000
   39       30.517332   0.000000
   40       30.930610   0.000000
   41       32.553298   0.000000
   42       32.553298   0.000000
   43       33.056607   0.000000
   44       36.849380   0.000000
   45       38.874103   0.000000
   46       39.105996   0.000000
   47       39.379096   0.000000
   48       39.401964   0.000000
 
  0.2222222E+00  0.1111111E+00  0.0000000E+00  0.3292181E-01
    1        1.082084   1.000000
    2        3.534750   1.000000
    3        3.665180   1.000000
    4        3.701473   1.000000
    5        3.912754   1.000000
    6        4.014300   1.000000
    7        4.102162   1.000000
    8        5.688421   1.000000
    9        6.343267   1.000000
   10        6.359154   1.000000
   11        7.513708   1.000000
   12        7.632789   1.000000
   13        7.774489   1.000000
   14        7.995131   1.000000
   15        8.063677   1.000000
   16        8.616733   1.000000
   17        8.759195   1.000000
   18        9.002793   1.000000
   19        9.056972   1.000000
   20        9.517786   1.000000
   21        9.521223   1.000000
   22       10.462430   1.000000
   23       13.200501  -0.000000
   24       14.650687   0.000000
   25       16.937964   0.000000
   26       18.436762   0.000000
   27       20.207848   0.000000
   28       21.112352   0.000000
   29       21.221062   0.000000
   30       22.038635   0.000000
   31       22.711087   0.000000
   32       22.758199   0.000000
   33       23.154225   0.000000
   34       26.631855   0.000000
   35       27.807821   0.000000
   36       29.946280   0.000000
   37       30.012990   0.000000
   38       31.038238   0.000000
   39       31.251341   0.000000
   40       31.858861   0.000000
   41       32.020094   0.000000
   42       32.794593   0.000000
   43       34.067460   0.000000
   44       35.887575   0.000000
   45       38.095885   0.000000
   46       38.420436   0.000000
   47       38.454831   0.000000
   48       39.713240   0.000000
 
  0.3333333E+00  0.1111111E+00  0.0000000E+00  0.3292181E-01
    1        1.794104   1.000000
    2        3.632325   1.000000
    3        4.059554   1.000000
    4        4.143388   1.000000
    5        4.186813   1.000000
    6        4.466898   1.000000
    7        4.556196   1.000000
    8        5.342352   1.000000
    9        6.580742   1.000000
   10        6.598960   1.000000
   11        6.706571   1.000000
   12        6.784372   1.000000
   13        7.206511   1.000000
   14        7.263141   1.000000
   15        8.111059   1.000000
   16        8.212045   1.000000
   17        8.228919   1.000000
   18        8.442026   1.000000
   19        8.608146   1.000000
   20        9.384866   1.000000
   21        9.509143   1.000000
   22        9.515297   1.000000
   23       14.393280   0.000000
   24       16.117616   0.000000
   25       16.334506   0.000000
   26       18.121443   0.000000
   27       19.586502   0.000000
   28       20.278248   0.000000
   29       22.086193   0.000000
   30       22.675973   0.000000
   31       23.204555   0.000000
   32       24.156685   0.000000
   33       25.084498   0.000000
   34       26.949113   0.000000
   35       27.354938   0.000000
   36       29.424145   0.000000
   37       29.838977   0.000000
   38       30.552016   0.000000
   39       31.187824   0.000000
   40       31.914168   0.000000
   41       33.343147   0.000000
   42       33.752811   0.000000
   43       34.685861   0.000000
   44       35.783586   0.000000
   45       37.054955   0.000000
   46       37.236474   0.000000
   47       37.358591   0.000000
   48       37.444961   0.000000
 
  0.4444444E+00  0.1111111E+00  0.0000000E+00  0.3292181E-01
    1        2.650853   1.000000
    2        3.377932   1.000000
    3        4.472562   1.000000
    4        4.515553   1.000000
    5        4.540399   1.000000
    6        4.940610   1.000000
    7        5.065657   1.000000
    8        5.090245   1.000000
    9        5.719861   1.000000
   10        5.871007   1.000000
   11        6.554924   1.000000
   12        6.605288   1.000000
   13        7.200970   1.000000
   14        7.435028   1.000000
   15        7.715614   1.000000
   16        7.768862   1.000000
   17        7.795963   1.000000
   18        7.982442   1.000000
   19        8.497237   1.000000
   20        8.848052   1.000000
   21        9.508989   1.000000
   22        9.511997   1.000000
   23       15.277283   0.000000
   24       15.836358   0.000000
   25       17.619969   0.000000
   26       18.285455   0.000000
   27       18.885421   0.000000
   28       19.043359   0.000000
   29       22.206348   0.000000
   30       22.427948   0.000000
   31       24.894865   0.000000
   32       25.778266   0.000000
   33       26.108164   0.000000
   34       27.233220   0.000000
   35       27.289248   0.000000
   36       29.048974   0.000000
   37       29.257693   0.000000
   38       30.171826   0.000000
   39       30.536160   0.000000
   40       32.597168   0.000000
   41       33.022470   0.000000
   42       34.077563   0.000000
   43       34.268384   0.000000
   44       35.548985   0.000000
   45       36.859514   0.000000
   46       37.643667   0.000000
   47       37.904638   0.000000
   48       37.913485   0.000000
 
  0.2222222E+00  0.2222222E+00  0.0000000E+00  0.1646091E-01
    1        1.507849   1.000000
    2        3.812167   1.000000
    3        3.867931   1.000000
    4        3.867931   1.000000
    5        4.167502   1.000000
    6        4.167502   1.000000
    7        4.444823   1.000000
    8        5.606875   1.000000
    9        6.417075   1.000000
   10        6.444410   1.000000
   11        7.012640   1.000000
   12        7.012640   1.000000
   13        7.297905   1.000000
   14        7.443845   1.000000
   15        8.106552   1.000000
   16        8.351131   1.000000
   17        8.695571   1.000000
   18        8.695571   1.000000
   19        9.051359   1.000000
   20        9.051359   1.000000
   21        9.253888   1.000000
   22       11.642381  -0.001720
   23       11.642381  -0.001720
   24       15.707441   0.000000
   25       16.034046   0.000000
   26       19.672031   0.000000
   27       20.139266   0.000000
   28       20.139266   0.000000
   29       22.131990   0.000000
   30       22.131990   0.000000
   31       23.374276   0.000000
   32       23.374276   0.000000
   33       24.053743   0.000000
   34       26.525147   0.000000
   35       26.903202   0.000000
   36       29.896433   0.000000
   37       30.153562   0.000000
   38       31.611772   0.000000
   39       31.611772   0.000000
   40       32.381747   0.000000
   41       32.381747   0.000000
   42       32.784116   0.000000
   43       33.506320   0.000000
   44       35.690008   0.000000
   45       38.157450   0.000000
   46       38.394331   0.000000
   47       38.488233   0.000000
   48       38.488233   0.000000
 
  0.3333333E+00  0.2222222E+00  0.0000000E+00  0.3292181E-01
    1        2.172762   1.000000
    2        3.983071   1.000000
    3        4.113467   1.000000
    4        4.348334   1.000000
    5        4.408784   1.000000
    6        4.584564   1.000000
    7        4.860269   1.000000
    8        5.374929   1.000000
    9        6.088054   1.000000
   10        6.368737   1.000000
   11        6.438324   1.000000
   12        6.591141   1.000000
   13        6.742539   1.000000
   14        7.304054   1.000000
   15        7.961430   1.000000
   16        8.244333   1.000000
   17        8.379186   1.000000
   18        8.434682   1.000000
   19        8.442471   1.000000
   20        9.044692   1.000000
   21        9.109399   1.000000
   22       10.379126   1.000000
   23       12.724486  -0.000000
   24       15.144057   0.000000
   25       17.052173   0.000000
   26       19.292865   0.000000
   27       19.374760   0.000000
   28       21.145157   0.000000
   29       21.715510   0.000000
   30       23.438421   0.000000
   31       23.619572   0.000000
   32       24.666928   0.000000
   33       25.305831   0.000000
   34       25.426453   0.000000
   35       26.952942   0.000000
   36       29.814523   0.000000
   37       30.214418   0.000000
   38       31.128187   0.000000
   39       31.701833   0.000000
   40       31.729775   0.000000
   41       32.923591   0.000000
   42       33.084802   0.000000
   43       34.339670   0.000000
   44       37.292262   0.000000
   45       37.307179   0.000000
   46       37.531779   0.000000
   47       38.047486   0.000000
   48       38.114643   0.000000
 
  0.4444444E+00  0.2222222E+00  0.0000000E+00  0.3292181E-01
    1        2.981134   1.000000
    2        3.706398   1.000000
    3        4.554079   1.000000
    4        4.715705   1.000000
    5        4.777380   1.000000
    6        5.054249   1.000000
    7        5.136739   1.000000
    8        5.150033   1.000000
    9        5.357382   1.000000
   10        5.837032   1.000000
   11        6.086306   1.000000
   12        6.251867   1.000000
   13        7.208801   1.000000
   14        7.455910   1.000000
   15        7.675768   1.000000
   16        7.792060   1.000000
   17        7.805942   1.000000
   18        7.890112   1.000000
   19        8.913967   1.000000
   20        9.042261   1.000000
   21        9.055621   1.000000
   22        9.519312   1.000000
   23       13.631928  -0.000000
   24       14.387973   0.000000
   25       18.490308   0.000000
   26       19.013093   0.000000
   27       19.033558   0.000000
   28       19.893187   0.000000
   29       23.143017   0.000000
   30       23.985688   0.000000
   31       24.367163   0.000000
   32       24.444200   0.000000
   33       24.910644   0.000000
   34       26.237258   0.000000
   35       27.278867   0.000000
   36       29.120809   0.000000
   37       30.182010   0.000000
   38       30.931010   0.000000
   39       31.258125   0.000000
   40       32.517936   0.000000
   41       32.655817   0.000000
   42       34.169232   0.000000
   43       34.601566   0.000000
   44       35.614036   0.000000
   45       35.850467   0.000000
   46       37.049683   0.000000
   47       38.377998   0.000000
   48       39.229507   0.000000
 
  0.3333333E+00  0.3333333E+00  0.0000000E+00  0.1646091E-01
    1        2.756263   1.000000
    2        4.280570   1.000000
    3        4.498653   1.000000
    4        4.498653   1.000000
    5        4.764592   1.000000
    6        4.764592   1.000000
    7        5.207691   1.000000
    8        5.336815   1.000000
    9        5.646250   1.000000
   10        5.646250   1.000000
   11        6.232673   1.000000
   12        6.336393   1.000000
   13        6.915986   1.000000
   14        7.163402   1.000000
   15        7.694717   1.000000
   16        8.007347   1.000000
   17        8.007347   1.000000
   18        8.433347   1.000000
   19        8.433347   1.000000
   20        8.753667   1.000000
   21        8.939147   1.000000
   22       11.362046   0.806472
   23       11.362046   0.806472
   24       14.022427  -0.000000
   25       18.305865   0.000000
   26       19.170377   0.000000
   27       20.490353   0.000000
   28       20.490353   0.000000
   29       22.372919   0.000000
   30       22.372919   0.000000
   31       24.084075   0.000000
   32       25.586354   0.000000
   33       25.586354   0.000000
   34       26.196496   0.000000
   35       26.532973   0.000000
   36       29.036595   0.000000
   37       30.116390   0.000000
   38       30.439145   0.000000
   39       32.511767   0.000000
   40       32.511767   0.000000
   41       32.633884   0.000000
   42       32.633884   0.000000
   43       34.815545   0.000000
   44       37.177837   0.000000
   45       37.293103   0.000000
   46       37.926800   0.000000
   47       38.364943   0.000000
   48       38.364945   0.000000
 
  0.4444444E+00  0.3333333E+00  0.0000000E+00  0.3292181E-01
    1        3.462428   1.000000
    2        4.149161   1.000000
    3        4.576627   1.000000
    4        4.926002   1.000000
    5        4.980575   1.000000
    6        5.177729   1.000000
    7        5.190737   1.000000
    8        5.227278   1.000000
    9        5.369422   1.000000
   10        5.720678   1.000000
   11        5.745402   1.000000
   12        6.087257   1.000000
   13        7.221299   1.000000
   14        7.284463   1.000000
   15        7.485557   1.000000
   16        7.582457   1.000000
   17        7.627201   1.000000
   18        7.814413   1.000000
   19        8.458348   1.000000
   20        8.546710   1.000000
   21        9.580633   1.000000
   22       10.353595   1.000000
   23       12.260592  -0.000000
   24       13.102641  -0.000000
   25       19.257535   0.000000
   26       19.669518   0.000000
   27       19.693711   0.000000
   28       21.086337   0.000000
   29       21.645744   0.000000
   30       22.846959   0.000000
   31       23.755491   0.000000
   32       25.091543   0.000000
   33       26.073623   0.000000
   34       26.737625   0.000000
   35       27.384033   0.000000
   36       28.807404   0.000000
   37       29.778703   0.000000
   38       31.209483   0.000000
   39       31.469082   0.000000
   40       31.986978   0.000000
   41       32.931320   0.000000
   42       33.894028   0.000000
   43       34.096443   0.000000
   44       35.492736   0.000000
   45       37.537938   0.000000
   46       38.104320   0.000000
   47       38.436992   0.000000
   48       38.810225   0.000000
 
  0.4444444E+00  0.4444444E+00  0.0000000E+00  0.1646091E-01
    1        3.991906   1.000000
    2        4.482320   1.000000
    3        4.482320   1.000000
    4        4.570438   1.000000
    5        5.281130   1.000000
    6        5.286118   1.000000
    7        5.286118   1.000000
    8        5.560760   1.000000
    9        5.599937   1.000000
   10        5.619923   1.000000
   11        5.619923   1.000000
   12        5.954755   1.000000
   13        7.061777   1.000000
   14        7.235173   1.000000
   15        7.271976   1.000000
   16        7.271976   1.000000
   17        7.505515   1.000000
   18        7.911032   1.000000
   19        7.911032   1.000000
   20        8.144632   1.000000
   21       10.345938   1.000000
   22       11.203909   1.008650
   23       11.203909   1.008650
   24       12.080714  -0.000000
   25       19.713822   0.000000
   26       20.498493   0.000000
   27       20.498493   0.000000
   28       21.052934   0.000000
   29       21.558214   0.000000
   30       22.439650   0.000000
   31       22.439650   0.000000
   32       23.808600   0.000000
   33       27.734951   0.000000
   34       27.734951   0.000000
   35       28.273684   0.000000
   36       28.451167   0.000000
   37       29.434812   0.000000
   38       31.367883   0.000000
   39       31.367883   0.000000
   40       32.293283   0.000000
   41       32.522697   0.000000
   42       33.267385   0.000000
   43       33.267385   0.000000
   44       34.620381   0.000000
   45       37.927571   0.000000
   46       38.393638   0.000000
   47       38.393638   0.000000
   48       38.405654   0.000000
 
  0.1111111E+00  0.1111111E+00  0.1111111E+00  0.1097394E-01
    1        0.778124   1.000000
    2        3.470930   1.000000
    3        3.470930   1.000000
    4        3.470930   1.000000
    5        3.850080   1.000000
    6        3.850080   1.000000
    7        3.850080   1.000000
    8        5.879150   1.000000
    9        6.196088   1.000000
   10        6.196088   1.000000
   11        7.794126   1.000000
   12        7.794126   1.000000
   13        8.420428   1.000000
   14        8.420428   1.000000
   15        8.420428   1.000000
   16        8.832791   1.000000
   17        8.832791   1.000000
   18        8.832791   1.000000
   19        9.542799   1.000000
   20        9.542799   1.000000
   21        9.542799   1.000000
   22       12.477497  -0.000000
   23       12.477497  -0.000000
   24       12.477497  -0.000000
   25       18.564452   0.000000
   26       18.564452   0.000000
   27       18.564452   0.000000
   28       21.330623   0.000000
   29       21.330623   0.000000
   30       21.330623   0.000000
   31       22.608148   0.000000
   32       22.608148   0.000000
   33       22.608148   0.000000
   34       26.245234   0.000000
   35       28.069570   0.000000
   36       30.362791   0.000000
   37       30.362791   0.000000
   38       30.362791   0.000000
   39       30.906442   0.000000
   40       30.906442   0.000000
   41       32.919038   0.000000
   42       32.919038   0.000000
   43       32.919038   0.000000
   44       36.514864   0.000000
   45       39.151766   0.000000
   46       39.217017   0.000000
   47       39.217276   0.000000
   48       39.219035   0.000000
 
  0.2222222E+00  0.1111111E+00  0.1111111E+00  0.3292181E-01
    1        1.220554   1.000000
    2        3.614381   1.000000
    3        3.720515   1.000000
    4        3.720515   1.000000
    5        4.024975   1.000000
    6        4.162202   1.000000
    7        4.162202   1.000000
    8        5.699068   1.000000
    9        6.348768   1.000000
   10        6.360792   1.000000
   11        7.519777   1.000000
   12        7.519777   1.000000
   13        7.575017   1.000000
   14        7.753458   1.000000
   15        7.959111   1.000000
   16        8.456073   1.000000
   17        8.533000   1.000000
   18        8.533000   1.000000
   19        9.404836   1.000000
   20        9.475147   1.000000
   21        9.475147   1.000000
   22       10.928389   1.000000
   23       13.567561  -0.000000
   24       13.567561  -0.000000
   25       17.800953   0.000000
   26       17.800953   0.000000
   27       20.323246   0.000000
   28       20.958504   0.000000
   29       20.958504   0.000000
   30       22.865169   0.000000
   31       22.983238   0.000000
   32       22.983238   0.000000
   33       23.492053   0.000000
   34       26.581083   0.000000
   35       27.134970   0.000000
   36       30.005203   0.000000
   37       30.666924   0.000000
   38       30.845203   0.000000
   39       30.845203   0.000000
   40       31.524137   0.000000
   41       32.538102   0.000000
   42       33.993269   0.000000
   43       33.993269   0.000000
   44       35.375614   0.000000
   45       37.354187   0.000000
   46       38.480415   0.000000
   47       38.480442   0.000000
   48       38.899359   0.000000
 
  0.3333333E+00  0.1111111E+00  0.1111111E+00  0.3292181E-01
    1        1.911186   1.000000
    2        3.706433   1.000000
    3        4.113464   1.000000
    4        4.113464   1.000000
    5        4.297822   1.000000
    6        4.607111   1.000000
    7        4.607111   1.000000
    8        5.383677   1.000000
    9        6.527597   1.000000
   10        6.578987   1.000000
   11        6.578987   1.000000
   12        6.634207   1.000000
   13        6.935206   1.000000
   14        7.424305   1.000000
   15        7.969987   1.000000
   16        8.109408   1.000000
   17        8.109408   1.000000
   18        8.212171   1.000000
   19        9.164077   1.000000
   20        9.412159   1.000000
   21        9.412159   1.000000
   22        9.561325   1.000000
   23       14.669727   0.000000
   24       14.669727   0.000000
   25       17.148226   0.000000
   26       17.148226   0.000000
   27       20.616558   0.000000
   28       20.616558   0.000000
   29       22.021474   0.000000
   30       22.934590   0.000000
   31       22.934590   0.000000
   32       24.836129   0.000000
   33       25.081161   0.000000
   34       25.880597   0.000000
   35       27.532748   0.000000
   36       29.676705   0.000000
   37       29.799890   0.000000
   38       31.078447   0.000000
   39       31.656319   0.000000
   40       31.656319   0.000000
   41       32.061289   0.000000
   42       34.474448   0.000000
   43       35.426717   0.000000
   44       35.426717   0.000000
   45       36.519980   0.000000
   46       37.549610   0.000000
   47       37.549611   0.000000
   48       37.753998   0.000000
 
  0.4444444E+00  0.1111111E+00  0.1111111E+00  0.3292181E-01
    1        2.742207   1.000000
    2        3.453156   1.000000