       N       E                     dE             d eps       ncg     rms          rms(c)
DAV:   1     0.188177962138E+03    0.18818E+03   -0.18712E+04  3408   0.724E+02
DAV:   2    -0.103838912106E+02   -0.19856E+03   -0.18824E+03  4512   0.186E+02
DAV:   3    -0.129755804412E+02   -0.25917E+01   -0.25896E+01  4488   0.209E+01
DAV:   4    -0.129855870549E+02   -0.10007E-01   -0.10006E-01  4608   0.147E+00
DAV:   5    -0.129856687856E+02   -0.81731E-04   -0.81731E-04  4320   0.130E-01    0.263E+01
DAV:   6    -0.120590781181E+02    0.92659E+00   -0.13883E+00  4176   0.603E+00    0.159E+01
DAV:   7    -0.119504657309E+02    0.10861E+00   -0.34814E-01  4416   0.303E+00    0.438E+00
DAV:   8    -0.119358445994E+02    0.14621E-01   -0.37351E-02  4224   0.952E-01    0.594E-01
DAV:   9    -0.119358016280E+02    0.42971E-04   -0.13769E-04  4296   0.561E-02
   1 F= -.11935802E+02 E0= -.11935239E+02  d E =-.168720E-02
