 vasp.5.4.1 05Feb16 (build Feb 08 2018 09:21:51) complex                        
  
 executed on             LinuxIFC date 2019.11.21  15:55:07
 running on   24 total cores
 distrk:  each k-point on   24 cores,    1 groups
 distr:  one band on NCORES_PER_BAND=   1 cores,   24 groups


--------------------------------------------------------------------------------------------------------


 INCAR:
 POTCAR:    PAW_PBE Au 04Oct2007                  

 ----------------------------------------------------------------------------- 
|                                                                             |
|           W    W    AA    RRRRR   N    N  II  N    N   GGGG   !!!           |
|           W    W   A  A   R    R  NN   N  II  NN   N  G    G  !!!           |
|           W    W  A    A  R    R  N N  N  II  N N  N  G       !!!           |
|           W WW W  AAAAAA  RRRRR   N  N N  II  N  N N  G  GGG   !            |
|           WW  WW  A    A  R   R   N   NN  II  N   NN  G    G                |
|           W    W  A    A  R    R  N    N  II  N    N   GGGG   !!!           |
|                                                                             |
|      For optimal performance we recommend to set                            |
|        NCORE= 4 - approx SQRT( number of cores)                             |
|      NCORE specifies how many cores store one orbital (NPAR=cpu/NCORE).     |
|      This setting can  greatly improve the performance of VASP for DFT.     |
|      The default, NPAR=number of cores might be grossly inefficient         |
|      on modern multi-core architectures or massively parallel machines.     |
|      Do your own testing !!!!                                               |
|      Unfortunately you need to use the default for GW and RPA calculations. |
|      (for HF NCORE is supported but not extensively tested yet)             |
|                                                                             |
 ----------------------------------------------------------------------------- 

 POTCAR:    PAW_PBE Au 04Oct2007                  
   VRHFIN =Au: s1d10                                                            
   LEXCH  = PE                                                                  
   EATOM  =   926.0867 eV,   68.0654 Ry                                         
                                                                                
   TITEL  = PAW_PBE Au 04Oct2007                                                
   LULTRA =        F    use ultrasoft PP ?                                      
   IUNSCR =        1    unscreen: 0-lin 1-nonlin 2-no                           
   RPACOR =    2.330    partial core radius                                     
   POMASS =  196.966; ZVAL   =   11.000    mass and valenz                      
   RCORE  =    2.500    outmost cutoff radius                                   
   RWIGS  =    2.840; RWIGS  =    1.503    wigner-seitz radius (au A)           
   ENMAX  =  229.943; ENMIN  =  172.457 eV                                      
   ICORE  =        3    local potential                                         
   LCOR   =        T    correct aug charges                                     
   LPAW   =        T    paw PP                                                  
   EAUG   =  356.670                                                            
   DEXC   =    0.000                                                            
   RMAX   =    2.562    core radius for proj-oper                               
   RAUG   =    1.300    factor for augmentation sphere                          
   RDEP   =    2.598    radius for radial grids                                 
   RDEPT  =    2.193    core radius for aug-charge                              
                                                                                
   Atomic configuration                                                         
   16 entries                                                                   
     n  l   j            E        occ.                                          
     1  0  0.50    -80748.5001   2.0000                                         
     2  0  0.50    -14244.7466   2.0000                                         
     2  1  1.50    -12310.9591   6.0000                                         
     3  0  0.50     -3362.1768   2.0000                                         
     3  1  1.50     -2801.5463   6.0000                                         
     3  2  2.50     -2203.8206  10.0000                                         
     4  0  0.50      -729.8168   2.0000                                         
     4  1  1.50      -546.0527   6.0000                                         
     4  2  2.50      -325.7302  10.0000                                         
     4  3  3.50       -81.1472  14.0000                                         
     5  0  0.50      -108.3201   2.0000                                         
     5  1  1.50       -59.7479   6.0000                                         
     5  2  2.50        -6.8783  10.0000                                         
     6  0  0.50        -5.7602   1.0000                                         
     6  1  1.50        -6.8029   0.0000                                         
     5  3  2.50        -1.3606   0.0000                                         
   Description                                                                  
     l       E           TYP  RCUT    TYP  RCUT                                 
     2     -6.8782861     23  2.500                                             
     2     -8.2388687     23  2.500                                             
     0     -5.7601759     23  2.500                                             
     0     -0.8493231     23  2.500                                             
     1     -2.7211652     23  2.500                                             
     1     27.2116520     23  2.500                                             
     3     -1.3605826     23  2.500                                             
  local pseudopotential read in
  partial core-charges read in
  partial kinetic energy density read in
  atomic valenz-charges read in
  non local Contribution for L=           2  read in
    real space projection operators read in
  non local Contribution for L=           2  read in
    real space projection operators read in
  non local Contribution for L=           0  read in
    real space projection operators read in
  non local Contribution for L=           0  read in
    real space projection operators read in
  non local Contribution for L=           1  read in
    real space projection operators read in
  non local Contribution for L=           1  read in
    real space projection operators read in
    PAW grid and wavefunctions read in
 
   number of l-projection  operators is LMAX  =           6
   number of lm-projection operators is LMMAX =          18
 
  PAW_PBE Au 04Oct2007                  :
 energy of atom  1       EATOM= -926.0867
 kinetic energy error for atom=    0.0062 (will be added to EATOM!!)
 
 
 POSCAR: Au                                      
  positions in cartesian coordinates
  No initial velocities read in
 exchange correlation table for  LEXCH =        8
   RHO(1)=    0.500       N(1)  =     2000
   RHO(2)=  100.500       N(2)  =     4000
 


--------------------------------------------------------------------------------------------------------


 ion  position               nearest neighbor table
   1  0.000  0.000  0.000-   2 2.79   3 2.79   4 2.79   2 2.79   3 2.79   2 2.79   4 2.79   2 2.79
                             3 2.79   4 2.79   3 2.79   4 2.79
   2  0.000  0.500  0.500-   1 2.79   3 2.79   4 2.79   1 2.79   4 2.79   1 2.79   3 2.79   1 2.79
                             3 2.79   4 2.79   4 2.79   3 2.79
   3  0.500  0.000  0.500-   1 2.79   2 2.79   4 2.79   1 2.79   4 2.79   2 2.79   4 2.79   4 2.79
                             1 2.79   2 2.79   1 2.79   2 2.79
   4  0.500  0.500  0.000-   1 2.79   2 2.79   3 2.79   2 2.79   3 2.79   1 2.79   3 2.79   3 2.79
                             1 2.79   2 2.79   2 2.79   1 2.79
 
  LATTYP: Found a simple cubic cell.
 ALAT       =     3.9440000000
  
  Lattice vectors:
  
 A1 = (   3.9440000000,   0.0000000000,   0.0000000000)
 A2 = (   0.0000000000,   3.9440000000,   0.0000000000)
 A3 = (   0.0000000000,   0.0000000000,   3.9440000000)


Analysis of symmetry for initial positions (statically):
=====================================================================
 Subroutine PRICEL returns following result:
 
  LATTYP: Found a face centered cubic cell.
 ALAT       =     3.9440000000
  
  Lattice vectors:
  
 A1 = (   1.9720000000,   1.9720000000,   0.0000000000)
 A2 = (   1.9720000000,   0.0000000000,  -1.9720000000)
 A3 = (   0.0000000000,   1.9720000000,  -1.9720000000)
 
   4 primitive cells build up your supercell.
 

 Routine SETGRP: Setting up the symmetry group for a 
 simple cubic supercell.


 Subroutine GETGRP returns: Found 48 space group operations
 (whereof 48 operations were pure point group operations)
 out of a pool of 48 trial point group operations.


The static configuration has the point symmetry O_h .


Analysis of symmetry for dynamics (positions and initial velocities):
=====================================================================
 Subroutine PRICEL returns following result:
 
  LATTYP: Found a face centered cubic cell.
 ALAT       =     3.9440000000
  
  Lattice vectors:
  
 A1 = (   1.9720000000,   1.9720000000,   0.0000000000)
 A2 = (   1.9720000000,   0.0000000000,  -1.9720000000)
 A3 = (   0.0000000000,   1.9720000000,  -1.9720000000)
 
   4 primitive cells build up your supercell.
 

 Routine SETGRP: Setting up the symmetry group for a 
 simple cubic supercell.


 Subroutine GETGRP returns: Found 48 space group operations
 (whereof 48 operations were pure point group operations)
 out of a pool of 48 trial point group operations.


The dynamic configuration has the point symmetry O_h .


 Subroutine INISYM returns: Found 48 space group operations
 (whereof 48 operations are pure point group operations),
 and found     4 'primitive' translations

 
 
 KPOINTS: KPOINTS created by Atomic Simulation Env

Automatic generation of k-mesh.
Space group operators:
 irot       det(A)        alpha          n_x          n_y          n_z        tau_x        tau_y        tau_z
    1     1.000000     0.000001     1.000000     0.000000     0.000000     0.000000     0.000000     0.000000
    2    -1.000000     0.000001     1.000000     0.000000     0.000000     0.000000     0.000000     0.000000
    3     1.000000   120.000000    -0.577350    -0.577350    -0.577350     0.000000     0.000000     0.000000
    4    -1.000000   120.000000    -0.577350    -0.577350    -0.577350     0.000000     0.000000     0.000000
    5     1.000000   120.000000     0.577350     0.577350     0.577350     0.000000     0.000000     0.000000
    6    -1.000000   120.000000     0.577350     0.577350     0.577350     0.000000     0.000000     0.000000
    7     1.000000    90.000000     0.000000     0.000000    -1.000000     0.000000     0.000000     0.000000
    8    -1.000000    90.000000     0.000000     0.000000    -1.000000     0.000000     0.000000     0.000000
    9     1.000000   180.000000     0.000000     0.707107     0.707107     0.000000     0.000000     0.000000
   10    -1.000000   180.000000     0.000000     0.707107     0.707107     0.000000     0.000000     0.000000
   11     1.000000    90.000000     0.000000     1.000000     0.000000     0.000000     0.000000     0.000000
   12    -1.000000    90.000000     0.000000     1.000000     0.000000     0.000000     0.000000     0.000000
   13     1.000000   180.000000     0.000000     0.000000     1.000000     0.000000     0.000000     0.000000
   14    -1.000000   180.000000     0.000000     0.000000     1.000000     0.000000     0.000000     0.000000
   15     1.000000   120.000000    -0.577350     0.577350     0.577350     0.000000     0.000000     0.000000
   16    -1.000000   120.000000    -0.577350     0.577350     0.577350     0.000000     0.000000     0.000000
   17     1.000000   120.000000    -0.577350     0.577350    -0.577350     0.000000     0.000000     0.000000
   18    -1.000000   120.000000    -0.577350     0.577350    -0.577350     0.000000     0.000000     0.000000
   19     1.000000    90.000000     0.000000     0.000000     1.000000     0.000000     0.000000     0.000000
   20    -1.000000    90.000000     0.000000     0.000000     1.000000     0.000000     0.000000     0.000000
   21     1.000000    90.000000    -1.000000     0.000000     0.000000     0.000000     0.000000     0.000000
   22    -1.000000    90.000000    -1.000000     0.000000     0.000000     0.000000     0.000000     0.000000
   23     1.000000   180.000000     0.707107     0.000000     0.707107     0.000000     0.000000     0.000000
   24    -1.000000   180.000000     0.707107     0.000000     0.707107     0.000000     0.000000     0.000000
   25     1.000000   120.000000     0.577350    -0.577350     0.577350     0.000000     0.000000     0.000000
   26    -1.000000   120.000000     0.577350    -0.577350     0.577350     0.000000     0.000000     0.000000
   27     1.000000   120.000000    -0.577350    -0.577350     0.577350     0.000000     0.000000     0.000000
   28    -1.000000   120.000000    -0.577350    -0.577350     0.577350     0.000000     0.000000     0.000000
   29     1.000000   180.000000     1.000000     0.000000     0.000000     0.000000     0.000000     0.000000
   30    -1.000000   180.000000     1.000000     0.000000     0.000000     0.000000     0.000000     0.000000
   31     1.000000    90.000000     0.000000    -1.000000     0.000000     0.000000     0.000000     0.000000
   32    -1.000000    90.000000     0.000000    -1.000000     0.000000     0.000000     0.000000     0.000000
   33     1.000000   180.000000     0.707107     0.707107     0.000000     0.000000     0.000000     0.000000
   34    -1.000000   180.000000     0.707107     0.707107     0.000000     0.000000     0.000000     0.000000
   35     1.000000    90.000000     1.000000     0.000000     0.000000     0.000000     0.000000     0.000000
   36    -1.000000    90.000000     1.000000     0.000000     0.000000     0.000000     0.000000     0.000000
   37     1.000000   120.000000     0.577350    -0.577350    -0.577350     0.000000     0.000000     0.000000
   38    -1.000000   120.000000     0.577350    -0.577350    -0.577350     0.000000     0.000000     0.000000
   39     1.000000   180.000000     0.000000     1.000000     0.000000     0.000000     0.000000     0.000000
   40    -1.000000   180.000000     0.000000     1.000000     0.000000     0.000000     0.000000     0.000000
   41     1.000000   120.000000     0.577350     0.577350    -0.577350     0.000000     0.000000     0.000000
   42    -1.000000   120.000000     0.577350     0.577350    -0.577350     0.000000     0.000000     0.000000
   43     1.000000   180.000000     0.000000    -0.707107     0.707107     0.000000     0.000000     0.000000
   44    -1.000000   180.000000     0.000000    -0.707107     0.707107     0.000000     0.000000     0.000000
   45     1.000000   180.000000     0.707107    -0.707107     0.000000     0.000000     0.000000     0.000000
   46    -1.000000   180.000000     0.707107    -0.707107     0.000000     0.000000     0.000000     0.000000
   47     1.000000   180.000000     0.707107     0.000000    -0.707107     0.000000     0.000000     0.000000
   48    -1.000000   180.000000     0.707107     0.000000    -0.707107     0.000000     0.000000     0.000000
 
 Subroutine IBZKPT returns following result:
 ===========================================
 
 Found     35 irreducible k-points:
 
 Following reciprocal coordinates:
            Coordinates               Weight
  0.000000  0.000000  0.000000      1.000000
  0.111111  0.000000  0.000000      6.000000
  0.222222  0.000000  0.000000      6.000000
  0.333333  0.000000  0.000000      6.000000
  0.444444  0.000000  0.000000      6.000000
  0.111111  0.111111  0.000000     12.000000
  0.222222  0.111111  0.000000     24.000000
  0.333333  0.111111  0.000000     24.000000
  0.444444  0.111111  0.000000     24.000000
  0.222222  0.222222  0.000000     12.000000
  0.333333  0.222222  0.000000     24.000000
  0.444444  0.222222  0.000000     24.000000
  0.333333  0.333333  0.000000     12.000000
  0.444444  0.333333  0.000000     24.000000
  0.444444  0.444444  0.000000     12.000000
  0.111111  0.111111  0.111111      8.000000
  0.222222  0.111111  0.111111     24.000000
  0.333333  0.111111  0.111111     24.000000
  0.444444  0.111111  0.111111     24.000000
  0.222222  0.222222  0.111111     24.000000
  0.333333  0.222222  0.111111     48.000000
  0.444444  0.222222  0.111111     48.000000
  0.333333  0.333333  0.111111     24.000000
  0.444444  0.333333  0.111111     48.000000
  0.444444  0.444444  0.111111     24.000000
  0.222222  0.222222  0.222222      8.000000
  0.333333  0.222222  0.222222     24.000000
  0.444444  0.222222  0.222222     24.000000
  0.333333  0.333333  0.222222     24.000000
  0.444444  0.333333  0.222222     48.000000
  0.444444  0.444444  0.222222     24.000000
  0.333333  0.333333  0.333333      8.000000
  0.444444  0.333333  0.333333     24.000000
  0.444444  0.444444  0.333333     24.000000
  0.444444  0.444444  0.444444      8.000000
 
 Following cartesian coordinates:
            Coordinates               Weight
  0.000000  0.000000  0.000000      1.000000
  0.028172  0.000000  0.000000      6.000000
  0.056344  0.000000  0.000000      6.000000
  0.084517  0.000000  0.000000      6.000000
  0.112689  0.000000  0.000000      6.000000
  0.028172  0.028172  0.000000     12.000000
  0.056344  0.028172  0.000000     24.000000
  0.084517  0.028172  0.000000     24.000000
  0.112689  0.028172  0.000000     24.000000
  0.056344  0.056344  0.000000     12.000000
  0.084517  0.056344  0.000000     24.000000
  0.112689  0.056344  0.000000     24.000000
  0.084517  0.084517  0.000000     12.000000
  0.112689  0.084517  0.000000     24.000000
  0.112689  0.112689  0.000000     12.000000
  0.028172  0.028172  0.028172      8.000000
  0.056344  0.028172  0.028172     24.000000
  0.084517  0.028172  0.028172     24.000000
  0.112689  0.028172  0.028172     24.000000
  0.056344  0.056344  0.028172     24.000000
  0.084517  0.056344  0.028172     48.000000
  0.112689  0.056344  0.028172     48.000000
  0.084517  0.084517  0.028172     24.000000
  0.112689  0.084517  0.028172     48.000000
  0.112689  0.112689  0.028172     24.000000
  0.056344  0.056344  0.056344      8.000000
  0.084517  0.056344  0.056344     24.000000
  0.112689  0.056344  0.056344     24.000000
  0.084517  0.084517  0.056344     24.000000
  0.112689  0.084517  0.056344     48.000000
  0.112689  0.112689  0.056344     24.000000
  0.084517  0.084517  0.084517      8.000000
  0.112689  0.084517  0.084517     24.000000
  0.112689  0.112689  0.084517     24.000000
  0.112689  0.112689  0.112689      8.000000
 


--------------------------------------------------------------------------------------------------------




 Dimension of arrays:
   k-points           NKPTS =     35   k-points in BZ     NKDIM =     35   number of bands    NBANDS=     48
   number of dos      NEDOS =    301   number of ions     NIONS =      4
   non local maximal  LDIM  =      6   non local SUM 2l+1 LMDIM =     18
   total plane-waves  NPLWV =   8000
   max r-space proj   IRMAX =      1   max aug-charges    IRDMAX=   8173
   dimension x,y,z NGX =    20 NGY =   20 NGZ =   20
   dimension x,y,z NGXF=    40 NGYF=   40 NGZF=   40
   support grid    NGXF=    40 NGYF=   40 NGZF=   40
   ions per type =               4
 NGX,Y,Z   is equivalent  to a cutoff of   8.43,  8.43,  8.43 a.u.
 NGXF,Y,Z  is equivalent  to a cutoff of  16.86, 16.86, 16.86 a.u.


 I would recommend the setting:
   dimension x,y,z NGX =    19 NGY =   19 NGZ =   19
 SYSTEM =  unknown system                          
 POSCAR =  Au                                      

 Startparameter for this run:
   NWRITE =      2    write-flag & timer
   PREC   = normal    normal or accurate (medium, high low for compatibility)
   ISTART =      0    job   : 0-new  1-cont  2-samecut
   ICHARG =      2    charge: 1-file 2-atom 10-const
   ISPIN  =      1    spin polarized calculation?
   LNONCOLLINEAR =      F non collinear calculations
   LSORBIT =      F    spin-orbit coupling
   INIWAV =      1    electr: 0-lowe 1-rand  2-diag
   LASPH  =      F    aspherical Exc in radial PAW
   METAGGA=      F    non-selfconsistent MetaGGA calc.

 Electronic Relaxation 1
   ENCUT  =  400.0 eV  29.40 Ry    5.42 a.u.   6.43  6.43  6.43*2*pi/ulx,y,z
   ENINI  =  400.0     initial cutoff
   ENAUG  =  356.7 eV  augmentation charge cutoff
   NELM   =     60;   NELMIN=  2; NELMDL= -5     # of ELM steps 
   EDIFF  = 0.1E-03   stopping-criterion for ELM
   LREAL  =      F    real-space projection
   NLSPLINE    = F    spline interpolate recip. space projectors
   LCOMPAT=      F    compatible to vasp.4.4
   GGA_COMPAT  = T    GGA compatible to vasp.4.4-vasp.4.6
   LMAXPAW     = -100 max onsite density
   LMAXMIX     =    2 max onsite mixed and CHGCAR
   VOSKOWN=      0    Vosko Wilk Nusair interpolation
   ROPT   =    0.00000
 Ionic relaxation
   EDIFFG = 0.1E-02   stopping-criterion for IOM
   NSW    =      0    number of steps for IOM
   NBLOCK =      1;   KBLOCK =      1    inner block; outer block 
   IBRION =     -1    ionic relax: 0-MD 1-quasi-New 2-CG
   NFREE  =      0    steps in history (QN), initial steepest desc. (CG)
   ISIF   =      2    stress and relaxation
   IWAVPR =     10    prediction:  0-non 1-charg 2-wave 3-comb
   ISYM   =      2    0-nonsym 1-usesym 2-fastsym
   LCORR  =      T    Harris-Foulkes like correction to forces

   POTIM  = 0.5000    time-step for ionic-motion
   TEIN   =    0.0    initial temperature
   TEBEG  =    0.0;   TEEND  =   0.0 temperature during run
   SMASS  =  -3.00    Nose mass-parameter (am)
   estimated Nose-frequenzy (Omega)   =  0.10E-29 period in steps =****** mass=  -0.355E-27a.u.
   SCALEE = 1.0000    scale energy and forces
   NPACO  =    256;   APACO  = 16.0  distance and # of slots for P.C.
   PSTRESS=    0.0 pullay stress

  Mass of Ions in am
   POMASS = 196.97
  Ionic Valenz
   ZVAL   =  11.00
  Atomic Wigner-Seitz radii
   RWIGS  =  -1.00
  virtual crystal weights 
   VCA    =   1.00
   NELECT =      44.0000    total number of electrons
   NUPDOWN=      -1.0000    fix difference up-down

 DOS related values:
   EMIN   =  10.00;   EMAX   =-10.00  energy-range for DOS
   EFERMI =   0.00
   ISMEAR =     1;   SIGMA  =   0.10  broadening in eV -4-tet -1-fermi 0-gaus

 Electronic relaxation 2 (details)
   IALGO  =     38    algorithm
   LDIAG  =      T    sub-space diagonalisation (order eigenvalues)
   LSUBROT=      F    optimize rotation matrix (better conditioning)
   TURBO    =      0    0=normal 1=particle mesh
   IRESTART =      0    0=no restart 2=restart with 2 vectors
   NREBOOT  =      0    no. of reboots
   NMIN     =      0    reboot dimension
   EREF     =   0.00    reference energy to select bands
   IMIX   =      4    mixing-type and parameters
     AMIX     =   0.40;   BMIX     =  1.00
     AMIX_MAG =   1.60;   BMIX_MAG =  1.00
     AMIN     =   0.10
     WC   =   100.;   INIMIX=   1;  MIXPRE=   1;  MAXMIX= -45

 Intra band minimization:
   WEIMIN = 0.0000     energy-eigenvalue tresh-hold
   EBREAK =  0.52E-06  absolut break condition
   DEPER  =   0.30     relativ break condition  

   TIME   =   0.40     timestep for ELM

  volume/ion in A,a.u.               =      15.34       103.50
  Fermi-wavevector in a.u.,A,eV,Ry     =   1.465398  2.769200 29.217017  2.147390
  Thomas-Fermi vector in A             =   2.581259
 
 Write flags
   LWAVE  =      F    write WAVECAR
   LCHARG =      F    write CHGCAR
   LVTOT  =      F    write LOCPOT, total local potential
   LVHAR  =      F    write LOCPOT, Hartree potential only
   LELF   =      F    write electronic localiz. function (ELF)
   LORBIT =      0    0 simple, 1 ext, 2 COOP (PROOUT)


 Dipole corrections
   LMONO  =      F    monopole corrections only (constant potential shift)
   LDIPOL =      F    correct potential (dipole corrections)
   IDIPOL =      0    1-x, 2-y, 3-z, 4-all directions 
   EPSILON=  1.0000000 bulk dielectric constant

 Exchange correlation treatment:
   GGA     =    --    GGA type
   LEXCH   =     8    internal setting for exchange type
   VOSKOWN=      0    Vosko Wilk Nusair interpolation
   LHFCALC =     F    Hartree Fock is set to
   LHFONE  =     F    Hartree Fock one center treatment
   AEXX    =    0.0000 exact exchange contribution

 Linear response parameters
   LEPSILON=     F    determine dielectric tensor
   LRPA    =     F    only Hartree local field effects (RPA)
   LNABLA  =     F    use nabla operator in PAW spheres
   LVEL    =     F    velocity operator in full k-point grid
   LINTERFAST=   F  fast interpolation
   KINTER  =     0    interpolate to denser k-point grid
   CSHIFT  =0.1000    complex shift for real part using Kramers Kronig
   OMEGAMAX=  -1.0    maximum frequency
   DEG_THRESHOLD= 0.2000000E-02 threshold for treating states as degnerate
   RTIME   =    0.100 relaxation time in fs

 Orbital magnetization related:
   ORBITALMAG=     F  switch on orbital magnetization
   LCHIMAG   =     F  perturbation theory with respect to B field
   DQ        =  0.001000  dq finite difference perturbation B field



--------------------------------------------------------------------------------------------------------


 Static calculation
 charge density and potential will be updated during run
 non-spin polarized calculation
 Variant of blocked Davidson
 Davidson routine will perform the subspace rotation
 perform sub-space diagonalisation
    after iterative eigenvector-optimisation
 modified Broyden-mixing scheme, WC =      100.0
 initial mixing is a Kerker type mixing with AMIX =  0.4000 and BMIX =      1.0000
 Hartree-type preconditioning will be used
 using additional bands           26
 reciprocal scheme for non local part
 use partial core corrections
 calculate Harris-corrections to forces 
   (improved forces if not selfconsistent)
 use gradient corrections 
 use of overlap-Matrix (Vanderbilt PP)
 Methfessel and Paxton  Order N= 1 SIGMA  =   0.10


--------------------------------------------------------------------------------------------------------


  energy-cutoff  :      400.00
  volume of cell :       61.35
      direct lattice vectors                 reciprocal lattice vectors
     3.944000000  0.000000000  0.000000000     0.253549696  0.000000000  0.000000000
     0.000000000  3.944000000  0.000000000     0.000000000  0.253549696  0.000000000
     0.000000000  0.000000000  3.944000000     0.000000000  0.000000000  0.253549696

  length of vectors
     3.944000000  3.944000000  3.944000000     0.253549696  0.253549696  0.253549696


 
 k-points in units of 2pi/SCALE and weight: KPOINTS created by Atomic Simulation Env
   0.00000000  0.00000000  0.00000000       0.001
   0.02817219  0.00000000  0.00000000       0.008
   0.05634438  0.00000000  0.00000000       0.008
   0.08451657  0.00000000  0.00000000       0.008
   0.11268875  0.00000000  0.00000000       0.008
   0.02817219  0.02817219  0.00000000       0.016
   0.05634438  0.02817219  0.00000000       0.033
   0.08451657  0.02817219  0.00000000       0.033
   0.11268875  0.02817219  0.00000000       0.033
   0.05634438  0.05634438  0.00000000       0.016
   0.08451657  0.05634438  0.00000000       0.033
   0.11268875  0.05634438  0.00000000       0.033
   0.08451657  0.08451657  0.00000000       0.016
   0.11268875  0.08451657  0.00000000       0.033
   0.11268875  0.11268875  0.00000000       0.016
   0.02817219  0.02817219  0.02817219       0.011
   0.05634438  0.02817219  0.02817219       0.033
   0.08451657  0.02817219  0.02817219       0.033
   0.11268875  0.02817219  0.02817219       0.033
   0.05634438  0.05634438  0.02817219       0.033
   0.08451657  0.05634438  0.02817219       0.066
   0.11268875  0.05634438  0.02817219       0.066
   0.08451657  0.08451657  0.02817219       0.033
   0.11268875  0.08451657  0.02817219       0.066
   0.11268875  0.11268875  0.02817219       0.033
   0.05634438  0.05634438  0.05634438       0.011
   0.08451657  0.05634438  0.05634438       0.033
   0.11268875  0.05634438  0.05634438       0.033
   0.08451657  0.08451657  0.05634438       0.033
   0.11268875  0.08451657  0.05634438       0.066
   0.11268875  0.11268875  0.05634438       0.033
   0.08451657  0.08451657  0.08451657       0.011
   0.11268875  0.08451657  0.08451657       0.033
   0.11268875  0.11268875  0.08451657       0.033
   0.11268875  0.11268875  0.11268875       0.011
 
 k-points in reciprocal lattice and weights: KPOINTS created by Atomic Simulation Env
   0.00000000  0.00000000  0.00000000       0.001
   0.11111111  0.00000000  0.00000000       0.008
   0.22222222  0.00000000  0.00000000       0.008
   0.33333333  0.00000000  0.00000000       0.008
   0.44444444  0.00000000  0.00000000       0.008
   0.11111111  0.11111111  0.00000000       0.016
   0.22222222  0.11111111  0.00000000       0.033
   0.33333333  0.11111111  0.00000000       0.033
   0.44444444  0.11111111  0.00000000       0.033
   0.22222222  0.22222222  0.00000000       0.016
   0.33333333  0.22222222  0.00000000       0.033
   0.44444444  0.22222222  0.00000000       0.033
   0.33333333  0.33333333  0.00000000       0.016
   0.44444444  0.33333333  0.00000000       0.033
   0.44444444  0.44444444  0.00000000       0.016
   0.11111111  0.11111111  0.11111111       0.011
   0.22222222  0.11111111  0.11111111       0.033
   0.33333333  0.11111111  0.11111111       0.033
   0.44444444  0.11111111  0.11111111       0.033
   0.22222222  0.22222222  0.11111111       0.033
   0.33333333  0.22222222  0.11111111       0.066
   0.44444444  0.22222222  0.11111111       0.066
   0.33333333  0.33333333  0.11111111       0.033
   0.44444444  0.33333333  0.11111111       0.066
   0.44444444  0.44444444  0.11111111       0.033
   0.22222222  0.22222222  0.22222222       0.011
   0.33333333  0.22222222  0.22222222       0.033
   0.44444444  0.22222222  0.22222222       0.033
   0.33333333  0.33333333  0.22222222       0.033
   0.44444444  0.33333333  0.22222222       0.066
   0.44444444  0.44444444  0.22222222       0.033
   0.33333333  0.33333333  0.33333333       0.011
   0.44444444  0.33333333  0.33333333       0.033
   0.44444444  0.44444444  0.33333333       0.033
   0.44444444  0.44444444  0.44444444       0.011
 
 position of ions in fractional coordinates (direct lattice) 
   0.00000000  0.00000000  0.00000000
   0.00000000  0.50000000  0.50000000
   0.50000000  0.00000000  0.50000000
   0.50000000  0.50000000  0.00000000
 
 position of ions in cartesian coordinates  (Angst):
   0.00000000  0.00000000  0.00000000
   0.00000000  1.97200000  1.97200000
   1.97200000  0.00000000  1.97200000
   1.97200000  1.97200000  0.00000000
 


--------------------------------------------------------------------------------------------------------


 k-point  1 :   0.0000 0.0000 0.0000  plane waves:    1141
 k-point  2 :   0.1111 0.0000 0.0000  plane waves:    1121
 k-point  3 :   0.2222 0.0000 0.0000  plane waves:    1113
 k-point  4 :   0.3333 0.0000 0.0000  plane waves:    1113
 k-point  5 :   0.4444 0.0000 0.0000  plane waves:    1132
 k-point  6 :   0.1111 0.1111 0.0000  plane waves:    1127
 k-point  7 :   0.2222 0.1111 0.0000  plane waves:    1114
 k-point  8 :   0.3333 0.1111 0.0000  plane waves:    1121
 k-point  9 :   0.4444 0.1111 0.0000  plane waves:    1122
 k-point 10 :   0.2222 0.2222 0.0000  plane waves:    1119
 k-point 11 :   0.3333 0.2222 0.0000  plane waves:    1116
 k-point 12 :   0.4444 0.2222 0.0000  plane waves:    1122
 k-point 13 :   0.3333 0.3333 0.0000  plane waves:    1111
 k-point 14 :   0.4444 0.3333 0.0000  plane waves:    1113
 k-point 15 :   0.4444 0.4444 0.0000  plane waves:    1101
 k-point 16 :   0.1111 0.1111 0.1111  plane waves:    1108
 k-point 17 :   0.2222 0.1111 0.1111  plane waves:    1115
 k-point 18 :   0.3333 0.1111 0.1111  plane waves:    1130
 k-point 19 :   0.4444 0.1111 0.1111  plane waves:    1124
 k-point 20 :   0.2222 0.2222 0.1111  plane waves:    1113
 k-point 21 :   0.3333 0.2222 0.1111  plane waves:    1115
 k-point 22 :   0.4444 0.2222 0.1111  plane waves:    1122
 k-point 23 :   0.3333 0.3333 0.1111  plane waves:    1117
 k-point 24 :   0.4444 0.3333 0.1111  plane waves:    1112
 k-point 25 :   0.4444 0.4444 0.1111  plane waves:    1106
 k-point 26 :   0.2222 0.2222 0.2222  plane waves:    1114
 k-point 27 :   0.3333 0.2222 0.2222  plane waves:    1118
 k-point 28 :   0.4444 0.2222 0.2222  plane waves:    1113
 k-point 29 :   0.3333 0.3333 0.2222  plane waves:    1112
 k-point 30 :   0.4444 0.3333 0.2222  plane waves:    1114
 k-point 31 :   0.4444 0.4444 0.2222  plane waves:    1105
 k-point 32 :   0.3333 0.3333 0.3333  plane waves:    1118
 k-point 33 :   0.4444 0.3333 0.3333  plane waves:    1105
 k-point 34 :   0.4444 0.4444 0.3333  plane waves:    1102
 k-point 35 :   0.4444 0.4444 0.4444  plane waves:    1082

 maximum and minimum number of plane-waves per node :      1141     1082

 maximum number of plane-waves:      1141
 maximum index in each direction: 
   IXMAX=    6   IYMAX=    6   IZMAX=    6
   IXMIN=   -6   IYMIN=   -6   IZMIN=   -6

 WARNING: aliasing errors must be expected set NGX to  26 to avoid them
 WARNING: aliasing errors must be expected set NGY to  26 to avoid them
 WARNING: aliasing errors must be expected set NGZ to  26 to avoid them
 aliasing errors are usually negligible using standard VASP settings
 and one can safely disregard these warnings

 serial   3D FFT for wavefunctions
 parallel 3D FFT for charge:
    minimum data exchange during FFTs selected (reduces bandwidth)


 total amount of memory used by VASP on root node    37943. kBytes
========================================================================

   base      :      30000. kBytes
   nonl-proj :       5879. kBytes
   fftplans  :        147. kBytes
   grid      :        485. kBytes
   one-center:         62. kBytes
   wavefun   :       1370. kBytes
 
     INWAV:  cpu time    0.0000: real time    0.0001
 Broyden mixing: mesh for mixing (old mesh)
   NGX = 13   NGY = 13   NGZ = 13
  (NGX  = 40   NGY  = 40   NGZ  = 40)
  gives a total of   2197 points

 initial charge density was supplied:
 charge density of overlapping atoms calculated
 number of electron      44.0000000 magnetization 
 keeping initial charge density in first step


--------------------------------------------------------------------------------------------------------


 Maximum index for augmentation-charges          481 (set IRDMAX)


--------------------------------------------------------------------------------------------------------


 First call to EWALD:  gamma=   0.449
 Maximum number of real-space cells 3x 3x 3
 Maximum number of reciprocal cells 3x 3x 3

 FEWALD executed in parallel
    FEWALD:  cpu time    0.0019: real time    0.0019


----------------------------------------- Iteration    1(   1)  ---------------------------------------


    POTLOK:  cpu time    0.1025: real time    0.1026
    SETDIJ:  cpu time    0.0029: real time    0.0029
     EDDAV:  cpu time    0.5111: real time    0.5134
       DOS:  cpu time    0.0009: real time    0.0009
    --------------------------------------------
      LOOP:  cpu time    0.6194: real time    0.6232

 eigenvalue-minimisations  :  3408
 total energy-change (2. order) : 0.1881780E+03  (-0.1871174E+04)
 number of electron      44.0000000 magnetization 
 augmentation part       44.0000000 magnetization 

 Free energy of the ion-electron system (eV)
  ---------------------------------------------------
  alpha Z        PSCENC =       303.77998272
  Ewald energy   TEWEN  =     -4050.98665802
  -Hartree energ DENC   =      -442.87828356
  -exchange      EXHF   =         0.00000000
  -V(xc)+E(xc)   XCENC  =        64.29139982
  PAW double counting   =      3496.39001341    -3404.04053930
  entropy T*S    EENTRO =         0.00070425
  eigenvalues    EBANDS =       517.29926775
  atomic energy  EATOM  =      3704.32207507
  Solvation  Ediel_sol  =         0.00000000
  ---------------------------------------------------
  free energy    TOTEN  =       188.17796214 eV

  energy without entropy =      188.17725789  energy(sigma->0) =      188.17772739


--------------------------------------------------------------------------------------------------------




----------------------------------------- Iteration    1(   2)  ---------------------------------------


     EDDAV:  cpu time    0.7074: real time    0.7080
       DOS:  cpu time    0.0007: real time    0.0008
    --------------------------------------------
      LOOP:  cpu time    0.7094: real time    0.7117

 eigenvalue-minimisations  :  4512
 total energy-change (2. order) :-0.1985619E+03  (-0.1882388E+03)
 number of electron      44.0000000 magnetization 
 augmentation part       44.0000000 magnetization 

 Free energy of the ion-electron system (eV)
  ---------------------------------------------------
  alpha Z        PSCENC =       303.77998272
  Ewald energy   TEWEN  =     -4050.98665802
  -Hartree energ DENC   =      -442.87828356
  -exchange      EXHF   =         0.00000000
  -V(xc)+E(xc)   XCENC  =        64.29139982
  PAW double counting   =      3496.39001341    -3404.04053930
  entropy T*S    EENTRO =        -0.00076019
  eigenvalues    EBANDS =       318.73887884
  atomic energy  EATOM  =      3704.32207507
  Solvation  Ediel_sol  =         0.00000000
  ---------------------------------------------------
  free energy    TOTEN  =       -10.38389121 eV

  energy without entropy =      -10.38313102  energy(sigma->0) =      -10.38363781


--------------------------------------------------------------------------------------------------------




----------------------------------------- Iteration    1(   3)  ---------------------------------------


     EDDAV:  cpu time    0.7473: real time    0.7552
       DOS:  cpu time    0.0018: real time    0.0018
    --------------------------------------------
      LOOP:  cpu time    0.7501: real time    0.7620

 eigenvalue-minimisations  :  4488
 total energy-change (2. order) :-0.2591689E+01  (-0.2589617E+01)
 number of electron      44.0000000 magnetization 
 augmentation part       44.0000000 magnetization 

 Free energy of the ion-electron system (eV)
  ---------------------------------------------------
  alpha Z        PSCENC =       303.77998272
  Ewald energy   TEWEN  =     -4050.98665802
  -Hartree energ DENC   =      -442.87828356
  -exchange      EXHF   =         0.00000000
  -V(xc)+E(xc)   XCENC  =        64.29139982
  PAW double counting   =      3496.39001341    -3404.04053930
  entropy T*S    EENTRO =        -0.00052702
  eigenvalues    EBANDS =       316.14695644
  atomic energy  EATOM  =      3704.32207507
  Solvation  Ediel_sol  =         0.00000000
  ---------------------------------------------------
  free energy    TOTEN  =       -12.97558044 eV

  energy without entropy =      -12.97505342  energy(sigma->0) =      -12.97540477


--------------------------------------------------------------------------------------------------------




----------------------------------------- Iteration    1(   4)  ---------------------------------------


     EDDAV:  cpu time    0.7236: real time    0.7245
       DOS:  cpu time    0.0007: real time    0.0007
    --------------------------------------------
      LOOP:  cpu time    0.7252: real time    0.7278

 eigenvalue-minimisations  :  4608
 total energy-change (2. order) :-0.1000661E-01  (-0.1000645E-01)
 number of electron      44.0000000 magnetization 
 augmentation part       44.0000000 magnetization 

 Free energy of the ion-electron system (eV)
  ---------------------------------------------------
  alpha Z        PSCENC =       303.77998272
  Ewald energy   TEWEN  =     -4050.98665802
  -Hartree energ DENC   =      -442.87828356
  -exchange      EXHF   =         0.00000000
  -V(xc)+E(xc)   XCENC  =        64.29139982
  PAW double counting   =      3496.39001341    -3404.04053930
  entropy T*S    EENTRO =        -0.00052580
  eigenvalues    EBANDS =       316.13694861
  atomic energy  EATOM  =      3704.32207507
  Solvation  Ediel_sol  =         0.00000000
  ---------------------------------------------------
  free energy    TOTEN  =       -12.98558705 eV

  energy without entropy =      -12.98506125  energy(sigma->0) =      -12.98541179


--------------------------------------------------------------------------------------------------------




----------------------------------------- Iteration    1(   5)  ---------------------------------------


     EDDAV:  cpu time    0.6716: real time    0.6724
       DOS:  cpu time    0.0007: real time    0.0007
    CHARGE:  cpu time    0.0109: real time    0.0110
    MIXING:  cpu time    0.0005: real time    0.0005
    --------------------------------------------
      LOOP:  cpu time    0.6847: real time    0.6903

 eigenvalue-minimisations  :  4320
 total energy-change (2. order) :-0.8173067E-04  (-0.8173079E-04)
 number of electron      44.0000186 magnetization 
 augmentation part       15.4153715 magnetization 

 Broyden mixing:
  rms(total) = 0.26285E+01    rms(broyden)= 0.26285E+01
  rms(prec ) = 0.29842E+01
  weight for this iteration     100.00

 Free energy of the ion-electron system (eV)
  ---------------------------------------------------
  alpha Z        PSCENC =       303.77998272
  Ewald energy   TEWEN  =     -4050.98665802
  -Hartree energ DENC   =      -442.87828356
  -exchange      EXHF   =         0.00000000
  -V(xc)+E(xc)   XCENC  =        64.29139982
  PAW double counting   =      3496.39001341    -3404.04053930
  entropy T*S    EENTRO =        -0.00052579
  eigenvalues    EBANDS =       316.13686687
  atomic energy  EATOM  =      3704.32207507
  Solvation  Ediel_sol  =         0.00000000
  ---------------------------------------------------
  free energy    TOTEN  =       -12.98566879 eV

  energy without entropy =      -12.98514299  energy(sigma->0) =      -12.98549352


--------------------------------------------------------------------------------------------------------




----------------------------------------- Iteration    1(   6)  ---------------------------------------


    POTLOK:  cpu time    0.0040: real time    0.0040
    SETDIJ:  cpu time    0.0023: real time    0.0023
     EDDAV:  cpu time    0.6328: real time    0.6336
       DOS:  cpu time    0.0008: real time    0.0008
    CHARGE:  cpu time    0.0087: real time    0.0087
    MIXING:  cpu time    0.0004: real time    0.0004
    --------------------------------------------
      LOOP:  cpu time    0.6500: real time    0.6526

 eigenvalue-minimisations  :  4176
 total energy-change (2. order) : 0.9265907E+00  (-0.1388331E+00)
 number of electron      44.0000190 magnetization 
 augmentation part       15.8337654 magnetization 

 Broyden mixing:
  rms(total) = 0.15950E+01    rms(broyden)= 0.15950E+01
  rms(prec ) = 0.16560E+01
  weight for this iteration     100.00

 eigenvalues of (default mixing * dielectric matrix)
  average eigenvalue GAMMA=   2.3627
  2.3627

 Free energy of the ion-electron system (eV)
  ---------------------------------------------------
  alpha Z        PSCENC =       303.77998272
  Ewald energy   TEWEN  =     -4050.98665802
  -Hartree energ DENC   =      -414.39473375
  -exchange      EXHF   =         0.00000000
  -V(xc)+E(xc)   XCENC  =        63.04905864
  PAW double counting   =      3921.79377312    -3835.57883138
  entropy T*S    EENTRO =        -0.00157621
  eigenvalues    EBANDS =       295.95783170
  atomic energy  EATOM  =      3704.32207507
  Solvation  Ediel_sol  =         0.00000000
  ---------------------------------------------------
  free energy    TOTEN  =       -12.05907812 eV

  energy without entropy =      -12.05750191  energy(sigma->0) =      -12.05855271


--------------------------------------------------------------------------------------------------------




----------------------------------------- Iteration    1(   7)  ---------------------------------------


    POTLOK:  cpu time    0.0030: real time    0.0030
    SETDIJ:  cpu time    0.0023: real time    0.0023
     EDDAV:  cpu time    0.6823: real time    0.6832
       DOS:  cpu time    0.0007: real time    0.0007
    CHARGE:  cpu time    0.0102: real time    0.0102
    MIXING:  cpu time    0.0003: real time    0.0003
    --------------------------------------------
      LOOP:  cpu time    0.6999: real time    0.7025

 eigenvalue-minimisations  :  4416
 total energy-change (2. order) : 0.1086124E+00  (-0.3481377E-01)
 number of electron      44.0000193 magnetization 
 augmentation part       16.0415440 magnetization 

 Broyden mixing:
  rms(total) = 0.43771E+00    rms(broyden)= 0.43770E+00
  rms(prec ) = 0.44951E+00
  weight for this iteration     100.00

 eigenvalues of (default mixing * dielectric matrix)
  average eigenvalue GAMMA=   2.0033
  1.3316  2.6749

 Free energy of the ion-electron system (eV)
  ---------------------------------------------------
  alpha Z        PSCENC =       303.77998272
  Ewald energy   TEWEN  =     -4050.98665802
  -Hartree energ DENC   =      -397.51450028
  -exchange      EXHF   =         0.00000000
  -V(xc)+E(xc)   XCENC  =        62.31337867
  PAW double counting   =      4425.57645834    -4345.39440165
  entropy T*S    EENTRO =        -0.00167507
  eigenvalues    EBANDS =       285.95487449
  atomic energy  EATOM  =      3704.32207507
  Solvation  Ediel_sol  =         0.00000000
  ---------------------------------------------------
  free energy    TOTEN  =       -11.95046573 eV

  energy without entropy =      -11.94879066  energy(sigma->0) =      -11.94990737


--------------------------------------------------------------------------------------------------------




----------------------------------------- Iteration    1(   8)  ---------------------------------------


    POTLOK:  cpu time    0.0039: real time    0.0069
    SETDIJ:  cpu time    0.0021: real time    0.0021
     EDDAV:  cpu time    0.6470: real time    0.6478
       DOS:  cpu time    0.0007: real time    0.0007
    CHARGE:  cpu time    0.0092: real time    0.0093
    MIXING:  cpu time    0.0003: real time    0.0003
    --------------------------------------------
      LOOP:  cpu time    0.6644: real time    0.6700

 eigenvalue-minimisations  :  4224
 total energy-change (2. order) : 0.1462113E-01  (-0.3735140E-02)
 number of electron      44.0000192 magnetization 
 augmentation part       15.9854447 magnetization 

 Broyden mixing:
  rms(total) = 0.59409E-01    rms(broyden)= 0.59408E-01
  rms(prec ) = 0.59496E-01
  weight for this iteration     100.00

 eigenvalues of (default mixing * dielectric matrix)
  average eigenvalue GAMMA=   1.5688
  2.5293  0.8429  1.3342

 Free energy of the ion-electron system (eV)
  ---------------------------------------------------
  alpha Z        PSCENC =       303.77998272
  Ewald energy   TEWEN  =     -4050.98665802
  -Hartree energ DENC   =      -398.91399312
  -exchange      EXHF   =         0.00000000
  -V(xc)+E(xc)   XCENC  =        62.36400851
  PAW double counting   =      4580.62185945    -4501.99481199
  entropy T*S    EENTRO =        -0.00168719
  eigenvalues    EBANDS =       288.87337996
  atomic energy  EATOM  =      3704.32207507
  Solvation  Ediel_sol  =         0.00000000
  ---------------------------------------------------
  free energy    TOTEN  =       -11.93584460 eV

  energy without entropy =      -11.93415741  energy(sigma->0) =      -11.93528220


--------------------------------------------------------------------------------------------------------




----------------------------------------- Iteration    1(   9)  ---------------------------------------


    POTLOK:  cpu time    0.0029: real time    0.0029
    SETDIJ:  cpu time    0.0022: real time    0.0022
     EDDAV:  cpu time    0.6905: real time    0.6916
       DOS:  cpu time    0.0007: real time    0.0007
    --------------------------------------------
      LOOP:  cpu time    0.6973: real time    0.7036

 eigenvalue-minimisations  :  4296
 total energy-change (2. order) : 0.4297138E-04  (-0.1376851E-04)
 number of electron      44.0000192 magnetization 
 augmentation part       15.9854447 magnetization 

 Free energy of the ion-electron system (eV)
  ---------------------------------------------------
  alpha Z        PSCENC =       303.77998272
  Ewald energy   TEWEN  =     -4050.98665802
  -Hartree energ DENC   =      -399.10322862
  -exchange      EXHF   =         0.00000000
  -V(xc)+E(xc)   XCENC  =        62.37241723
  PAW double counting   =      4560.50456498    -4481.61885333
  entropy T*S    EENTRO =        -0.00168720
  eigenvalues    EBANDS =       288.79558555
  atomic energy  EATOM  =      3704.32207507
  Solvation  Ediel_sol  =         0.00000000
  ---------------------------------------------------
  free energy    TOTEN  =       -11.93580163 eV

  energy without entropy =      -11.93411442  energy(sigma->0) =      -11.93523923


--------------------------------------------------------------------------------------------------------




 average (electrostatic) potential at core
  the test charge radii are     1.2098
  (the norm of the test charge is              1.0000)
       1 -62.6583       2 -62.6583       3 -62.6583       4 -62.6583
 
 
 
 E-fermi :  11.4014     XC(G=0): -13.3564     alpha+bet :-15.4818


 k-point     1 :       0.0000    0.0000    0.0000
  band No.  band energies     occupation 
      1       0.3120      2.00000
      2       3.2143      2.00000
      3       3.2143      2.00000
      4       3.2143      2.00000
      5       3.5872      2.00000
      6       3.5872      2.00000
      7       3.5872      2.00000
      8       6.0368      2.00000
      9       6.0368      2.00000
     10       6.0368      2.00000
     11       7.8620      2.00000
     12       7.8620      2.00000
     13       9.2563      2.00000
     14       9.2563      2.00000
     15       9.2563      2.00000
     16       9.6943      2.00000
     17       9.6943      2.00000
     18       9.6943      2.00000
     19       9.6943      2.00000
     20       9.6943      2.00000
     21       9.6943      2.00000
     22      12.0614     -0.00000
     23      12.0614     -0.00000
     24      12.0614     -0.00000
     25      18.0401      0.00000
     26      18.0401      0.00000
     27      18.0401      0.00000
     28      21.6443      0.00000
     29      21.6443      0.00000
     30      21.6443      0.00000
     31      21.6443      0.00000
     32      21.6443      0.00000
     33      21.6443      0.00000
     34      25.6558      0.00000
     35      29.7455      0.00000
     36      29.7455      0.00000
     37      29.7455      0.00000
     38      30.2685      0.00000
     39      30.2685      0.00000
     40      30.2685      0.00000
     41      32.6933      0.00000
     42      32.6933      0.00000
     43      32.6933      0.00000
     44      35.5302      0.00000
     45      39.4913      0.00000
     46      39.4913      0.00000
     47      39.4913      0.00000
     48      41.4794      0.00000

 k-point     2 :       0.1111    0.0000    0.0000
  band No.  band energies     occupation 
      1       0.4710      2.00000
      2       3.2738      2.00000
      3       3.3246      2.00000
      4       3.3246      2.00000
      5       3.6482      2.00000
      6       3.6812      2.00000
      7       3.6812      2.00000
      8       5.9452      2.00000
      9       6.1130      2.00000
     10       6.1130      2.00000
     11       7.7625      2.00000
     12       7.9001      2.00000
     13       9.0391      2.00000
     14       9.0391      2.00000
     15       9.1112      2.00000
     16       9.1112      2.00000
     17       9.2095      2.00000
     18       9.5197      2.00000
     19       9.5197      2.00000
     20       9.6947      2.00000
     21       9.6947      2.00000
     22      11.1495      2.00212
     23      12.8156     -0.00000
     24      12.8156     -0.00000
     25      17.8248      0.00000
     26      17.8248      0.00000
     27      19.2053      0.00000
     28      21.4568      0.00000
     29      21.4568      0.00000
     30      21.6312      0.00000
     31      21.6312      0.00000
     32      21.9940      0.00000
     33      21.9940      0.00000
     34      25.8773      0.00000
     35      29.5919      0.00000
     36      29.7571      0.00000
     37      30.2474      0.00000
     38      30.2474      0.00000
     39      30.3590      0.00000
     40      30.3590      0.00000
     41      32.4951      0.00000
     42      32.7358      0.00000
     43      32.7358      0.00000
     44      36.5478      0.00000
     45      39.2483      0.00000
     46      39.2483      0.00000
     47      39.7205      0.00000
     48      39.8881      0.00000

 k-point     3 :       0.2222    0.0000    0.0000
  band No.  band energies     occupation 
      1       0.9363      2.00000
      2       3.4175      2.00000
      3       3.6343      2.00000
      4       3.6343      2.00000
      5       3.8272      2.00000
      6       3.9619      2.00000
      7       3.9619      2.00000
      8       5.6897      2.00000
      9       6.3394      2.00000
     10       6.3394      2.00000
     11       7.4890      2.00000
     12       7.9267      2.00000
     13       7.9267      2.00000
     14       8.0109      2.00000
     15       8.7054      2.00000
     16       8.7054      2.00000
     17       9.0590      2.00000
     18       9.0590      2.00000
     19       9.0771      2.00000
     20       9.4495      2.00000
     21       9.6954      2.00000
     22       9.6954      2.00000
     23      14.2172      0.00000
     24      14.2172      0.00000
     25      17.3595      0.00000
     26      17.3595      0.00000
     27      20.8908      0.00000
     28      20.8908      0.00000
     29      21.5884      0.00000
     30      21.5884      0.00000
     31      21.6857      0.00000
     32      22.9713      0.00000
     33      22.9713      0.00000
     34      26.5114      0.00000
     35      28.8957      0.00000
     36      29.2155      0.00000
     37      30.0434      0.00000
     38      30.0434      0.00000
     39      31.9156      0.00000
     40      32.0027      0.00000
     41      32.0027      0.00000
     42      32.9346      0.00000
     43      32.9346      0.00000
     44      38.0393      0.00000
     45      38.0393      0.00000
     46      38.3747      0.00000
     47      38.3747      0.00000
     48      38.4469      0.00000

 k-point     4 :       0.3333    0.0000    0.0000
  band No.  band energies     occupation 
      1       1.6634      2.00000
      2       3.5097      2.00000
      3       4.0645      2.00000
      4       4.0645      2.00000
      5       4.1116      2.00000
      6       4.4262      2.00000
      7       4.4262      2.00000
      8       5.3201      2.00000
      9       6.7084      2.00000
     10       6.7084      2.00000
     11       6.8419      2.00000
     12       6.8419      2.00000
     13       7.1235      2.00000
     14       7.8978      2.00000
     15       8.1533      2.00000
     16       8.1533      2.00000
     17       8.1843      2.00000
     18       8.4455      2.00000
     19       8.4455      2.00000
     20       8.8792      2.00000
     21       9.6963      2.00000
     22       9.6963      2.00000
     23      15.7561      0.00000
     24      15.7561      0.00000
     25      16.9340      0.00000
     26      16.9340      0.00000
     27      19.9610      0.00000
     28      19.9610      0.00000
     29      21.5309      0.00000
     30      21.5309      0.00000
     31      24.4126      0.00000
     32      24.4126      0.00000
     33      24.6145      0.00000
     34      27.4735      0.00000
     35      28.2612      0.00000
     36      28.8327      0.00000
     37      29.2950      0.00000
     38      29.2950      0.00000
     39      31.0078      0.00000
     40      33.4269      0.00000
     41      33.4269      0.00000
     42      34.2771      0.00000
     43      34.2771      0.00000
     44      35.2672      0.00000
     45      36.9758      0.00000
     46      36.9758      0.00000
     47      37.1097      0.00000
     48      37.1097      0.00000

 k-point     5 :       0.4444    0.0000    0.0000
  band No.  band energies     occupation 
      1       2.5342      2.00000
      2       3.2602      2.00000
      3       4.4241      2.00000
      4       4.4241      2.00000
      5       4.4795      2.00000
      6       4.8976      2.00000
      7       5.0682      2.00000
      8       5.0682      2.00000
      9       5.8787      2.00000
     10       5.8787      2.00000
     11       6.8381      2.00000
     12       6.9747      2.00000
     13       7.2046      2.00000
     14       7.2046      2.00000
     15       7.7075      2.00000
     16       7.7075      2.00000
     17       7.8000      2.00000
     18       7.8000      2.00000
     19       8.4032      2.00000
     20       8.6443      2.00000
     21       9.6968      2.00000
     22       9.6968      2.00000
     23      16.7009      0.00000
     24      16.7009      0.00000
     25      17.2932      0.00000
     26      17.2932      0.00000
     27      18.7292      0.00000
     28      18.7292      0.00000
     29      21.4908      0.00000
     30      21.4908      0.00000
     31      26.1266      0.00000
     32      26.1266      0.00000
     33      27.2881      0.00000
     34      27.8745      0.00000
     35      27.8745      0.00000
     36      27.9309      0.00000
     37      28.6416      0.00000
     38      29.0878      0.00000
     39      29.8705      0.00000
     40      31.8015      0.00000
     41      34.2932      0.00000
     42      34.2932      0.00000
     43      35.5166      0.00000
     44      35.5166      0.00000
     45      36.5941      0.00000
     46      36.5941      0.00000
     47      37.3617      0.00000
     48      37.3617      0.00000

 k-point     6 :       0.1111    0.1111    0.0000
  band No.  band energies     occupation 
      1       0.6267      2.00000
      2       3.3859      2.00000
      3       3.3859      2.00000
      4       3.4114      2.00000
      5       3.7401      2.00000
      6       3.7401      2.00000
      7       3.7906      2.00000
      8       5.9064      2.00000
      9       6.1412      2.00000
     10       6.1770      2.00000
     11       7.7368      2.00000
     12       7.8804      2.00000
     13       8.6721      2.00000
     14       8.7213      2.00000
     15       8.7213      2.00000
     16       8.9825      2.00000
     17       9.1523      2.00000
     18       9.1523      2.00000
     19       9.5192      2.00000
     20       9.5192      2.00000
     21       9.5808      2.00000
     22      11.9353     -0.00000
     23      11.9353     -0.00000
     24      13.3977     -0.00000
     25      17.5476      0.00000
     26      18.9451      0.00000
     27      18.9451      0.00000
     28      20.8110      0.00000
     29      21.8008      0.00000
     30      21.8008      0.00000
     31      22.0113      0.00000
     32      22.0113      0.00000
     33      22.2981      0.00000
     34      26.0766      0.00000
     35      28.8460      0.00000
     36      30.2185      0.00000
     37      30.2271      0.00000
     38      30.2271      0.00000
     39      30.5173      0.00000
     40      30.9306      0.00000
     41      32.5533      0.00000
     42      32.5533      0.00000
     43      33.0566      0.00000
     44      36.8494      0.00000
     45      38.8741      0.00000
     46      39.1060      0.00000
     47      39.3791      0.00000
     48      39.4020      0.00000

 k-point     7 :       0.2222    0.1111    0.0000
  band No.  band energies     occupation 
      1       1.0821      2.00000
      2       3.5347      2.00000
      3       3.6652      2.00000
      4       3.7015      2.00000
      5       3.9128      2.00000
      6       4.0143      2.00000
      7       4.1022      2.00000
      8       5.6884      2.00000
      9       6.3433      2.00000
     10       6.3592      2.00000
     11       7.5137      2.00000
     12       7.6328      2.00000
     13       7.7745      2.00000
     14       7.9951      2.00000
     15       8.0637      2.00000
     16       8.6167      2.00000
     17       8.7592      2.00000
     18       9.0028      2.00000
     19       9.0570      2.00000
     20       9.5178      2.00000
     21       9.5212      2.00000
     22      10.4624      2.00000
     23      13.2005     -0.00000
     24      14.6507      0.00000
     25      16.9380      0.00000
     26      18.4368      0.00000
     27      20.2078      0.00000
     28      21.1124      0.00000
     29      21.2211      0.00000
     30      22.0386      0.00000
     31      22.7111      0.00000
     32      22.7582      0.00000
     33      23.1542      0.00000
     34      26.6319      0.00000
     35      27.8078      0.00000
     36      29.9463      0.00000
     37      30.0130      0.00000
     38      31.0382      0.00000
     39      31.2513      0.00000
     40      31.8589      0.00000
     41      32.0201      0.00000
     42      32.7946      0.00000
     43      34.0675      0.00000
     44      35.8876      0.00000
     45      38.0959      0.00000
     46      38.4204      0.00000
     47      38.4548      0.00000
     48      39.7132      0.00000

 k-point     8 :       0.3333    0.1111    0.0000
  band No.  band energies     occupation 
      1       1.7941      2.00000
      2       3.6323      2.00000
      3       4.0596      2.00000
      4       4.1434      2.00000
      5       4.1868      2.00000
      6       4.4669      2.00000
      7       4.5562      2.00000
      8       5.3424      2.00000
      9       6.5807      2.00000
     10       6.5990      2.00000
     11       6.7066      2.00000
     12       6.7844      2.00000
     13       7.2065      2.00000
     14       7.2631      2.00000
     15       8.1111      2.00000
     16       8.2120      2.00000
     17       8.2289      2.00000
     18       8.4420      2.00000
     19       8.6081      2.00000
     20       9.3849      2.00000
     21       9.5091      2.00000
     22       9.5153      2.00000
     23      14.3933      0.00000
     24      16.1176      0.00000
     25      16.3345      0.00000
     26      18.1214      0.00000
     27      19.5865      0.00000
     28      20.2782      0.00000
     29      22.0862      0.00000
     30      22.6760      0.00000
     31      23.2046      0.00000
     32      24.1567      0.00000
     33      25.0845      0.00000
     34      26.9491      0.00000
     35      27.3549      0.00000
     36      29.4241      0.00000
     37      29.8390      0.00000
     38      30.5520      0.00000
     39      31.1878      0.00000
     40      31.9142      0.00000
     41      33.3431      0.00000
     42      33.7528      0.00000
     43      34.6859      0.00000
     44      35.7836      0.00000
     45      37.0550      0.00000
     46      37.2365      0.00000
     47      37.3586      0.00000
     48      37.4450      0.00000

 k-point     9 :       0.4444    0.1111    0.0000
  band No.  band energies     occupation 
      1       2.6509      2.00000
      2       3.3779      2.00000
      3       4.4726      2.00000
      4       4.5156      2.00000
      5       4.5404      2.00000
      6       4.9406      2.00000
      7       5.0657      2.00000
      8       5.0902      2.00000
      9       5.7199      2.00000
     10       5.8710      2.00000
     11       6.5549      2.00000
     12       6.6053      2.00000
     13       7.2010      2.00000
     14       7.4350      2.00000
     15       7.7156      2.00000
     16       7.7689      2.00000
     17       7.7960      2.00000
     18       7.9824      2.00000
     19       8.4972      2.00000
     20       8.8481      2.00000
     21       9.5090      2.00000
     22       9.5120      2.00000
     23      15.2773      0.00000
     24      15.8364      0.00000
     25      17.6200      0.00000
     26      18.2855      0.00000
     27      18.8854      0.00000
     28      19.0434      0.00000
     29      22.2063      0.00000
     30      22.4279      0.00000
     31      24.8949      0.00000
     32      25.7783      0.00000
     33      26.1082      0.00000
     34      27.2332      0.00000
     35      27.2892      0.00000
     36      29.0490      0.00000
     37      29.2577      0.00000
     38      30.1718      0.00000
     39      30.5362      0.00000
     40      32.5972      0.00000
     41      33.0225      0.00000
     42      34.0776      0.00000
     43      34.2684      0.00000
     44      35.5490      0.00000
     45      36.8595      0.00000
     46      37.6437      0.00000
     47      37.9046      0.00000
     48      37.9135      0.00000

 k-point    10 :       0.2222    0.2222    0.0000
  band No.  band energies     occupation 
      1       1.5078      2.00000
      2       3.8122      2.00000
      3       3.8679      2.00000
      4       3.8679      2.00000
      5       4.1675      2.00000
      6       4.1675      2.00000
      7       4.4448      2.00000
      8       5.6069      2.00000
      9       6.4171      2.00000
     10       6.4444      2.00000
     11       7.0126      2.00000
     12       7.0126      2.00000
     13       7.2979      2.00000
     14       7.4438      2.00000
     15       8.1066      2.00000
     16       8.3511      2.00000
     17       8.6956      2.00000
     18       8.6956      2.00000
     19       9.0514      2.00000
     20       9.0514      2.00000
     21       9.2539      2.00000
     22      11.6424     -0.00344
     23      11.6424     -0.00344
     24      15.7074      0.00000
     25      16.0340      0.00000
     26      19.6720      0.00000
     27      20.1393      0.00000
     28      20.1393      0.00000
     29      22.1320      0.00000
     30      22.1320      0.00000
     31      23.3743      0.00000
     32      23.3743      0.00000
     33      24.0537      0.00000
     34      26.5251      0.00000
     35      26.9032      0.00000
     36      29.8964      0.00000
     37      30.1536      0.00000
     38      31.6118      0.00000
     39      31.6118      0.00000
     40      32.3817      0.00000
     41      32.3817      0.00000
     42      32.7841      0.00000
     43      33.5063      0.00000
     44      35.6900      0.00000
     45      38.1575      0.00000
     46      38.3943      0.00000
     47      38.4882      0.00000
     48      38.4882      0.00000

 k-point    11 :       0.3333    0.2222    0.0000
  band No.  band energies     occupation 
      1       2.1728      2.00000
      2       3.9831      2.00000
      3       4.1135      2.00000
      4       4.3483      2.00000
      5       4.4088      2.00000
      6       4.5846      2.00000
      7       4.8603      2.00000
      8       5.3749      2.00000
      9       6.0881      2.00000
     10       6.3687      2.00000
     11       6.4383      2.00000
     12       6.5911      2.00000
     13       6.7425      2.00000
     14       7.3041      2.00000
     15       7.9614      2.00000
     16       8.2443      2.00000
     17       8.3792      2.00000
     18       8.4347      2.00000
     19       8.4425      2.00000
     20       9.0447      2.00000
     21       9.1094      2.00000
     22      10.3791      2.00000
     23      12.7245     -0.00000
     24      15.1441      0.00000
     25      17.0522      0.00000
     26      19.2929      0.00000
     27      19.3748      0.00000
     28      21.1452      0.00000
     29      21.7155      0.00000
     30      23.4384      0.00000
     31      23.6196      0.00000
     32      24.6669      0.00000
     33      25.3058      0.00000
     34      25.4265      0.00000
     35      26.9529      0.00000
     36      29.8145      0.00000
     37      30.2144      0.00000
     38      31.1282      0.00000
     39      31.7018      0.00000
     40      31.7298      0.00000
     41      32.9236      0.00000
     42      33.0848      0.00000
     43      34.3397      0.00000
     44      37.2923      0.00000
     45      37.3072      0.00000
     46      37.5318      0.00000
     47      38.0475      0.00000
     48      38.1146      0.00000

 k-point    12 :       0.4444    0.2222    0.0000
  band No.  band energies     occupation 
      1       2.9811      2.00000
      2       3.7064      2.00000
      3       4.5541      2.00000
      4       4.7157      2.00000
      5       4.7774      2.00000
      6       5.0542      2.00000
      7       5.1367      2.00000
      8       5.1500      2.00000
      9       5.3574      2.00000
     10       5.8370      2.00000
     11       6.0863      2.00000
     12       6.2519      2.00000
     13       7.2088      2.00000
     14       7.4559      2.00000
     15       7.6758      2.00000
     16       7.7921      2.00000
     17       7.8059      2.00000
     18       7.8901      2.00000
     19       8.9140      2.00000
     20       9.0423      2.00000
     21       9.0556      2.00000
     22       9.5193      2.00000
     23      13.6319     -0.00000
     24      14.3880      0.00000
     25      18.4903      0.00000
     26      19.0131      0.00000
     27      19.0336      0.00000
     28      19.8932      0.00000
     29      23.1430      0.00000
     30      23.9857      0.00000
     31      24.3672      0.00000
     32      24.4442      0.00000
     33      24.9106      0.00000
     34      26.2373      0.00000
     35      27.2789      0.00000
     36      29.1208      0.00000
     37      30.1820      0.00000
     38      30.9310      0.00000
     39      31.2581      0.00000
     40      32.5179      0.00000
     41      32.6558      0.00000
     42      34.1692      0.00000
     43      34.6016      0.00000
     44      35.6140      0.00000
     45      35.8505      0.00000
     46      37.0497      0.00000
     47      38.3780      0.00000
     48      39.2295      0.00000

 k-point    13 :       0.3333    0.3333    0.0000
  band No.  band energies     occupation 
      1       2.7563      2.00000
      2       4.2806      2.00000
      3       4.4987      2.00000
      4       4.4987      2.00000
      5       4.7646      2.00000
      6       4.7646      2.00000
      7       5.2077      2.00000
      8       5.3368      2.00000
      9       5.6463      2.00000
     10       5.6463      2.00000
     11       6.2327      2.00000
     12       6.3364      2.00000
     13       6.9160      2.00000
     14       7.1634      2.00000
     15       7.6947      2.00000
     16       8.0073      2.00000
     17       8.0073      2.00000
     18       8.4333      2.00000
     19       8.4333      2.00000
     20       8.7537      2.00000
     21       8.9391      2.00000
     22      11.3620      1.61294
     23      11.3620      1.61294
     24      14.0224     -0.00000
     25      18.3059      0.00000
     26      19.1704      0.00000
     27      20.4904      0.00000
     28      20.4904      0.00000
     29      22.3729      0.00000
     30      22.3729      0.00000
     31      24.0841      0.00000
     32      25.5864      0.00000
     33      25.5864      0.00000
     34      26.1965      0.00000
     35      26.5330      0.00000
     36      29.0366      0.00000
     37      30.1164      0.00000
     38      30.4391      0.00000
     39      32.5118      0.00000
     40      32.5118      0.00000
     41      32.6339      0.00000
     42      32.6339      0.00000
     43      34.8155      0.00000
     44      37.1778      0.00000
     45      37.2931      0.00000
     46      37.9268      0.00000
     47      38.3649      0.00000
     48      38.3649      0.00000

 k-point    14 :       0.4444    0.3333    0.0000
  band No.  band energies     occupation 
      1       3.4624      2.00000
      2       4.1492      2.00000
      3       4.5766      2.00000
      4       4.9260      2.00000
      5       4.9806      2.00000
      6       5.1777      2.00000
      7       5.1907      2.00000
      8       5.2273      2.00000
      9       5.3694      2.00000
     10       5.7207      2.00000
     11       5.7454      2.00000
     12       6.0873      2.00000
     13       7.2213      2.00000
     14       7.2845      2.00000
     15       7.4856      2.00000
     16       7.5825      2.00000
     17       7.6272      2.00000
     18       7.8144      2.00000
     19       8.4583      2.00000
     20       8.5467      2.00000
     21       9.5806      2.00000
     22      10.3536      2.00000
     23      12.2606     -0.00000
     24      13.1026     -0.00000
     25      19.2575      0.00000
     26      19.6695      0.00000
     27      19.6937      0.00000
     28      21.0863      0.00000
     29      21.6457      0.00000
     30      22.8470      0.00000
     31      23.7555      0.00000
     32      25.0915      0.00000
     33      26.0736      0.00000
     34      26.7376      0.00000
     35      27.3840      0.00000
     36      28.8074      0.00000
     37      29.7787      0.00000
     38      31.2095      0.00000
     39      31.4691      0.00000
     40      31.9870      0.00000
     41      32.9313      0.00000
     42      33.8940      0.00000
     43      34.0964      0.00000
     44      35.4927      0.00000
     45      37.5379      0.00000
     46      38.1043      0.00000
     47      38.4370      0.00000
     48      38.8102      0.00000

 k-point    15 :       0.4444    0.4444    0.0000
  band No.  band energies     occupation 
      1       3.9919      2.00000
      2       4.4823      2.00000
      3       4.4823      2.00000
      4       4.5704      2.00000
      5       5.2811      2.00000
      6       5.2861      2.00000
      7       5.2861      2.00000
      8       5.5608      2.00000
      9       5.5999      2.00000
     10       5.6199      2.00000
     11       5.6199      2.00000
     12       5.9548      2.00000
     13       7.0618      2.00000
     14       7.2352      2.00000
     15       7.2720      2.00000
     16       7.2720      2.00000
     17       7.5055      2.00000
     18       7.9110      2.00000
     19       7.9110      2.00000
     20       8.1446      2.00000
     21      10.3459      2.00000
     22      11.2039      2.01730
     23      11.2039      2.01730
     24      12.0807     -0.00000
     25      19.7138      0.00000
     26      20.4985      0.00000
     27      20.4985      0.00000
     28      21.0529      0.00000
     29      21.5582      0.00000
     30      22.4397      0.00000
     31      22.4397      0.00000
     32      23.8086      0.00000
     33      27.7350      0.00000
     34      27.7350      0.00000
     35      28.2737      0.00000
     36      28.4512      0.00000
     37      29.4348      0.00000
     38      31.3679      0.00000
     39      31.3679      0.00000
     40      32.2933      0.00000
     41      32.5227      0.00000
     42      33.2674      0.00000
     43      33.2674      0.00000
     44      34.6204      0.00000
     45      37.9276      0.00000
     46      38.3936      0.00000
     47      38.3936      0.00000
     48      38.4057      0.00000

 k-point    16 :       0.1111    0.1111    0.1111
  band No.  band energies     occupation 
      1       0.7781      2.00000
      2       3.4709      2.00000
      3       3.4709      2.00000
      4       3.4709      2.00000
      5       3.8501      2.00000
      6       3.8501      2.00000
      7       3.8501      2.00000
      8       5.8792      2.00000
      9       6.1961      2.00000
     10       6.1961      2.00000
     11       7.7941      2.00000
     12       7.7941      2.00000
     13       8.4204      2.00000
     14       8.4204      2.00000
     15       8.4204      2.00000
     16       8.8328      2.00000
     17       8.8328      2.00000
     18       8.8328      2.00000
     19       9.5428      2.00000
     20       9.5428      2.00000
     21       9.5428      2.00000
     22      12.4775     -0.00000
     23      12.4775     -0.00000
     24      12.4775     -0.00000
     25      18.5645      0.00000
     26      18.5645      0.00000
     27      18.5645      0.00000
     28      21.3306      0.00000
     29      21.3306      0.00000
     30      21.3306      0.00000
     31      22.6081      0.00000
     32      22.6081      0.00000
     33      22.6081      0.00000
     34      26.2452      0.00000
     35      28.0696      0.00000
     36      30.3628      0.00000
     37      30.3628      0.00000
     38      30.3628      0.00000
     39      30.9064      0.00000
     40      30.9064      0.00000
     41      32.9190      0.00000
     42      32.9190      0.00000
     43      32.9190      0.00000
     44      36.5149      0.00000
     45      39.1518      0.00000
     46      39.2170      0.00000
     47      39.2173      0.00000
     48      39.2190      0.00000

 k-point    17 :       0.2222    0.1111    0.1111
  band No.  band energies     occupation 
      1       1.2206      2.00000
      2       3.6144      2.00000
      3       3.7205      2.00000
      4       3.7205      2.00000
      5       4.0250      2.00000
      6       4.1622      2.00000
      7       4.1622      2.00000
      8       5.6991      2.00000
      9       6.3488      2.00000
     10       6.3608      2.00000
     11       7.5198      2.00000
     12       7.5198      2.00000
     13       7.5750      2.00000
     14       7.7535      2.00000
     15       7.9591      2.00000
     16       8.4561      2.00000
     17       8.5330      2.00000
     18       8.5330      2.00000
     19       9.4048      2.00000
     20       9.4751      2.00000
     21       9.4751      2.00000
     22      10.9284      2.00000
     23      13.5676     -0.00000
     24      13.5676     -0.00000
     25      17.8010      0.00000
     26      17.8010      0.00000
     27      20.3232      0.00000
     28      20.9585      0.00000
     29      20.9585      0.00000
     30      22.8652      0.00000
     31      22.9832      0.00000
     32      22.9832      0.00000
     33      23.4921      0.00000
     34      26.5811      0.00000
     35      27.1350      0.00000
     36      30.0052      0.00000
     37      30.6669      0.00000
     38      30.8452      0.00000
     39      30.8452      0.00000
     40      31.5241      0.00000
     41      32.5381      0.00000
     42      33.9933      0.00000
     43      33.9933      0.00000
     44      35.3756      0.00000
     45      37.3542      0.00000
     46      38.4804      0.00000
     47      38.4804      0.00000
     48      38.8994      0.00000

 k-point    18 :       0.3333    0.1111    0.1111
  band No.  band energies     occupation 
      1       1.9112      2.00000
      2       3.7064      2.00000
      3       4.1135      2.00000
      4       4.1135      2.00000
      5       4.2978      2.00000
      6       4.6071      2.00000
      7       4.6071      2.00000
      8       5.3837      2.00000
      9       6.5276      2.00000
     10       6.5790      2.00000
     11       6.5790      2.00000
     12       6.6342      2.00000
     13       6.9352      2.00000
     14       7.4243      2.00000
     15       7.9700      2.00000
     16       8.1094      2.00000
     17       8.1094      2.00000
[...]
  band No.  band energies     occupation 
      1       3.1598      2.00000
      2       3.5558      2.00000
      3       3.9513      2.00000
      4       3.9892      2.00000
      5       5.3469      2.00000
      6       5.3814      2.00000
      7       5.7674      2.00000
      8       6.0490      2.00000
      9       6.1550      2.00000
     10       6.2491      2.00000
     11       6.4497      2.00000
     12       6.4849      2.00000
     13       6.6802      2.00000
     14       6.6862      2.00000
     15       6.8539      2.00000
     16       6.9045      2.00000
     17       8.4140      2.00000
     18       8.9619      2.00000
     19       9.0582      2.00000
     20       9.0708      2.00000
     21       9.3127      2.00000
     22      10.2280      2.00000
     23      12.5130     -0.00000
     24      13.4230     -0.00000
     25      15.2888      0.00000
     26      16.2214      0.00000
     27      18.6740      0.00000
     28      20.0350      0.00000
     29      24.1454      0.00000
     30      24.9403      0.00000
     31      25.8370      0.00000
     32      26.2210      0.00000
     33      26.4080      0.00000
     34      26.5531      0.00000
     35      27.2529      0.00000
     36      28.8247      0.00000
     37      28.8376      0.00000
     38      29.4490      0.00000
     39      29.8674      0.00000
     40      31.5520      0.00000
     41      34.8399      0.00000
     42      35.9636      0.00000
     43      36.2429      0.00000
     44      36.6994      0.00000
     45      36.7474      0.00000
     46      38.0444      0.00000
     47      38.0919      0.00000
     48      38.4542      0.00000

 k-point    31 :       0.4444    0.4444    0.2222
  band No.  band energies     occupation 
      1       3.3486      2.00000
      2       3.6164      2.00000
      3       3.6164      2.00000
      4       3.7588      2.00000
      5       5.5677      2.00000
      6       5.7002      2.00000
      7       5.7002      2.00000
      8       5.9430      2.00000
      9       6.3712      2.00000
     10       6.4955      2.00000
     11       6.4955      2.00000
     12       6.5878      2.00000
     13       6.7467      2.00000
     14       6.8032      2.00000
     15       6.8032      2.00000
     16       6.9437      2.00000
     17       8.4172      2.00000
     18       8.7681      2.00000
     19       8.7681      2.00000
     20       8.8410      2.00000
     21      10.0874      2.00000
     22      11.0956      2.00013
     23      11.0956      2.00013
     24      12.1138     -0.00000
     25      16.2317      0.00000
     26      17.3537      0.00000
     27      17.3537      0.00000
     28      18.6273      0.00000
     29      24.7442      0.00000
     30      25.5000      0.00000
     31      25.5000      0.00000
     32      25.9431      0.00000
     33      27.0703      0.00000
     34      27.0703      0.00000
     35      27.2754      0.00000
     36      27.9133      0.00000
     37      29.0892      0.00000
     38      30.0208      0.00000
     39      30.0208      0.00000
     40      31.2965      0.00000
     41      34.7728      0.00000
     42      35.6980      0.00000
     43      35.6980      0.00000
     44      36.3760      0.00000
     45      37.5764      0.00000
     46      37.9631      0.00000
     47      38.1901      0.00000
     48      38.1901      0.00000

 k-point    32 :       0.3333    0.3333    0.3333
  band No.  band energies     occupation 
      1       2.8687      2.00000
      2       3.6817      2.00000
      3       3.6817      2.00000
      4       3.6817      2.00000
      5       5.5242      2.00000
      6       5.5242      2.00000
      7       5.5242      2.00000
      8       6.2106      2.00000
      9       6.2106      2.00000
     10       6.6640      2.00000
     11       6.6640      2.00000
     12       6.6640      2.00000
     13       6.7487      2.00000
     14       6.7487      2.00000
     15       6.7487      2.00000
     16       6.7980      2.00000
     17       8.5812      2.00000
     18       8.5812      2.00000
     19       9.3559      2.00000
     20       9.3559      2.00000
     21       9.3559      2.00000
     22      12.0573     -0.00000
     23      12.0573     -0.00000
     24      12.0573     -0.00000
     25      15.9479      0.00000
     26      15.9479      0.00000
     27      15.9479      0.00000
     28      19.8950      0.00000
     29      25.4555      0.00000
     30      25.4555      0.00000
     31      25.4555      0.00000
     32      26.1753      0.00000
     33      27.4334      0.00000
     34      27.4334      0.00000
     35      27.4334      0.00000
     36      27.8921      0.00000
     37      27.8921      0.00000
     38      27.8921      0.00000
     39      31.3228      0.00000
     40      31.3228      0.00000
     41      35.4668      0.00000
     42      35.8747      0.00000
     43      35.8747      0.00000
     44      37.5640      0.00000
     45      37.5640      0.00000
     46      37.5640      0.00000
     47      38.5269      0.00000
     48      38.5269      0.00000

 k-point    33 :       0.4444    0.3333    0.3333
  band No.  band energies     occupation 
      1       3.0560      2.00000
      2       3.3372      2.00000
      3       3.5772      2.00000
      4       3.5772      2.00000
      5       5.5790      2.00000
      6       5.5790      2.00000
      7       5.8179      2.00000
      8       6.0611      2.00000
      9       6.2194      2.00000
     10       6.3753      2.00000
     11       6.4860      2.00000
     12       6.4860      2.00000
     13       7.0148      2.00000
     14       7.1722      2.00000
     15       7.2275      2.00000
     16       7.2275      2.00000
     17       9.0112      2.00000
     18       9.0396      2.00000
     19       9.2390      2.00000
     20       9.2390      2.00000
     21       9.2865      2.00000
     22      10.3319      2.00000
     23      12.4423     -0.00000
     24      12.4423     -0.00000
     25      15.0554      0.00000
     26      15.0554      0.00000
     27      17.1382      0.00000
     28      18.4633      0.00000
     29      25.6039      0.00000
     30      25.6039      0.00000
     31      25.8935      0.00000
     32      25.9069      0.00000
     33      26.8686      0.00000
     34      26.8686      0.00000
     35      28.3486      0.00000
     36      28.6628      0.00000
     37      28.6628      0.00000
     38      29.0896      0.00000
     39      29.6549      0.00000
     40      30.6699      0.00000
     41      36.4633      0.00000
     42      36.5044      0.00000
     43      37.0717      0.00000
     44      37.2808      0.00000
     45      37.2808      0.00000
     46      37.4893      0.00000
     47      38.1395      0.00000
     48      38.3902      0.00000

 k-point    34 :       0.4444    0.4444    0.3333
  band No.  band energies     occupation 
      1       3.0878      2.00000
      2       3.2651      2.00000
      3       3.2651      2.00000
      4       3.3457      2.00000
      5       5.7523      2.00000
      6       5.8290      2.00000
      7       5.8290      2.00000
      8       6.0164      2.00000
      9       6.1189      2.00000
     10       6.2283      2.00000
     11       6.2283      2.00000
     12       6.2612      2.00000
     13       7.7137      2.00000
     14       7.7137      2.00000
     15       7.7601      2.00000
     16       7.8886      2.00000
     17       8.8887      2.00000
     18       9.1697      2.00000
     19       9.1697      2.00000
     20       9.1746      2.00000
     21       9.7347      2.00000
     22      10.8918      2.00000
     23      10.8918      2.00000
     24      11.7188     -0.00007
     25      15.1085      0.00000
     26      15.9200      0.00000
     27      15.9200      0.00000
     28      17.0862      0.00000
     29      25.5190      0.00000
     30      25.5911      0.00000
     31      25.5945      0.00000
     32      25.5945      0.00000
     33      27.6972      0.00000
     34      28.0267      0.00000
     35      28.0267      0.00000
     36      28.9299      0.00000
     37      28.9797      0.00000
     38      29.3534      0.00000
     39      29.3534      0.00000
     40      30.3056      0.00000
     41      36.5483      0.00000
     42      37.1247      0.00000
     43      37.1247      0.00000
     44      37.5318      0.00000
     45      37.5515      0.00000
     46      37.9206      0.00000
     47      38.1137      0.00000
     48      38.1138      0.00000

 k-point    35 :       0.4444    0.4444    0.4444
  band No.  band energies     occupation 
      1       2.9965      2.00000
      2       3.0843      2.00000
      3       3.0843      2.00000
      4       3.0843      2.00000
      5       5.9196      2.00000
      6       5.9196      2.00000
      7       5.9196      2.00000
      8       6.0133      2.00000
      9       6.0133      2.00000
     10       6.0626      2.00000
     11       6.0626      2.00000
     12       6.0626      2.00000
     13       8.5366      2.00000
     14       8.5366      2.00000
     15       8.5366      2.00000
     16       9.2082      2.00000
     17       9.2082      2.00000
     18       9.2191      2.00000
     19       9.3101      2.00000
     20       9.3101      2.00000
     21       9.3101      2.00000
     22      10.6056      2.00000
     23      10.6056      2.00000
     24      10.6056      2.00000
     25      15.1198      0.00000
     26      15.1198      0.00000
     27      15.1198      0.00000
     28      15.8795      0.00000
     29      25.2567      0.00000
     30      25.2827      0.00000
     31      25.2827      0.00000
     32      25.2827      0.00000
     33      28.9349      0.00000
     34      28.9349      0.00000
     35      28.9349      0.00000
     36      29.0346      0.00000
     37      29.0346      0.00000
     38      29.0346      0.00000
     39      29.5004      0.00000
     40      29.5004      0.00000
     41      37.6477      0.00000
     42      37.6477      0.00000
     43      37.8034      0.00000
     44      37.8034      0.00000
     45      37.8034      0.00000
     46      38.0192      0.00000
     47      38.0192      0.00000
     48      38.0192      0.00000


--------------------------------------------------------------------------------------------------------


 soft charge-density along one line, spin component           1
         0         1         2         3         4         5         6         7         8         9
 total charge-density along one line
 
 pseudopotential strength for first ion, spin component:           1
 -3.095   0.000  -0.000   0.000   0.000  -3.352   0.000  -0.000
  0.000  -3.095   0.000   0.000  -0.000   0.000  -3.352   0.000
 -0.000   0.000  -3.078   0.000  -0.000  -0.000   0.000  -3.334
  0.000   0.000   0.000  -3.095   0.000   0.000   0.000   0.000
  0.000  -0.000  -0.000   0.000  -3.078   0.000  -0.000  -0.000
 -3.352   0.000  -0.000   0.000   0.000  -3.590   0.000  -0.000
  0.000  -3.352   0.000   0.000  -0.000   0.000  -3.590   0.000
 -0.000   0.000  -3.334   0.000   0.000  -0.000   0.000  -3.573
  0.000   0.000   0.000  -3.352   0.000   0.000   0.000   0.000
  0.000  -0.000   0.000   0.000  -3.334   0.000  -0.000  -0.000
 -0.000  -0.000   0.000  -0.000  -0.000  -0.000  -0.000   0.000
 -0.000  -0.000  -0.000  -0.000   0.000  -0.000  -0.000   0.000
  0.000   0.000   0.000   0.000   0.000   0.000   0.000   0.000
  0.000  -0.000   0.000   0.000   0.000   0.000  -0.000   0.000
 -0.000   0.000  -0.000   0.000   0.000  -0.000   0.000  -0.000
  0.000   0.000   0.000   0.000   0.000   0.000   0.000   0.000
  0.000  -0.000   0.000   0.000   0.000   0.000  -0.000   0.000
 -0.000   0.000  -0.000   0.000   0.000  -0.000   0.000  -0.000
 total augmentation occupancy for first ion, spin component:           1
  6.015   0.000   0.000  -0.000  -0.000  -4.107  -0.000  -0.000   0.000   0.000   0.000   0.000  -0.000   0.000   0.000   0.000
 -0.000   6.015  -0.000  -0.000   0.000   0.000  -4.107   0.000  -0.000  -0.000   0.000   0.000   0.000  -0.000   0.000   0.000
 -0.000   0.000   5.585   0.000   0.000   0.000  -0.000  -3.436  -0.000  -0.000  -0.000   0.000   0.000   0.000   0.000   0.000
 -0.000  -0.000   0.000   6.015  -0.000  -0.000  -0.000  -0.000  -4.107  -0.000   0.000  -0.000  -0.000  -0.000   0.000   0.000
 -0.000   0.000   0.000  -0.000   5.585   0.000  -0.000  -0.000   0.000  -3.436   0.000   0.000   0.000   0.000   0.000   0.000
 -4.107  -0.000   0.000   0.000   0.000   4.109  -0.000  -0.000   0.000  -0.000  -0.000  -0.000  -0.000  -0.000   0.000  -0.000
 -0.000  -4.107   0.000   0.000  -0.000  -0.000   4.109  -0.000   0.000  -0.000   0.000   0.000  -0.000   0.000   0.000  -0.000
 -0.000  -0.000  -3.436  -0.000   0.000  -0.000  -0.000   3.254   0.000   0.000  -0.000  -0.000  -0.000   0.000   0.000   0.000
  0.000   0.000  -0.000  -4.107   0.000   0.000   0.000  -0.000   4.109   0.000   0.000   0.000   0.000  -0.000   0.000  -0.000
  0.000   0.000   0.000   0.000  -3.436   0.000  -0.000  -0.000   0.000   3.254  -0.000  -0.000   0.000  -0.000   0.000   0.000
  0.000   0.000   0.000   0.000   0.000  -0.000   0.000  -0.000   0.000  -0.000   3.170  -0.921  -0.000  -0.000   0.000   0.000
  0.000   0.000   0.000   0.000   0.000  -0.000   0.000  -0.000  -0.000   0.000  -0.921   0.323   0.000   0.000  -0.000   0.000
  0.000   0.000   0.000  -0.000  -0.000  -0.000   0.000   0.000  -0.000  -0.000  -0.000   0.000   0.239   0.000   0.000  -0.008
  0.000  -0.000   0.000  -0.000  -0.000   0.000   0.000  -0.000   0.000   0.000   0.000  -0.000   0.000   0.239  -0.000   0.000
 -0.000   0.000   0.000   0.000  -0.000   0.000  -0.000   0.000   0.000   0.000   0.000  -0.000   0.000  -0.000   0.239   0.000
  0.000   0.000   0.000   0.000   0.000   0.000  -0.000   0.000  -0.000   0.000  -0.000   0.000  -0.008  -0.000   0.000   0.000
  0.000   0.000   0.000   0.000   0.000   0.000   0.000   0.000   0.000   0.000  -0.000  -0.000  -0.000  -0.008  -0.000   0.000
 -0.000  -0.000  -0.000  -0.000   0.000   0.000  -0.000  -0.000  -0.000   0.000  -0.000  -0.000  -0.000   0.000  -0.008   0.000


------------------------ aborting loop because EDIFF is reached ----------------------------------------


    CHARGE:  cpu time    0.0086: real time    0.0088
    FORLOC:  cpu time    0.0001: real time    0.0001
    FORNL :  cpu time    0.0728: real time    0.0728
    STRESS:  cpu time    0.2424: real time    0.2424
    FORCOR:  cpu time    0.0054: real time    0.0058
    FORHAR:  cpu time    0.0008: real time    0.0008
    MIXING:  cpu time    0.0003: real time    0.0003
    OFIELD:  cpu time    0.0001: real time    0.0001

  FORCE on cell =-STRESS in cart. coord.  units (eV):
  Direction    XX          YY          ZZ          XY          YZ          ZX
  --------------------------------------------------------------------------------------
  Alpha Z   303.77998   303.77998   303.77998
  Ewald   -1350.32948 -1350.32948 -1350.32948     0.00000     0.00000     0.00000
  Hartree   133.02457   133.02457   133.02457    -0.00000    -0.00000    -0.00000
  E(xc)    -200.62140  -200.62140  -200.62140     0.00000     0.00000    -0.00000
  Local     224.21699   224.21699   224.21699     0.00000     0.00000     0.00000
  n-local    35.23388     9.17404     2.87796     2.34876     7.82199     3.34966
  augment   269.63289   269.63289   269.63289    -0.00000    -0.00000     0.00000
  Kinetic   621.68067   619.03928   612.77628    -6.25139    -3.55218    -3.82270
  Fock        0.00000     0.00000     0.00000     0.00000     0.00000     0.00000
  -------------------------------------------------------------------------------------
  Total      13.29758    13.29758    13.29758     0.00000     0.00000    -0.00000
  in kB     347.27425   347.27425   347.27425     0.00000     0.00000    -0.00000
  external pressure =      347.27 kB  Pullay stress =        0.00 kB


 VOLUME and BASIS-vectors are now :
 -----------------------------------------------------------------------------
  energy-cutoff  :      400.00
  volume of cell :       61.35
      direct lattice vectors                 reciprocal lattice vectors
     3.944000000  0.000000000  0.000000000     0.253549696  0.000000000  0.000000000
     0.000000000  3.944000000  0.000000000     0.000000000  0.253549696  0.000000000
     0.000000000  0.000000000  3.944000000     0.000000000  0.000000000  0.253549696

  length of vectors
     3.944000000  3.944000000  3.944000000     0.253549696  0.253549696  0.253549696


 FORCES acting on ions
    electron-ion (+dipol)            ewald-force                    non-local-force                 convergence-correction
 -----------------------------------------------------------------------------------------------
   0.278E-13 0.367E-13 0.363E-14   -.118E-13 -.965E-14 -.612E-14   -.397E-22 0.993E-23 0.132E-22   -.235E-13 -.477E-15 0.818E-14
   0.278E-13 -.522E-13 -.864E-13   -.129E-13 0.814E-14 0.469E-14   -.199E-22 0.132E-22 0.397E-22   -.211E-13 0.246E-13 -.127E-13
   -.560E-13 0.346E-13 0.372E-12   0.135E-13 -.866E-14 0.486E-14   0.298E-22 0.199E-22 0.265E-22   0.102E-13 -.105E-13 -.367E-13
   -.569E-13 -.447E-13 -.387E-12   0.124E-13 0.913E-14 -.325E-14   0.132E-22 0.529E-22 0.265E-22   0.104E-13 0.212E-13 0.304E-13
 -----------------------------------------------------------------------------------------------
   -.573E-13 -.256E-13 -.972E-13   0.118E-14 -.103E-14 0.180E-15   -.165E-22 0.960E-22 0.106E-21   -.241E-13 0.349E-13 -.108E-13
 
 
 POSITION                                       TOTAL-FORCE (eV/Angst)
 -----------------------------------------------------------------------------------
      0.00000      0.00000      0.00000         0.000000      0.000000      0.000000
      0.00000      1.97200      1.97200        -0.000000     -0.000000      0.000000
      1.97200      0.00000      1.97200        -0.000000      0.000000     -0.000000
      1.97200      1.97200      0.00000         0.000000      0.000000      0.000000
 -----------------------------------------------------------------------------------
    total drift:                               -0.000000      0.000000     -0.000000


--------------------------------------------------------------------------------------------------------



  FREE ENERGIE OF THE ION-ELECTRON SYSTEM (eV)
  ---------------------------------------------------
  free  energy   TOTEN  =       -11.93580163 eV

  energy  without entropy=      -11.93411442  energy(sigma->0) =      -11.93523923
 


--------------------------------------------------------------------------------------------------------


    POTLOK:  cpu time    0.0055: real time    0.0055


--------------------------------------------------------------------------------------------------------


     LOOP+:  cpu time    6.5521: real time    6.6036
    4ORBIT:  cpu time    0.0000: real time    0.0000

 total amount of memory used by VASP on root node    37943. kBytes
========================================================================

   base      :      30000. kBytes
   nonl-proj :       5879. kBytes
   fftplans  :        147. kBytes
   grid      :        485. kBytes
   one-center:         62. kBytes
   wavefun   :       1370. kBytes
 
  
  
 General timing and accounting informations for this job:
 ========================================================
  
                  Total CPU time used (sec):       21.900
                            User time (sec):       21.768
                          System time (sec):        0.132
                         Elapsed time (sec):       24.994
  
                   Maximum memory used (kb):       69704.
                   Average memory used (kb):           0.
  
                          Minor page faults:        18398
                          Major page faults:           10
                 Voluntary context switches:         1330
