       N       E                     dE             d eps       ncg     rms          rms(c)
DAV:   1     0.619131692599E+02    0.61913E+02   -0.29174E+03    32   0.320E+02
DAV:   2    -0.650666088180E+01   -0.68420E+02   -0.66589E+02    48   0.967E+01
DAV:   3    -0.152036301017E+02   -0.86970E+01   -0.86836E+01    32   0.435E+01
DAV:   4    -0.152836303985E+02   -0.80000E-01   -0.79987E-01    48   0.518E+00
DAV:   5    -0.152843584697E+02   -0.72807E-03   -0.72807E-03    48   0.455E-01    0.615E+00
DAV:   6    -0.148274762191E+02    0.45688E+00   -0.35466E+00    48   0.696E+00    0.354E+00
DAV:   7    -0.147196534499E+02    0.10782E+00   -0.66344E-01    32   0.282E+00    0.191E+00
DAV:   8    -0.146839302054E+02    0.35723E-01   -0.10326E-01    48   0.150E+00    0.393E-01
DAV:   9    -0.146836822225E+02    0.24798E-03   -0.91944E-03    48   0.380E-01    0.143E-01
DAV:  10    -0.146843625205E+02   -0.68030E-03   -0.15954E-03    48   0.182E-01    0.336E-02
DAV:  11    -0.146852080490E+02   -0.84553E-03   -0.16390E-04    32   0.567E-02    0.205E-02
DAV:  12    -0.146854870899E+02   -0.27904E-03   -0.35380E-05    48   0.275E-02    0.797E-03
DAV:  13    -0.146855733988E+02   -0.86309E-04   -0.63256E-06    48   0.127E-02
   1 F= -.14685573E+02 E0= -.14687506E+02  d E =0.579791E-02
