----- GAMESS execution script 'rungms' -----
This job is running on host crcfe01.crc.nd.edu
under operating system Linux at Thu Oct 17 23:45:03 EDT 2019
Available scratch disk space (Kbyte units) at beginning of the job is
Filesystem      1K-blocks  Used  Available Use% Mounted on
AFS            2147483647     0 2147483647   0% /afs
GAMESS temporary binary files will be written to /afs/crc.nd.edu/user/c/cdrisko
GAMESS supplementary output files will be written to /afs/crc.nd.edu/user/c/cdrisko/scr
Copying input file acetaldehyde_opt.inp to your run's scratch directory...

 Distributed Data Interface kickoff program.
 Initiating 1 compute processes on 1 nodes to run the following command:
 /afs/crc.nd.edu/x86_64_linux/g/gamess/nov-2017/gamess/gamess.00.x acetaldehyde_opt 

          ******************************************************
          *         GAMESS VERSION = 11 NOV 2017 (R3)         *
          *             FROM IOWA STATE UNIVERSITY             *
          * M.W.SCHMIDT, K.K.BALDRIDGE, J.A.BOATZ, S.T.ELBERT, *
          *   M.S.GORDON, J.H.JENSEN, S.KOSEKI, N.MATSUNAGA,   *
          *          K.A.NGUYEN, S.J.SU, T.L.WINDUS,           *
          *       TOGETHER WITH M.DUPUIS, J.A.MONTGOMERY       *
          *         J.COMPUT.CHEM.  14, 1347-1363(1993)        *
          **************** 64 BIT INTEL VERSION ****************

  SINCE 1993, STUDENTS AND POSTDOCS WORKING AT IOWA STATE UNIVERSITY
  AND ALSO IN THEIR VARIOUS JOBS AFTER LEAVING ISU HAVE MADE IMPORTANT
  CONTRIBUTIONS TO THE CODE:
     IVANA ADAMOVIC, CHRISTINE AIKENS, YURI ALEXEEV, POOJA ARORA,
     ANDREY ASADCHEV, ROB BELL, PRADIPTA BANDYOPADHYAY, JONATHAN BENTZ,
     BRETT BODE, KURT BRORSEN, CALEB CARLIN, GALINA CHABAN, WEI CHEN,
     CHEOL HO CHOI, PAUL DAY, ALBERT DEFUSCO, NUWAN DESILVA, TIM DUDLEY,
     DMITRI FEDOROV, ALEX FINDLATER, GRAHAM FLETCHER, MARK FREITAG,
     KURT GLAESEMANN, ANASTASIA GUININA,
     DAN KEMP, GRANT MERRILL, NORIYUKI MINEZAWA, JONATHAN MULLIN,
     TAKESHI NAGATA, SEAN NEDD, HEATHER NETZLOFF, BOSILJKA NJEGIC, RYAN OLSON,
     MIKE PAK, BUU PHAM,
     SPENCER PRUITT, LUKE ROSKOP, JIM SHOEMAKER, LYUDMILA SLIPCHENKO,
     TONY SMITH, SAROM SOK LEANG, JIE SONG, TETSUYA TAKETSUGU, SIMON WEBB,
     PENG XU, SOOHAENG YOO, FEDERICO ZAHARIEV

  ADDITIONAL CODE HAS BEEN PROVIDED BY COLLABORATORS IN OTHER GROUPS:
     IOWA STATE UNIVERSITY:
          JOE IVANIC, AARON WEST, LAIMUTIS BYTAUTAS, KLAUS RUEDENBERG
     UNIVERSITY OF TOKYO: KIMIHIKO HIRAO, TAKAHITO NAKAJIMA,
          TAKAO TSUNEDA, MUNEAKI KAMIYA, SUSUMU YANAGISAWA,
          KIYOSHI YAGI, MAHITO CHIBA, SEIKEN TOKURA, NAOAKI KAWAKAMI
     UNIVERSITY OF AARHUS: FRANK JENSEN
     UNIVERSITY OF IOWA: VISVALDAS KAIRYS, HUI LI
     NATIONAL INST. OF STANDARDS AND TECHNOLOGY: WALT STEVENS, DAVID GARMER
     UNIVERSITY OF PISA: BENEDETTA MENNUCCI, JACOPO TOMASI
     UNIVERSITY OF MEMPHIS: HENRY KURTZ, PRAKASHAN KORAMBATH
     UNIVERSITY OF ALBERTA: TOBY ZENG, MARIUSZ KLOBUKOWSKI
     UNIVERSITY OF NEW ENGLAND: MARK SPACKMAN
     MIE UNIVERSITY: HIROAKI UMEDA
     NAT. INST. OF ADVANCED INDUSTRIAL SCIENCE AND TECHNOLOGY: KAZUO KITAURA
     MICHIGAN STATE UNIVERSITY:
          KAROL KOWALSKI, MARTA WLOCH, JEFFREY GOUR, JESSE LUTZ,
          WEI LI, PIOTR PIECUCH
     UNIVERSITY OF SILESIA: MONIKA MUSIAL, STANISLAW KUCHARSKI
     FACULTES UNIVERSITAIRES NOTRE-DAME DE LA PAIX:
          OLIVIER QUINET, BENOIT CHAMPAGNE
     UNIVERSITY OF CALIFORNIA - SANTA BARBARA: BERNARD KIRTMAN
     INSTITUTE FOR MOLECULAR SCIENCE:
          KAZUYA ISHIMURA, MICHIO KATOUDA, AND SHIGERU NAGASE
     UNIVERSITY OF NOTRE DAME: ANNA POMOGAEVA, DAN CHIPMAN
     KYUSHU UNIVERSITY:
          HARUYUKI NAKANO,
          FENG LONG GU, JACEK KORCHOWIEC, MARCIN MAKOWSKI, AND YURIKO AOKI,
          HIROTOSHI MORI AND EISAKU MIYOSHI
     PENNSYLVANIA STATE UNIVERSITY:
          TZVETELIN IORDANOV, CHET SWALINA, JONATHAN SKONE,
          SHARON HAMMES-SCHIFFER
     WASEDA UNIVERSITY:
          MASATO KOBAYASHI, TOMOKO AKAMA, TSUGUKI TOUMA,
          TAKESHI YOSHIKAWA, YASUHIRO IKABATA, JUNJI SEINO,
          YUYA NAKAJIMA, HIROMI NAKAI
     NANJING UNIVERSITY: SHUHUA LI
     UNIVERSITY OF NEBRASKA:
          PEIFENG SU, DEJUN SI, NANDUN THELLAMUREGE, YALI WANG, HUI LI
     UNIVERSITY OF ZURICH: ROBERTO PEVERATI, KIM BALDRIDGE
     N. COPERNICUS UNIVERSITY AND JACKSON STATE UNIVERSITY:
          MARIA BARYSZ
     UNIVERSITY OF COPENHAGEN: Jimmy Kromann, CASPER STEINMANN
     TOKYO INSTITUTE OF TECHNOLOGY: HIROYA NAKATA
     NAGOYA UNIVERSITY: YOSHIO NISHIMOTO, STEPHAN IRLE
     MOSCOW STATE UNIVERSITY: VLADIMIR MIRONOV

 EXECUTION OF GAMESS BEGUN Thu Oct 17 23:45:03 2019

            ECHO OF THE FIRST FEW INPUT CARDS -
 INPUT CARD> $CONTRL SCFTYP= RHF RUNTYP=OPTIMIZE DFTTYP=B3LYP                               
 INPUT CARD>       ICHARG=0 MULT=1 COORD=CART $END                                          
 INPUT CARD> $STATPT METHOD=NR OPTTOL=0.0001 HESS=GUESS NSTEP=50 $END                       
 INPUT CARD> $BASIS GBASIS=N31 NGAUSS=6 NDFUNC=1 $END                                       
 INPUT CARD> $DATA                                                                          
 INPUT CARD>Title Geometry Optimization of Acetaldehyde                                     
 INPUT CARD>C1 1                                                                            
 INPUT CARD>C 6 0.00000000 0.00000000 0.00000000                                            
 INPUT CARD>C 6 -1.39294909 0.57951361 -0.00009298                                          
 INPUT CARD>O 8 -2.41184472 -0.07447832 -0.00020985                                         
 INPUT CARD>H 1 -1.43544365 1.69328369 -0.00004837                                          
 INPUT CARD>H 1 -0.03949399 -1.09196410 0.00007485                                          
 INPUT CARD>F 9 0.55129871 0.35520626 -0.88116272                                           
 INPUT CARD>H 1 0.55140443 0.35522553 0.88105976                                            
 INPUT CARD> $END                                                                           
    1000000 WORDS OF MEMORY AVAILABLE


                    * * * WARNING * * *
 OLD KEYWORD COORD=CART SELECTED, AUTOMATICALLY CHANGED TO COORD=PRINAXIS.
 YOUR MOLECULE'S COORDINATES WILL BE CHANGED TO PRINCIPAL AXES BY
   A) TRANSLATION TO THE CENTER OF MASS, THEN
   B) ROTATION TO HAVE A DIAGONAL MOMENT OF INERTIA TENSOR.

 HOWEVER, NOTHING ELSE IN YOUR INPUT WILL BE ROTATED IN THE SAME WAY,
 SO IF YOU HAVE A $VEC, $VIB, $GRAD, $HESS, EFP PARTICLE COORDINATES,
 OR ANYTHING ELSE THAT DEPENDS ON THE INITIAL ORIENTATION, THAT DATA
 WILL NOT BE USED CORRECTLY IN THIS RUN.

 THE PURPOSE OF COORD=PRINAXIS IS TO BE USED ONCE, ONLY AT THE VERY
 BEGINNING OF A SERIES OF COMPUTATIONS, PERHAPS TO FIND THE SYMMETRY
 UNIQUE ATOMS FROM AN ARBITRARY INITIAL ORIENTATION.

 AFTER THE FIRST RUN, YOU SHOULD USE ONLY COORD=UNIQUE, TO ENSURE THAT
 THE COORDINATES WHICH YOU READ IN ARE THE COORDINATES THAT ARE USED.


     BASIS OPTIONS
     -------------
     GBASIS=N31          IGAUSS=       6      POLAR=POPN31  
     NDFUNC=       1     NFFUNC=       0     DIFFSP=       F
     NPFUNC=       0      DIFFS=       F     BASNAM=        


     RUN TITLE
     ---------
 Title Geometry Optimization of Acetaldehyde                                     

 THE POINT GROUP OF THE MOLECULE IS C1      
 THE ORDER OF THE PRINCIPAL AXIS IS     1

 THE MOMENTS OF INERTIA ARE (AMU-ANGSTROM**2)
 IXX=    14.044   IYY=   101.855   IZZ=   104.142

 ATOM      ATOMIC                      COORDINATES (BOHR)
           CHARGE         X                   Y                   Z
 C           6.0    -1.2149596877       -0.8315476772       -0.4217010289
 C           6.0     1.2762560485        0.5486663500       -0.5524952880
 O           8.0     3.2143491734       -0.1646544645        0.4322008629
 H           1.0     1.2344455137        2.3427733876       -1.6550957596
 H           1.0    -1.0251385601       -2.5642022603        0.6853363489
 F           9.0    -2.6567512609        0.3971502118        0.4269475386
 H           1.0    -1.8710626255       -1.2838020122       -2.3383329842

          INTERNUCLEAR DISTANCES (ANGS.)
          ------------------------------

                1 C          2 C          3 O          4 H          5 H     

   1 C       0.0000000    1.5086892 *  2.4129944 *  2.2198442 *  1.0926781 *
   2 C       1.5086892 *  0.0000000    1.2107245 *  1.1145805 *  2.1507391 *
   3 O       2.4129944 *  1.2107245 *  0.0000000    2.0194904 *  2.5813418 *
   4 H       2.2198442 *  1.1145805 *  2.0194904 *  0.0000000    3.1154904  
   5 H       1.0926781 *  2.1507391 *  2.5813418 *  3.1154904    0.0000000  
   6 F       1.0984305 *  2.1463218 *  3.1210456    2.5522459 *  1.7944129 *
   7 H       1.0984072 *  2.1464496 *  3.1212381    2.5523159 *  1.7943392 *

                6 F          7 H     

   1 C       1.0984305 *  1.0984072 *
   2 C       2.1463218 *  2.1464496 *
   3 O       3.1210456    3.1212381  
   4 H       2.5522459 *  2.5523159 *
   5 H       1.7944129 *  1.7943392 *
   6 F       0.0000000    1.7622225 *
   7 H       1.7622225 *  0.0000000  

  * ... LESS THAN  3.000


     ATOMIC BASIS SET
     ----------------
 THE CONTRACTED PRIMITIVE FUNCTIONS HAVE BEEN UNNORMALIZED
 THE CONTRACTED BASIS FUNCTIONS ARE NOW NORMALIZED TO UNITY

  SHELL TYPE  PRIMITIVE        EXPONENT          CONTRACTION COEFFICIENT(S)

 C         

      1   S       1          3047.5248800    0.001834737132
      1   S       2           457.3695180    0.014037322813
      1   S       3           103.9486850    0.068842622264
      1   S       4            29.2101553    0.232184443216
      1   S       5             9.2866630    0.467941348435
      1   S       6             3.1639270    0.362311985337

      2   L       7             7.8682723   -0.119332419775    0.068999066591
      2   L       8             1.8812885   -0.160854151696    0.316423960957
      2   L       9             0.5442493    1.143456437840    0.744308290898

      3   L      10             0.1687145    1.000000000000    1.000000000000

      4   D      11             0.8000000    1.000000000000

 C         

      5   S      12          3047.5248800    0.001834737132
      5   S      13           457.3695180    0.014037322813
      5   S      14           103.9486850    0.068842622264
      5   S      15            29.2101553    0.232184443216
      5   S      16             9.2866630    0.467941348435
      5   S      17             3.1639270    0.362311985337

      6   L      18             7.8682723   -0.119332419775    0.068999066591
      6   L      19             1.8812885   -0.160854151696    0.316423960957
      6   L      20             0.5442493    1.143456437840    0.744308290898

      7   L      21             0.1687145    1.000000000000    1.000000000000

      8   D      22             0.8000000    1.000000000000

 O         

      9   S      23          5484.6716600    0.001831074430
      9   S      24           825.2349460    0.013950172200
      9   S      25           188.0469580    0.068445078098
      9   S      26            52.9645000    0.232714335992
      9   S      27            16.8975704    0.470192897984
      9   S      28             5.7996353    0.358520852987

     10   L      29            15.5396162   -0.110777549525    0.070874268231
     10   L      30             3.5999336   -0.148026262701    0.339752839147
     10   L      31             1.0137618    1.130767015354    0.727158577316

     11   L      32             0.2700058    1.000000000000    1.000000000000

     12   D      33             0.8000000    1.000000000000

 H         

     13   S      34            18.7311370    0.033494604338
     13   S      35             2.8253944    0.234726953484
     13   S      36             0.6401217    0.813757326146

     14   S      37             0.1612778    1.000000000000

 H         

     15   S      38            18.7311370    0.033494604338
     15   S      39             2.8253944    0.234726953484
     15   S      40             0.6401217    0.813757326146

     16   S      41             0.1612778    1.000000000000

 F         

     17   S      42          7001.7130900    0.001819616901
     17   S      43          1051.3660900    0.013916079607
     17   S      44           239.2856900    0.068405324535
     17   S      45            67.3974453    0.233185760119
     17   S      46            21.5199573    0.471267439240
     17   S      47             7.4031013    0.356618546182

     18   L      48            20.8479528   -0.108506975109    0.071628724237
     18   L      49             4.8083083   -0.146451658147    0.345912102697
     18   L      50             1.3440699    1.128688581135    0.722469956367

     19   L      51             0.3581514    1.000000000000    1.000000000000

     20   D      52             0.8000000    1.000000000000

 H         

     21   S      53            18.7311370    0.033494604338
     21   S      54             2.8253944    0.234726953484
     21   S      55             0.6401217    0.813757326146

     22   S      56             0.1612778    1.000000000000

 TOTAL NUMBER OF BASIS SET SHELLS             =   22
 NUMBER OF CARTESIAN GAUSSIAN BASIS FUNCTIONS =   66
 NUMBER OF ELECTRONS                          =   32
 CHARGE OF MOLECULE                           =    0
 SPIN MULTIPLICITY                            =    1
 NUMBER OF OCCUPIED ORBITALS (ALPHA)          =   16
 NUMBER OF OCCUPIED ORBITALS (BETA )          =   16
 TOTAL NUMBER OF ATOMS                        =    7
 THE NUCLEAR REPULSION ENERGY IS      121.6879068366

     LEBEDEV GRID-BASED DFT OPTIONS
     ------------------------------
     DFTTYP=B3LYP   
     NRAD  =      96     NLEB  =     302
     NRAD0 =      24     NLEB0 =     110
     SWOFF =    5.00E-03 (PURE SCF -> DFT)
     SWITCH=    3.00E-04 (COARSE -> TIGHT GRID)
     THRESH=    0.00E+00 GTHRE=    1.00E+00

 GRIMME'S EMPIRICAL DISPERSION CORRECTION= F

     $CONTRL OPTIONS
     ---------------
 SCFTYP=RHF          RUNTYP=OPTIMIZE     EXETYP=RUN     
 MPLEVL=       0     CITYP =NONE         CCTYP =NONE         VBTYP =NONE    
 DFTTYP=B3LYP        TDDFT =NONE    
 MULT  =       1     ICHARG=       0     NZVAR =       0     COORD =PRINAXIS
 PP    =NONE         RELWFN=NONE         LOCAL =NONE         NUMGRD=       F
 ISPHER=      -1     NOSYM =       0     MAXIT =      30     UNITS =ANGS    
 PLTORB=       F     MOLPLT=       F     AIMPAC=       F     FRIEND=        
 NPRINT=       7     IREST =       0     GEOM  =INPUT   
 NORMF =       0     NORMP =       0     ITOL  =      20     ICUT  =       9
 INTTYP=BEST         GRDTYP=BEST         QMTTOL= 1.0E-06

     $SYSTEM OPTIONS
     ---------------
  REPLICATED MEMORY=     1000000 WORDS (ON EVERY NODE).
 DISTRIBUTED MEMDDI=           0 MILLION WORDS IN AGGREGATE,
 MEMDDI DISTRIBUTED OVER   1 PROCESSORS IS           0 WORDS/PROCESSOR.
 TOTAL MEMORY REQUESTED ON EACH PROCESSOR=     1000000 WORDS.
 TIMLIM=      525600.00 MINUTES, OR     365.0 DAYS.
 PARALL= F  BALTYP=  DLB     KDIAG=    0  COREFL= F
 MXSEQ2=     300 MXSEQ3=     150  mem10=         0

          ----------------
          PROPERTIES INPUT
          ----------------

     MOMENTS            FIELD           POTENTIAL          DENSITY
 IEMOM =       1   IEFLD =       0   IEPOT =       0   IEDEN =       0
 WHERE =COMASS     WHERE =NUCLEI     WHERE =NUCLEI     WHERE =NUCLEI  
 OUTPUT=BOTH       OUTPUT=BOTH       OUTPUT=BOTH       OUTPUT=BOTH    
 IEMINT=       0   IEFINT=       0                     IEDINT=       0
                                                       MORB  =       0
          EXTRAPOLATION IN EFFECT
          DIIS IN EFFECT
 ORBITAL PRINTING OPTION: NPREO=     1    66     2     1

     -------------------------------
     INTEGRAL TRANSFORMATION OPTIONS
     -------------------------------
     NWORD  =            0
     CUTOFF = 1.0E-09     MPTRAN =       0
     DIRTRF =       F     AOINTS =DUP     

          ----------------------
          INTEGRAL INPUT OPTIONS
          ----------------------
 NOPK  =       1 NORDER=       0 SCHWRZ=       T

     ------------------------------------------
     THE POINT GROUP IS C1 , NAXIS= 1, ORDER= 1
     ------------------------------------------

     DIMENSIONS OF THE SYMMETRY SUBSPACES ARE
 A   =   66

 ..... DONE SETTING UP THE RUN .....
 STEP CPU TIME =     0.01 TOTAL CPU TIME =          0.0 (      0.0 MIN)
 TOTAL WALL CLOCK TIME=          0.0 SECONDS, CPU UTILIZATION IS    50.00%


          -----------------------------
          STATIONARY POINT LOCATION RUN
          -----------------------------

 OBTAINING INITIAL HESSIAN, HESS=GUESS   
 CARTESIAN COORDINATE OPTIMIZATION USING BADGER'S RULE FORCE CONSTANT GUESS

          PARAMETERS CONTROLLING GEOMETRY SEARCH ARE
          METHOD =NR                  UPHESS =POWELL  
          NNEG   =         0          NFRZ   =         0
          NSTEP  =        50          IFOLOW =         1
          HESS   =GUESS               RESTAR =         F
          IHREP  =         0          HSSEND =         F
          NPRT   =         0          NPUN   =         0
          OPTTOL = 1.000E-04          RMIN   = 1.500E-03
          RMAX   = 1.000E-01          RLIM   = 7.000E-02
          DXMAX  = 3.000E-01          PURIFY =         F
          MOVIE  =         F          TRUPD  =         T
          TRMAX  = 5.000E-01          TRMIN  = 5.000E-02
          ITBMAT =         5          STPT   =         F
          STSTEP = 1.000E-02          PROJCT=          T

 BEGINNING GEOMETRY SEARCH POINT NSERCH=   0 ...

 COORDINATES OF ALL ATOMS ARE (ANGS)
   ATOM   CHARGE       X              Y              Z
 ------------------------------------------------------------
 C           6.0  -0.6429290255  -0.4400361124  -0.2231545905
 C           6.0   0.6753656651   0.2903417499  -0.2923679367
 O           8.0   1.7009604537  -0.0871313966   0.2287108637
 H           1.0   0.6532404813   1.2397423768  -0.8758390213
 H           1.0  -0.5424800033  -1.3569174986   0.3626644039
 F           9.0  -1.4058923242   0.2101628566   0.2259309241
 H           1.0  -0.9901237733  -0.6793588174  -1.2373926164

          ********************
          1 ELECTRON INTEGRALS
          ********************
 ...... END OF ONE-ELECTRON INTEGRALS ......
 STEP CPU TIME =     0.01 TOTAL CPU TIME =          0.0 (      0.0 MIN)
 TOTAL WALL CLOCK TIME=          0.0 SECONDS, CPU UTILIZATION IS   100.00%

          -------------
          GUESS OPTIONS
          -------------
          GUESS =HUCKEL            NORB  =       0          NORDER=       0
          MIX   =       F          PRTMO =       F          PUNMO =       F
          TOLZ  = 1.0E-08          TOLE  = 1.0E-05
          SYMDEN=       F          PURIFY=       F

 INITIAL GUESS ORBITALS GENERATED BY HUCKEL   ROUTINE.
 HUCKEL GUESS REQUIRES     39228 WORDS.

 SYMMETRIES FOR INITIAL GUESS ORBITALS FOLLOW.   BOTH SET(S).
    16 ORBITALS ARE OCCUPIED (    4 CORE ORBITALS).
     5=A        6=A        7=A        8=A        9=A       10=A       11=A   
    12=A       13=A       14=A       15=A       16=A       17=A       18=A   
    19=A       20=A       21=A       22=A       23=A       24=A       25=A   
    26=A   
 ...... END OF INITIAL ORBITAL SELECTION ......
 STEP CPU TIME =     0.00 TOTAL CPU TIME =          0.0 (      0.0 MIN)
 TOTAL WALL CLOCK TIME=          0.0 SECONDS, CPU UTILIZATION IS    66.67%

                    ----------------------
                    AO INTEGRAL TECHNOLOGY
                    ----------------------
     S,P,L SHELL ROTATED AXIS INTEGRALS, REPROGRAMMED BY
        KAZUYA ISHIMURA (IMS) AND JOSE SIERRA (SYNSTAR).
     S,P,D,L SHELL ROTATED AXIS INTEGRALS PROGRAMMED BY
        KAZUYA ISHIMURA (INSTITUTE FOR MOLECULAR SCIENCE).
     S,P,D,F,G SHELL TO TOTAL QUARTET ANGULAR MOMENTUM SUM 5,
        ERIC PROGRAM BY GRAHAM FLETCHER (ELORET AND NASA ADVANCED
        SUPERCOMPUTING DIVISION, AMES RESEARCH CENTER).
     S,P,D,F,G,L SHELL GENERAL RYS QUADRATURE PROGRAMMED BY
        MICHEL DUPUIS (PACIFIC NORTHWEST NATIONAL LABORATORY).

          --------------------
          2 ELECTRON INTEGRALS
          --------------------

 THE -PK- OPTION IS OFF, THE INTEGRALS ARE NOT IN SUPERMATRIX FORM.
 STORING   15000 INTEGRALS/RECORD ON DISK, USING 12 BYTES/INTEGRAL.
 TWO ELECTRON INTEGRAL EVALUATION REQUIRES   90649 WORDS OF MEMORY.
 SCHWARZ INEQUALITY OVERHEAD:      2204 INTEGRALS, T=        0.00
 II,JST,KST,LST =  1  1  1  1 NREC =         1 INTLOC =    1
 II,JST,KST,LST =  2  1  1  1 NREC =         1 INTLOC =    2
 II,JST,KST,LST =  3  1  1  1 NREC =         1 INTLOC =   34
 II,JST,KST,LST =  4  1  1  1 NREC =         1 INTLOC =  214
 II,JST,KST,LST =  5  1  1  1 NREC =         1 INTLOC = 1189
 II,JST,KST,LST =  6  1  1  1 NREC =         1 INTLOC = 3230
 II,JST,KST,LST =  7  1  1  1 NREC =         2 INTLOC =  979
 II,JST,KST,LST =  8  1  1  1 NREC =         3 INTLOC = 8234
 II,JST,KST,LST =  9  1  1  1 NREC =         7 INTLOC = 6169
 II,JST,KST,LST = 10  1  1  1 NREC =         8 INTLOC = 4862
 II,JST,KST,LST = 11  1  1  1 NREC =        13 INTLOC = 3510
 II,JST,KST,LST = 12  1  1  1 NREC =        20 INTLOC = 2977
 II,JST,KST,LST = 13  1  1  1 NREC =        35 INTLOC = 1781
 II,JST,KST,LST = 14  1  1  1 NREC =        38 INTLOC = 5124
 II,JST,KST,LST = 15  1  1  1 NREC =        41 INTLOC =11944
 II,JST,KST,LST = 16  1  1  1 NREC =        45 INTLOC = 6333
 II,JST,KST,LST = 17  1  1  1 NREC =        49 INTLOC = 5002
 II,JST,KST,LST = 18  1  1  1 NREC =        52 INTLOC = 3806
 II,JST,KST,LST = 19  1  1  1 NREC =        67 INTLOC = 8131
 II,JST,KST,LST = 20  1  1  1 NREC =        90 INTLOC = 4080
 II,JST,KST,LST = 21  1  1  1 NREC =       131 INTLOC = 3623
 II,JST,KST,LST = 22  1  1  1 NREC =       139 INTLOC =10332
 SCHWARZ INEQUALITY TEST SKIPPED        2386 INTEGRAL BLOCKS.
 TOTAL NUMBER OF NONZERO TWO-ELECTRON INTEGRALS =             2219263
        148 INTEGRAL RECORDS WERE STORED ON DISK FILE  8.
  ...... END OF TWO-ELECTRON INTEGRALS .....
 STEP CPU TIME =     0.25 TOTAL CPU TIME =          0.3 (      0.0 MIN)
 TOTAL WALL CLOCK TIME=          0.3 SECONDS, CPU UTILIZATION IS   100.00%

          --------------------------
             R-B3LYP SCF CALCULATION
          --------------------------

     NUCLEAR ENERGY =       121.6879068366
     MAXIT =   30     NPUNCH=    2
     EXTRAP=T  DAMP=F  SHIFT=F  RSTRCT=F  DIIS=T  DEM=F  SOSCF=F
         DENSITY MATRIX CONVERGENCE THRESHOLD=  1.00E-05
     COARSE -> FINE DFT GRID SWITCH THRESHOLD=  3.00E-04 (SWITCH IN $DFT)
                   HF -> DFT SWITCH THRESHOLD=  5.00E-03 (SWOFF IN $DFT)
     MEMORY REQUIRED FOR RHF ITERS=    319420 WORDS.

 DFT CODE IS SWITCHING FROM THE FINE GRID NRAD= 96,  NLEB=  302
                      TO THE COARSE GRID NRAD0= 24, NLEB0=  110

     EXCHANGE FUNCTIONAL   =B88&HFX   
     CORRELATION FUNCTIONAL=LYP88&VWN5
     DFT THRESHOLD         =.197E-07
     GRID CHANGE THRESHOLD =.300E-03
 FOR AN EULER-MACLAURIN QUADRATURE USING  96 RADIAL POINTS:
 SMALLEST GAUSSIAN PRIMITIVE EXPONENT=        0.1612777588 OF TYPE -S-
 ON ATOM NUMBER   4 HAS RADIAL NORMALIZATION=  1.000000
  LARGEST GAUSSIAN PRIMITIVE EXPONENT=     7001.7130900000 OF TYPE -S-
 ON ATOM NUMBER   6 HAS RADIAL NORMALIZATION=  1.000000
 DFT IS SWITCHED OFF, PERFORMING PURE SCF UNTIL SWOFF THRESHOLD IS REACHED.

 ITER EX DEM     TOTAL ENERGY        E CHANGE  DENSITY CHANGE    DIIS ERROR
   1  0  0     -250.7994712254  -250.7994712254   0.304826185   0.694427358
          * * *   INITIATING DIIS PROCEDURE   * * *
   2  1  0     -251.5689460855    -0.7694748601   0.140080120   0.109447615
   3  2  0     -251.6189651888    -0.0500191034   0.081747837   0.066860280
   4  3  0     -251.6512199285    -0.0322547397   0.011295455   0.011833278
   5  4  0     -251.6521258892    -0.0009059606   0.004611860   0.003149594
 CONVERGED TO SWOFF, SO DFT CALCULATION IS NOW SWITCHED ON.
          * * *   INITIATING DIIS PROCEDURE   * * *
   6  5  0     -252.8040417059    -1.1519158167   0.130146806   0.063429436
   7  6  0     -252.8212958274    -0.0172541216   0.053919374   0.026174526
   8  7  0     -252.8174216693     0.0038741581   0.042279297   0.040481620
   9  8  0     -252.8247333515    -0.0073116822   0.009072550   0.009782127
  10  9  0     -252.8250489125    -0.0003155609   0.000689710   0.000601617
  11 10  0     -252.8250517433    -0.0000028309   0.000254142   0.000275828
 DFT CODE IS SWITCHING BACK TO THE FINE GRID
          * * *   INITIATING DIIS PROCEDURE   * * *
  12 11  0     -252.8193425784     0.0057091649   0.003165377   0.001932856
  13 12  0     -252.8193676299    -0.0000250515   0.000904592   0.000514858
  14 13  0     -252.8193674514     0.0000001785   0.000614886   0.000438982
  15 14  0     -252.8193691521    -0.0000017008   0.000268784   0.000204732
  16 15  0     -252.8193693441    -0.0000001920   0.000049290   0.000044867
  17 16  0     -252.8193693579    -0.0000000138   0.000010457   0.000007764
  18 17  0     -252.8193693582    -0.0000000003   0.000002266   0.000002044
  19 18  0     -252.8193693583    -0.0000000001   0.000000323   0.000000204

          -----------------
          DENSITY CONVERGED
          -----------------
     TIME TO FORM FOCK OPERATORS=       7.2 SECONDS (       0.4 SEC/ITER)
     TIME TO SOLVE SCF EQUATIONS=       0.0 SECONDS (       0.0 SEC/ITER)

 FINAL R-B3LYP ENERGY IS     -252.8193693583 AFTER  19 ITERATIONS
 DFT EXCHANGE + CORRELATION ENERGY =       -25.0988673477
 TOTAL ELECTRON NUMBER             =        32.0001302310

          ------------
          EIGENVECTORS
          ------------

                      1          2          3          4          5
                  -24.7276   -19.1584   -10.2728   -10.2659    -1.3777
                     A          A          A          A          A   
    1  C  1  S    0.000068   0.000000   0.017259   0.992716  -0.101161
    2  C  1  S    0.000559   0.000013   0.000709   0.052874   0.182812
    3  C  1  X   -0.000060   0.000053  -0.000286  -0.002932  -0.134069
    4  C  1  Y    0.000113   0.000060  -0.000191   0.002639   0.116344
    5  C  1  Z    0.000054  -0.000051   0.000010   0.001671   0.078528
    6  C  1  S   -0.000050  -0.000260   0.002917  -0.012459   0.059826
    7  C  1  X    0.001243   0.000306   0.001074  -0.002233  -0.003348
    8  C  1  Y   -0.000562  -0.000721   0.001238   0.000169  -0.004059
    9  C  1  Z   -0.000439   0.000592  -0.000521   0.000583  -0.001175
   10  C  1 XX   -0.000452  -0.000030  -0.000528  -0.009031   0.005625
   11  C  1 YY   -0.000355   0.000027  -0.000432  -0.009262  -0.000660
   12  C  1 ZZ   -0.000206   0.000010  -0.000280  -0.009692  -0.012283
   13  C  1 XY    0.000546   0.000024  -0.000187  -0.001166  -0.030876
   14  C  1 XZ    0.000344  -0.000019  -0.000011  -0.000766  -0.020195
   15  C  1 YZ   -0.000283  -0.000000  -0.000005   0.000640   0.017807
   16  C  2  S    0.000012   0.000015   0.992617  -0.017519  -0.008868
   17  C  2  S    0.000207   0.000510   0.049114  -0.001224   0.014649
   18  C  2  X    0.000043  -0.000069   0.000851   0.000135  -0.015771
   19  C  2  Y    0.000026  -0.000023  -0.000214   0.000109  -0.004350
   20  C  2  Z   -0.000030  -0.000011   0.000440  -0.000067   0.003194
   21  C  2  S   -0.001042  -0.002914  -0.008663   0.004661   0.008729
   22  C  2  X    0.000284  -0.002362   0.002802  -0.001959  -0.006176
   23  C  2  Y    0.000492   0.001247  -0.000728  -0.001588  -0.000594
   24  C  2  Z   -0.000169  -0.001429   0.001177   0.000374   0.002499
   25  C  2 XX   -0.000252  -0.000640  -0.008786  -0.000172   0.005625
   26  C  2 YY   -0.000006  -0.000116  -0.009587   0.000004   0.000319
   27  C  2 ZZ   -0.000003  -0.000181  -0.009574  -0.000032  -0.001058
   28  C  2 XY   -0.000029   0.000269  -0.000311  -0.000085   0.003235
   29  C  2 XZ    0.000015  -0.000364   0.000518   0.000010  -0.000407
   30  C  2 YZ    0.000034   0.000152  -0.000273  -0.000020  -0.000593
   31  O  3  S   -0.000010   0.992769  -0.000168   0.000001  -0.001448
   32  O  3  S   -0.000054   0.025741   0.000336  -0.000025   0.003954
   33  O  3  X   -0.000011  -0.001003   0.000069  -0.000009  -0.002181
   34  O  3  Y    0.000008   0.000368  -0.000009   0.000001   0.000168
   35  O  3  Z   -0.000025  -0.000516   0.000017   0.000015  -0.000182
   36  O  3  S    0.000410   0.013576  -0.002633  -0.000245   0.001040
   37  O  3  X   -0.000199  -0.001346   0.001586   0.000209   0.001460
   38  O  3  Y    0.000008   0.000432  -0.000721   0.000236   0.000606
   39  O  3  Z   -0.000028  -0.000646   0.000920  -0.000136  -0.000742
   40  O  3 XX    0.000008  -0.007676  -0.000191   0.000012  -0.000012
   41  O  3 YY   -0.000044  -0.008039   0.000175   0.000023  -0.000032
   42  O  3 ZZ   -0.000007  -0.008000   0.000188  -0.000042   0.000374
   43  O  3 XY   -0.000034  -0.000154   0.000196  -0.000011   0.000080
   44  O  3 XZ    0.000021   0.000237  -0.000304   0.000056  -0.000155
   45  O  3 YZ   -0.000018  -0.000090   0.000188  -0.000077   0.000239
   46  H  4  S    0.000048  -0.000029  -0.000275  -0.000114   0.001727
   47  H  4  S   -0.000154  -0.000489   0.002395   0.000331   0.001230
   48  H  5  S   -0.000136  -0.000028  -0.000047  -0.000059   0.017454
   49  H  5  S   -0.000224  -0.000470   0.000414   0.002245  -0.007070
   50  F  6  S    0.992829  -0.000024  -0.000045  -0.000344  -0.209527
   51  F  6  S    0.019630  -0.000130  -0.000212   0.000704   0.476075
   52  F  6  X    0.000981   0.000004  -0.000033   0.000137   0.112898
   53  F  6  Y   -0.000800   0.000008  -0.000031  -0.000143  -0.093240
   54  F  6  Z   -0.000567   0.000015  -0.000039  -0.000096  -0.066051
   55  F  6  S    0.017211   0.000538   0.000435  -0.003785   0.321617
   56  F  6  X   -0.000011  -0.000029   0.000240  -0.002648   0.017720
   57  F  6  Y   -0.000064  -0.000055   0.000072   0.002426  -0.012290
   58  F  6  Z   -0.000038  -0.000147   0.000137   0.001676  -0.010115
   59  F  6 XX   -0.008401  -0.000107  -0.000037  -0.000350   0.020597
   60  F  6 YY   -0.008411  -0.000113  -0.000126  -0.000079   0.018149
   61  F  6 ZZ   -0.008434  -0.000057  -0.000252   0.000275   0.016185
   62  F  6 XY   -0.000031  -0.000020   0.000070   0.000825  -0.005042
   63  F  6 XZ   -0.000024   0.000025  -0.000041   0.000618  -0.004063
   64  F  6 YZ    0.000030   0.000047   0.000004  -0.000538   0.003138
   65  H  7  S   -0.000136   0.000062  -0.000201  -0.000088   0.018454
   66  H  7  S   -0.000147   0.000207   0.000139   0.002180  -0.006668

                      6          7          8          9         10
                   -1.0514    -0.7363    -0.6424    -0.5979    -0.5799
                     A          A          A          A          A   
    1  C  1  S   -0.011628  -0.153553   0.053505  -0.001466   0.034945
    2  C  1  S    0.020407   0.307552  -0.116558   0.004452  -0.058425
    3  C  1  X    0.034595   0.081945   0.240417   0.133059  -0.143602
    4  C  1  Y    0.003448   0.031871   0.128258  -0.048358   0.323447
    5  C  1  Z   -0.001016  -0.030981  -0.069081   0.308537   0.109341
    6  C  1  S    0.009972   0.235918  -0.094153  -0.000599  -0.107999
    7  C  1  X    0.010547   0.043936   0.039924   0.048898   0.012929
    8  C  1  Y   -0.008130  -0.017712   0.055156  -0.028058   0.071777
    9  C  1  Z    0.009416  -0.022183  -0.006321   0.110585   0.009174
   10  C  1 XX    0.005397  -0.007849  -0.005351  -0.012930  -0.003778
   11  C  1 YY    0.000247  -0.000302   0.015870   0.002069   0.009534
   12  C  1 ZZ   -0.000475  -0.002187  -0.001859   0.008885  -0.017407
   13  C  1 XY    0.004949   0.008181   0.015299   0.009333  -0.024587
   14  C  1 XZ    0.001753   0.005400   0.007972  -0.017022  -0.012027
   15  C  1 YZ   -0.000300  -0.003388   0.001652   0.007412   0.022013
   16  C  2  S   -0.117737  -0.083278  -0.101155  -0.002270   0.027344
   17  C  2  S    0.227237   0.173384   0.207927   0.004474  -0.054956
   18  C  2  X    0.155035  -0.174013  -0.113525  -0.038448   0.020105
   19  C  2  Y   -0.059199  -0.023568   0.069391  -0.050984   0.065486
   20  C  2  Z    0.080286  -0.040060  -0.059129   0.073845   0.032217
   21  C  2  S    0.081129   0.119101   0.201311   0.018041  -0.078046
   22  C  2  X   -0.018564  -0.038137  -0.056586  -0.004904   0.006024
   23  C  2  Y    0.017128   0.012962   0.031026  -0.006496   0.039988
   24  C  2  Z   -0.015673  -0.019739  -0.020622   0.027762   0.013635
   25  C  2 XX    0.011349  -0.000358  -0.009579  -0.002759   0.006697
   26  C  2 YY   -0.013885   0.002934   0.000667  -0.001246  -0.005317
   27  C  2 ZZ   -0.010597  -0.005136  -0.005827   0.000828   0.002274
   28  C  2 XY   -0.013404   0.011889   0.001506   0.002083  -0.005420
   29  C  2 XZ    0.018134  -0.004846  -0.004129  -0.006727  -0.000645
   30  C  2 YZ   -0.007690  -0.002863  -0.004610  -0.001558   0.000599
   31  O  3  S   -0.195592   0.052343   0.049715   0.011323  -0.024583
   32  O  3  S    0.429000  -0.122119  -0.115733  -0.022466   0.053512
   33  O  3  X   -0.139408  -0.021499  -0.040732  -0.037141   0.043060
   34  O  3  Y    0.050380  -0.014940   0.027318  -0.018200   0.026659
   35  O  3  Z   -0.070406   0.000940  -0.021800   0.025739   0.027409
   36  O  3  S    0.389831  -0.118670  -0.129888  -0.049958   0.092470
   37  O  3  X   -0.045955  -0.019367  -0.025650  -0.013562   0.018075
   38  O  3  Y    0.014551  -0.003550   0.014295  -0.011257   0.012075
   39  O  3  Z   -0.022012  -0.002926  -0.016641   0.013927   0.009723
   40  O  3 XX    0.005282   0.004438   0.004415   0.005785  -0.004795
   41  O  3 YY   -0.007190  -0.001149   0.000925   0.000361  -0.000167
   42  O  3 ZZ   -0.002720  -0.000795   0.000464  -0.000690  -0.001744
   43  O  3 XY   -0.007051   0.000531  -0.003310   0.000780  -0.001751
   44  O  3 XZ    0.007586   0.001682   0.003691  -0.000951  -0.002987
   45  O  3 YZ   -0.000671  -0.000044  -0.002581   0.001048   0.000062
   46  H  4  S    0.027755   0.057375   0.113517  -0.034097  -0.008344
   47  H  4  S   -0.014330   0.006356   0.046394  -0.028178  -0.005941
   48  H  5  S    0.005371   0.086648  -0.082033   0.086510  -0.133000
   49  H  5  S   -0.004393   0.010281  -0.026711   0.036191  -0.079039
   50  F  6  S    0.009180   0.089198  -0.045782   0.000828   0.035431
   51  F  6  S   -0.020926  -0.192274   0.083570  -0.003606  -0.059700
   52  F  6  X    0.005027   0.213646  -0.021759   0.200752   0.433053
   53  F  6  Y    0.004250  -0.107299   0.391307  -0.077435  -0.028720
   54  F  6  Z    0.002550  -0.112713   0.096129   0.422290  -0.202461
   55  F  6  S   -0.018540  -0.298853   0.213456   0.002321  -0.195343
   56  F  6  X    0.001121   0.116165   0.005787   0.122549   0.233234
   57  F  6  Y   -0.000198  -0.060022   0.214279  -0.045645   0.010411
   58  F  6  Z   -0.001743  -0.061672   0.045897   0.254300  -0.106272
   59  F  6 XX    0.000008   0.011834   0.004610   0.014661   0.021534
   60  F  6 YY   -0.001309   0.001783  -0.022507   0.003755  -0.005985
   61  F  6 ZZ   -0.000403   0.000966  -0.005022  -0.020245   0.005290
   62  F  6 XY   -0.000317  -0.009487   0.012724  -0.010029  -0.004347
   63  F  6 XZ   -0.000041  -0.009162  -0.000624   0.013437  -0.011790
   64  F  6 YZ    0.000050   0.005523  -0.009921  -0.013221   0.001241
   65  H  7  S    0.003710   0.097872  -0.049746  -0.128424  -0.096333
   66  H  7  S    0.002550   0.017728  -0.013285  -0.066331  -0.062519

                     11         12         13         14         15
                   -0.5279    -0.4464    -0.3901    -0.3732    -0.3235
                     A          A          A          A          A   
    1  C  1  S   -0.036176  -0.015999  -0.006043  -0.027290   0.000313
    2  C  1  S    0.068793   0.028300   0.010649   0.046609  -0.000238
    3  C  1  X    0.158039   0.012446   0.001623  -0.094022  -0.057832
    4  C  1  Y    0.021997  -0.053871  -0.057960  -0.179693   0.138000
    5  C  1  Z   -0.089613  -0.029517   0.022113  -0.055738  -0.295058
    6  C  1  S    0.099208   0.056090   0.027221   0.121732  -0.004613
    7  C  1  X    0.066609   0.004122  -0.024642   0.004580  -0.009703
    8  C  1  Y    0.023783   0.005143  -0.007530  -0.070804   0.040036
    9  C  1  Z   -0.034871  -0.018497   0.012085  -0.024652  -0.080769
   10  C  1 XX   -0.012088  -0.014958  -0.001926  -0.031118  -0.002291
   11  C  1 YY    0.009573   0.004422   0.006204   0.017255  -0.025233
   12  C  1 ZZ    0.000072   0.009861  -0.001592   0.015960   0.027313
   13  C  1 XY    0.001719   0.007462   0.004972  -0.005533   0.013661
   14  C  1 XZ    0.017014  -0.002210   0.013082   0.011970  -0.004797
   15  C  1 YZ   -0.000227  -0.002280  -0.005077   0.003617   0.025630
   16  C  2  S    0.077518   0.044055   0.000798   0.044681  -0.002185
   17  C  2  S   -0.167379  -0.115634  -0.002542  -0.096202   0.002907
   18  C  2  X   -0.131770  -0.171544  -0.087994   0.279440  -0.012815
   19  C  2  Y   -0.262489   0.214404   0.193988   0.086798  -0.041067
   20  C  2  Z    0.117798  -0.196272   0.279339   0.021083   0.059750
   21  C  2  S   -0.195114  -0.060297   0.005732  -0.174531   0.021426
   22  C  2  X   -0.022144  -0.006425  -0.045677   0.106750  -0.026754
   23  C  2  Y   -0.080327   0.062550   0.096632   0.093935   0.009538
   24  C  2  Z    0.053695  -0.045609   0.173443   0.003716   0.003149
   25  C  2 XX    0.008536   0.001888  -0.010627   0.012367   0.002340
   26  C  2 YY   -0.005567   0.012614  -0.004778  -0.009707  -0.012103
   27  C  2 ZZ    0.001882   0.005529   0.017337  -0.004074   0.004076
   28  C  2 XY   -0.000702   0.007327   0.014107   0.002147   0.001827
   29  C  2 XZ    0.000963  -0.006046   0.015002   0.002131   0.013517
   30  C  2 YZ    0.009001  -0.001104  -0.002368   0.009037   0.008348
   31  O  3  S   -0.050955  -0.082253  -0.001514   0.013906  -0.001491
   32  O  3  S    0.109480   0.168797   0.002647  -0.021215   0.009085
   33  O  3  X    0.041927   0.464675  -0.094398  -0.008380  -0.084001
   34  O  3  Y   -0.177533  -0.050074   0.246386   0.289671   0.068512
   35  O  3  Z    0.117713   0.146910   0.418189  -0.185642   0.085422
   36  O  3  S    0.192638   0.361422   0.003785  -0.083089   0.002981
   37  O  3  X    0.015795   0.242399  -0.059340   0.008939  -0.051059
   38  O  3  Y   -0.091061  -0.021646   0.153252   0.167620   0.051459
   39  O  3  Z    0.054939   0.072488   0.260087  -0.114084   0.062779
   40  O  3 XX   -0.000201  -0.031893   0.009942  -0.004087   0.006549
   41  O  3 YY   -0.009025  -0.000210   0.008938   0.008925   0.001495
   42  O  3 ZZ   -0.006796  -0.002888  -0.020105   0.007898  -0.002803
   43  O  3 XY    0.011320   0.005067  -0.015975  -0.010915  -0.004055
   44  O  3 XZ   -0.006158  -0.012765  -0.020297   0.006495  -0.002788
   45  O  3 YZ    0.008826   0.001580   0.000962  -0.009217   0.001829
   46  H  4  S   -0.212271   0.117685   0.014906  -0.034029  -0.058572
   47  H  4  S   -0.117976   0.111930   0.023364  -0.033925  -0.099377
   48  H  5  S    0.017678   0.034757   0.052995   0.115876  -0.235714
   49  H  5  S    0.018484   0.044168   0.051031   0.081514  -0.266931
   50  F  6  S   -0.006634   0.002661   0.006779   0.001799   0.000557
   51  F  6  S    0.001340  -0.010249  -0.013379  -0.012257   0.000907
   52  F  6  X    0.073729   0.039472  -0.088305   0.261900   0.075247
   53  F  6  Y    0.305067   0.034796   0.038703   0.311123  -0.168062
   54  F  6  Z   -0.052948   0.141039  -0.084849   0.075351   0.388081
   55  F  6  S    0.067397  -0.001118  -0.038907   0.017809  -0.005843
   56  F  6  X    0.061335   0.036512  -0.058160   0.199977   0.055338
   57  F  6  Y    0.181514   0.019177   0.027324   0.224697  -0.132169
   58  F  6  Z   -0.042982   0.096609  -0.062385   0.052034   0.298695
   59  F  6 XX    0.004962   0.002388  -0.000780   0.005614   0.003274
   60  F  6 YY   -0.018226   0.000090   0.002636  -0.011533   0.002158
   61  F  6 ZZ   -0.000618  -0.005056   0.003759  -0.002432  -0.002190
   62  F  6 XY    0.005259  -0.000670   0.002758  -0.000104  -0.002903
   63  F  6 XZ   -0.005897   0.002080  -0.000299  -0.001526   0.006226
   64  F  6 YZ   -0.002670  -0.003716   0.002141  -0.004961   0.000212
   65  H  7  S    0.048724   0.044121   0.001495   0.129633   0.223324
   66  H  7  S    0.030545   0.034043   0.002124   0.120892   0.264227

                     16         17         18         19         20
                   -0.2492    -0.0346     0.1214     0.1253     0.1708
                     A          A          A          A          A   
    1  C  1  S   -0.031458   0.001666  -0.107501  -0.037799  -0.018028
    2  C  1  S    0.067723   0.000378   0.140961   0.053865   0.031552
    3  C  1  X    0.224774  -0.026106  -0.031287   0.172323  -0.029138
    4  C  1  Y    0.128531   0.017043  -0.274828  -0.050851   0.207108
    5  C  1  Z    0.027275   0.001750  -0.192270   0.138769  -0.355710
    6  C  1  S    0.255114  -0.044028   1.773037   0.599351   0.261237
    7  C  1  X    0.105347  -0.182971   0.155974   0.441862  -0.327923
    8  C  1  Y    0.070799   0.024955  -0.863519   0.086697   0.707647
    9  C  1  Z    0.002868   0.078169  -0.518779   0.222665  -0.956037
   10  C  1 XX    0.013918  -0.001875  -0.005686   0.003689  -0.004643
   11  C  1 YY   -0.008579   0.003470  -0.008334  -0.014746   0.011267
   12  C  1 ZZ   -0.009955   0.004810  -0.016075   0.003848  -0.000648
   13  C  1 XY    0.008070   0.017031   0.007377  -0.015223  -0.004338
   14  C  1 XZ   -0.003843   0.024556   0.001762   0.008407  -0.003971
   15  C  1 YZ   -0.003997   0.007038   0.003384   0.010273  -0.017745
   16  C  2  S   -0.015806  -0.007820  -0.002063   0.102105   0.068456
   17  C  2  S    0.053040   0.010736   0.034758  -0.149389  -0.070099
   18  C  2  X   -0.133336  -0.144564   0.020062   0.060450  -0.039840
   19  C  2  Y   -0.137560   0.233623   0.091709  -0.238666  -0.081853
   20  C  2  Z    0.043176   0.414315   0.026091   0.193315   0.058307
   21  C  2  S    0.055321   0.157766  -0.075573  -1.537785  -1.249647
   22  C  2  X    0.044407  -0.175549   0.042254   0.430653  -0.278095
   23  C  2  Y   -0.008944   0.199064   0.423105  -0.603262  -0.235798
   24  C  2  Z   -0.007927   0.459080   0.095384   0.471075   0.181030
   25  C  2 XX    0.032747   0.013730  -0.004521   0.003309   0.023964
   26  C  2 YY   -0.021137   0.006081   0.017528   0.014016  -0.005091
   27  C  2 ZZ   -0.011294  -0.019153  -0.007468   0.004744  -0.008144
   28  C  2 XY    0.025913  -0.016302   0.005226   0.010828  -0.008990
   29  C  2 XZ   -0.004196  -0.017976  -0.000714  -0.005586   0.025873
   30  C  2 YZ    0.022055   0.002705   0.002600  -0.005855   0.000575
   31  O  3  S    0.000817   0.000627  -0.003254   0.006782  -0.036515
   32  O  3  S    0.003235   0.004005   0.007480   0.011677   0.054979
   33  O  3  X    0.274332   0.111337  -0.011031   0.011330  -0.098130
   34  O  3  Y    0.430088  -0.209219  -0.081674   0.053596   0.069823
   35  O  3  Z   -0.169476  -0.364580   0.007114  -0.043399  -0.090941
   36  O  3  S   -0.034296  -0.032164   0.063563  -0.218358   0.503186
   37  O  3  X    0.200902   0.127746  -0.039289   0.080805  -0.197273
   38  O  3  Y    0.312872  -0.207988  -0.123704   0.104427   0.139883
   39  O  3  Z   -0.115096  -0.369228  -0.047296  -0.045458  -0.177874
   40  O  3 XX   -0.009252   0.000710   0.003548   0.010314  -0.009143
   41  O  3 YY    0.008409   0.001693   0.000784   0.009474  -0.011917
   42  O  3 ZZ    0.005243   0.001611  -0.001525   0.004469  -0.016231
   43  O  3 XY   -0.008540  -0.000443  -0.000097   0.005853  -0.000956
   44  O  3 XZ    0.000323  -0.001019   0.005890  -0.003603   0.005204
   45  O  3 YZ   -0.006539   0.000185   0.002960  -0.001221  -0.004094
   46  H  4  S   -0.168141  -0.015593   0.042694   0.098145   0.017478
   47  H  4  S   -0.277914  -0.018261  -0.234301   1.749240   0.832976
   48  H  5  S   -0.038005  -0.021196  -0.049224  -0.052549   0.065393
   49  H  5  S   -0.114388  -0.043608  -1.197923  -0.648847   1.335559
   50  F  6  S    0.001171   0.022080  -0.022255  -0.006469   0.019582
   51  F  6  S    0.003020  -0.053089   0.022846   0.015721   0.000654
   52  F  6  X   -0.158620  -0.089564   0.033611  -0.024992  -0.013908
   53  F  6  Y   -0.110458  -0.013146   0.036882  -0.028815  -0.067442
   54  F  6  Z   -0.047805   0.020781   0.025113  -0.042534   0.132716
   55  F  6  S   -0.026396  -0.169248   0.304200   0.030931  -0.318994
   56  F  6  X   -0.126706  -0.062004   0.108034  -0.053041  -0.046295
   57  F  6  Y   -0.095500   0.016061   0.050871  -0.027975  -0.085507
   58  F  6  Z   -0.035725   0.022546   0.020143  -0.069635   0.253562
   59  F  6 XX    0.004960   0.005070  -0.009365  -0.000607   0.009136
   60  F  6 YY    0.001793  -0.000722  -0.005119  -0.002180   0.018658
   61  F  6 ZZ    0.000971  -0.001093  -0.015995  -0.002840   0.022365
   62  F  6 XY    0.000244   0.006528  -0.004535  -0.006001   0.006080
   63  F  6 XZ   -0.000971   0.003334  -0.008076   0.006152  -0.009402
   64  F  6 YZ    0.000835   0.002344   0.011159  -0.001410  -0.009612
   65  H  7  S   -0.080085   0.079083  -0.033976   0.022471  -0.044498
   66  H  7  S   -0.141041   0.177010  -1.493118   0.364711  -1.288606

                     21         22         23         24         25
                    0.2255     0.2885     0.3047     0.5043     0.5468
                     A          A          A          A          A   
    1  C  1  S    0.023325   0.039005  -0.100313   0.013897   0.015182
    2  C  1  S   -0.065383  -0.074726   0.098122  -0.231680  -0.059428
    3  C  1  X    0.135356  -0.290067   0.083495  -0.690973  -0.028253
    4  C  1  Y    0.139133  -0.039616   0.132390  -0.605355  -0.086841
    5  C  1  Z   -0.209457  -0.154005  -0.036185  -0.006884  -0.076366
    6  C  1  S   -0.526554  -0.172410   2.859870   0.233779  -0.332904
    7  C  1  X    1.250672  -1.378556   0.417549   1.203348   0.437619
    8  C  1  Y    0.224211   0.062997   1.714248   1.315355  -0.116642
    9  C  1  Z   -0.821837  -0.391618   0.538384   0.069593  -0.017124
   10  C  1 XX   -0.014483   0.044292  -0.016850  -0.021820   0.016348
   11  C  1 YY   -0.009943  -0.016749  -0.008039  -0.016298  -0.034999
   12  C  1 ZZ   -0.004279  -0.015419   0.041095   0.017087   0.007860
   13  C  1 XY   -0.019790   0.004933  -0.025010  -0.019933  -0.037449
   14  C  1 XZ    0.008094   0.002705   0.013156   0.002538  -0.013295
   15  C  1 YZ    0.015073   0.023336  -0.011466  -0.024983   0.008295
   16  C  2  S    0.006111  -0.074636   0.050236  -0.046543   0.001031
   17  C  2  S   -0.051602   0.013034  -0.032233  -0.031370  -0.019398
   18  C  2  X    0.129028  -0.058153   0.279472  -0.035643   0.281962
   19  C  2  Y    0.174642  -0.355418   0.190321   0.051109  -0.395872
   20  C  2  Z    0.124833   0.032623  -0.155122   0.133614  -0.843666
   21  C  2  S    0.159630   2.193550  -0.984101  -0.830913  -0.300741
   22  C  2  X    1.255117   0.823123   1.936333   0.074806  -0.618649
   23  C  2  Y    0.260915  -1.237892   0.428493  -0.014209   0.571687
   24  C  2  Z    0.539651   0.996890  -0.113287  -0.268699   0.990127
   25  C  2 XX    0.004472  -0.002573   0.008182  -0.115595  -0.025347
   26  C  2 YY    0.015824  -0.008786  -0.004881  -0.028856   0.030420
   27  C  2 ZZ   -0.005088   0.011626   0.010897   0.038701  -0.020084
   28  C  2 XY    0.008952  -0.010041   0.011861  -0.065505  -0.006724
   29  C  2 XZ    0.002793  -0.006019   0.000295   0.002470   0.000094
   30  C  2 YZ    0.009491   0.014917  -0.012971   0.035648   0.006750
   31  O  3  S    0.057892   0.092960   0.031185   0.002060  -0.009217
   32  O  3  S   -0.059079  -0.085625  -0.012662  -0.111493   0.009089
   33  O  3  X    0.057721   0.142510  -0.071364   0.103252   0.068069
   34  O  3  Y   -0.065126   0.019141  -0.117199   0.087346   0.013510
   35  O  3  Z   -0.001860   0.065264   0.053833  -0.043356  -0.102541
   36  O  3  S   -1.087245  -1.882374  -0.809021   0.334166   0.265567
   37  O  3  X    0.326563   0.776260   0.015215  -0.082468  -0.065033
   38  O  3  Y   -0.294116  -0.076012  -0.290234   0.075260  -0.007543
   39  O  3  Z    0.146996   0.289668   0.301046  -0.018956  -0.162034
   40  O  3 XX    0.005060   0.014958   0.003878   0.002022  -0.019420
   41  O  3 YY    0.041459   0.042586   0.018249  -0.038281  -0.016951
   42  O  3 ZZ    0.019818   0.053035   0.024883  -0.033799   0.034819
   43  O  3 XY    0.013616   0.023363   0.005898  -0.008249   0.030901
   44  O  3 XZ   -0.017765  -0.022140  -0.014124  -0.001002   0.048454
   45  O  3 YZ    0.006240   0.016198  -0.009640   0.005482  -0.005428
   46  H  4  S    0.003619  -0.094744  -0.008735  -0.141582   0.082507
   47  H  4  S   -0.175824   0.732699  -0.422913  -0.005642  -0.006599
   48  H  5  S   -0.032452  -0.110767   0.041445   0.158335  -0.056789
   49  H  5  S    0.997127   0.326563  -0.021758   0.342663   0.042425
   50  F  6  S   -0.073437   0.025585   0.077569   0.001318  -0.010885
   51  F  6  S    0.018157  -0.022071   0.034068   0.023762  -0.027653
   52  F  6  X    0.014201   0.092932  -0.098830  -0.017364  -0.036086
   53  F  6  Y   -0.127875   0.085388   0.031211  -0.047560  -0.101453
   54  F  6  Z   -0.018197   0.027010   0.023083   0.005742  -0.070832
   55  F  6  S    1.150011  -0.485408  -1.502334  -0.096651   0.285994
   56  F  6  X    0.146379   0.126503  -0.439363  -0.153449  -0.029865
   57  F  6  Y   -0.326329   0.208020   0.088962  -0.134365  -0.058462
   58  F  6  Z   -0.049496   0.175863   0.145880   0.007997  -0.032299
   59  F  6 XX   -0.049639   0.012071   0.056500  -0.072182  -0.035460
   60  F  6 YY   -0.064091   0.006443   0.066440   0.067825  -0.022429
   61  F  6 ZZ   -0.056230   0.007227   0.098572   0.027584  -0.011114
   62  F  6 XY   -0.016349   0.019732   0.000680  -0.022277   0.018761
   63  F  6 XZ   -0.009845   0.013406   0.016554   0.019156   0.026050
   64  F  6 YZ    0.013157   0.006620  -0.009008   0.016405   0.002165
   65  H  7  S    0.031914  -0.004610   0.118021   0.072415   0.097822
   66  H  7  S    0.018323  -0.732441  -0.136021   0.221358   0.217672

                     26         27         28         29         30
                    0.6111     0.6401     0.6958     0.7291     0.7675
                     A          A          A          A          A   
    1  C  1  S    0.002146  -0.008249   0.012038   0.015298   0.062299
    2  C  1  S    0.043123  -0.029220   0.097606  -0.158566  -0.024532
    3  C  1  X   -0.183067   0.352779  -0.011145   0.061293   0.483103
    4  C  1  Y    0.173984  -0.156902   0.107880  -0.010093  -0.733507
    5  C  1  Z   -0.536273   0.028978   0.030933  -0.790566  -0.092781
    6  C  1  S   -0.387206  -1.029142   0.128523   0.068278   0.007428
    7  C  1  X    0.297674  -1.294029   0.482617   0.468006  -0.144964
    8  C  1  Y   -0.527634  -0.157534   0.136437  -0.721467   1.573298
    9  C  1  Z    1.742130  -0.503764   0.070618   1.847223  -0.247352
   10  C  1 XX    0.013139  -0.027863   0.030354   0.009135   0.141173
   11  C  1 YY   -0.051504  -0.010896  -0.016507   0.051242  -0.008451
   12  C  1 ZZ    0.043424  -0.001630   0.026353  -0.061213  -0.027314
   13  C  1 XY   -0.014238  -0.135531   0.016211  -0.058682  -0.104851
   14  C  1 XZ    0.060877  -0.042028   0.032586  -0.109519  -0.081417
   15  C  1 YZ    0.053392   0.048507  -0.022805  -0.007765   0.092168
   16  C  2  S    0.006467  -0.031820  -0.052054  -0.010213   0.017035
   17  C  2  S    0.226082  -0.270447   0.717665  -0.557747   0.480156
   18  C  2  X    0.038952   0.813685   0.496038  -0.019634  -0.361006
   19  C  2  Y    0.189015   0.406866  -0.588729  -0.244214  -0.095008
   20  C  2  Z    0.110331   0.118387   0.429400   0.174682   0.046429
   21  C  2  S   -0.705923   1.595549  -0.781141   0.926136  -1.199771
   22  C  2  X   -0.712738  -1.362296  -0.152015  -0.292674   1.016248
   23  C  2  Y   -0.485914  -1.427434   1.172407   1.214442   0.084164
   24  C  2  Z   -0.569026   0.400685  -0.675750  -1.065054   0.023754
   25  C  2 XX   -0.036360  -0.049300  -0.078042  -0.051261  -0.040528
   26  C  2 YY    0.046446   0.002640   0.069948  -0.064620   0.119540
   27  C  2 ZZ    0.023643  -0.018085   0.037332  -0.021303   0.007634
   28  C  2 XY    0.035967   0.042036   0.078955  -0.000693   0.049133
   29  C  2 XZ   -0.040554  -0.023617  -0.099991   0.011361   0.028994
   30  C  2 YZ   -0.069351   0.044449   0.014735   0.073925  -0.059013
   31  O  3  S   -0.015143   0.031097   0.035404  -0.011353  -0.005121
   32  O  3  S    0.030590  -0.121822  -0.101045   0.080100   0.079525
   33  O  3  X    0.205156   0.156469   0.301672  -0.022139  -0.012259
   34  O  3  Y    0.178664   0.058032  -0.228021  -0.176551  -0.057374
   35  O  3  Z   -0.027557   0.029307   0.196855   0.044611  -0.008138
   36  O  3  S    0.589556  -0.183136   0.344316   0.325363  -0.202726
   37  O  3  X   -0.248573   0.395178   0.028637  -0.227525  -0.127876
   38  O  3  Y    0.161786   0.046599  -0.096866   0.039431   0.032133
   39  O  3  Z   -0.054140   0.062290   0.081475  -0.008939  -0.011394
   40  O  3 XX    0.055275  -0.011078   0.143807   0.047411   0.040036
   41  O  3 YY   -0.014388   0.000323  -0.041030   0.010955   0.011351
   42  O  3 ZZ   -0.011136  -0.002643  -0.017321   0.027115  -0.002205
   43  O  3 XY   -0.005708  -0.066137  -0.056812  -0.002477   0.008176
   44  O  3 XZ    0.005319   0.035555   0.106496  -0.009673  -0.010271
   45  O  3 YZ   -0.021613  -0.023194  -0.034412   0.003734  -0.005784
   46  H  4  S    0.504107  -0.085371   0.050122  -0.295351   0.305991
   47  H  4  S   -0.021957   0.581888  -0.628112  -0.854051  -0.208940
   48  H  5  S   -0.247222  -0.180746   0.217978   0.120729  -0.196168
   49  H  5  S   -0.566881   0.204556   0.144703  -1.124848   1.214516
   50  F  6  S    0.006022  -0.004220   0.004607  -0.019312  -0.024907
   51  F  6  S    0.068065  -0.130239   0.097340  -0.019594   0.295149
   52  F  6  X    0.006130   0.109871  -0.042599   0.056375   0.346556
   53  F  6  Y    0.107417  -0.136814   0.002556  -0.122973  -0.111392
   54  F  6  Z   -0.117677  -0.033401   0.041868  -0.172058  -0.071304
   55  F  6  S   -0.195069   0.078739  -0.119602   0.173659  -0.557221
   56  F  6  X   -0.087258   0.013819  -0.054858   0.031486  -0.012100
   57  F  6  Y    0.040770   0.028203  -0.042083   0.037004  -0.145182
   58  F  6  Z   -0.173904   0.086120  -0.019569  -0.119397  -0.014825
   59  F  6 XX    0.008898  -0.071379   0.040236  -0.081626  -0.022637
   60  F  6 YY    0.006904  -0.078372   0.048415  -0.059564   0.076481
   61  F  6 ZZ    0.084448  -0.068088   0.054197   0.014226   0.093782
   62  F  6 XY    0.001925   0.061740  -0.023797   0.105489   0.063162
   63  F  6 XZ   -0.014738   0.048566  -0.024487  -0.010421   0.102752
   64  F  6 YZ    0.038564  -0.048576  -0.000840  -0.013590  -0.065881
   65  H  7  S    0.296969  -0.221295   0.166596  -0.416013   0.012532
   66  H  7  S    0.657863  -0.497048   0.052002   1.378165   0.135711

                     31         32         33         34         35
                    0.8421     0.8463     0.9139     0.9256     0.9768
                     A          A          A          A          A   
    1  C  1  S   -0.015383  -0.010215   0.076747  -0.012817   0.005561
    2  C  1  S   -0.095593  -0.408572  -1.129240  -0.088837  -0.139234
    3  C  1  X   -0.025563  -0.011235   0.239486  -0.271478   0.196928
    4  C  1  Y   -0.005272   0.056329   0.252166   0.297669  -0.063245
    5  C  1  Z    0.198115   0.360920  -0.027228   0.060372   0.012940
    6  C  1  S    0.287120   1.356126   1.968019   1.487795  -0.470444
    7  C  1  X   -0.009447   0.067443  -0.417532   0.112442  -0.501301
    8  C  1  Y   -0.123445  -0.103924  -0.390597   0.419936  -0.110221
    9  C  1  Z   -0.222301  -0.496115  -0.067231  -0.506841   0.054895
   10  C  1 XX   -0.029587   0.004228  -0.090802   0.035290  -0.068379
   11  C  1 YY   -0.037391  -0.089421   0.007174   0.045727  -0.024536
   12  C  1 ZZ    0.021425   0.030126   0.017924  -0.090744   0.075897
   13  C  1 XY   -0.030175  -0.027910  -0.122584  -0.111742   0.032591
   14  C  1 XZ    0.008972   0.026560  -0.006341  -0.045654   0.039595
   15  C  1 YZ    0.025538   0.099036  -0.014866  -0.088669  -0.010850
   16  C  2  S    0.041977  -0.034381  -0.010653   0.002685  -0.015055
   17  C  2  S   -0.898634  -0.694742   0.069477  -0.071778  -0.305987
   18  C  2  X    0.133042  -0.136149  -0.067518  -0.071947   0.007588
   19  C  2  Y   -0.509520  -0.073649   0.097462  -0.007935   0.047886
   20  C  2  Z    0.353505   0.038643  -0.043945  -0.020450   0.089387
   21  C  2  S    2.235087   0.380292  -0.100292  -0.599356   0.967560
   22  C  2  X   -0.083281   0.037042  -0.016824   0.706517  -0.250341
   23  C  2  Y    1.043734   0.745605  -0.460735  -0.192401  -0.454111
   24  C  2  Z   -0.615216  -0.403019   0.270719   0.426904  -0.486066
   25  C  2 XX   -0.031637  -0.182372  -0.028595  -0.119432   0.001702
   26  C  2 YY    0.004386  -0.011780   0.003984   0.118730  -0.053864
   27  C  2 ZZ   -0.042358  -0.012229   0.031897  -0.028777   0.009001
   28  C  2 XY   -0.073576   0.050412  -0.069518   0.051783  -0.032057
   29  C  2 XZ    0.062912  -0.124439   0.026122   0.014328  -0.045670
   30  C  2 YZ   -0.105342   0.040121  -0.000600  -0.036512   0.008271
   31  O  3  S   -0.001795  -0.011155   0.000262   0.005812   0.000057
   32  O  3  S   -0.181685   0.403555  -0.072707   0.082214   0.008870
   33  O  3  X   -0.301939   0.364453  -0.110426   0.359369   0.206630
   34  O  3  Y    0.177774  -0.134034   0.071386  -0.063904  -0.419900
   35  O  3  Z   -0.154319   0.307490   0.096004  -0.121761  -0.712158
   36  O  3  S    0.123516  -0.303850   0.012169  -0.426964  -0.059078
   37  O  3  X    0.487203  -0.857434   0.201932  -0.449554  -0.257601
   38  O  3  Y   -0.307883   0.188373   0.018666   0.140732   0.612148
   39  O  3  Z    0.279773  -0.485399  -0.147209   0.035761   0.960011
   40  O  3 XX   -0.067530   0.186618  -0.017844   0.073411  -0.016147
   41  O  3 YY   -0.095499   0.147755  -0.034728   0.048501  -0.015048
   42  O  3 ZZ   -0.086495   0.147678  -0.024097   0.023722   0.046086
   43  O  3 XY    0.055020  -0.005371   0.011110   0.016849   0.009313
   44  O  3 XZ   -0.035617   0.023344  -0.014123   0.001357   0.005191
   45  O  3 YZ    0.050564  -0.000154   0.027222   0.021931   0.009666
   46  H  4  S    0.677610  -0.049358   0.022254   0.545464  -0.075758
   47  H  4  S   -1.923703  -0.668040   0.356326  -0.230341  -0.031287
   48  H  5  S   -0.150684  -0.372787   0.751059   0.432210   0.027095
   49  H  5  S    0.151402   0.293512  -1.260020  -0.437698   0.014749
   50  F  6  S    0.004411   0.000532  -0.017146   0.014697   0.010107
   51  F  6  S   -0.140879  -0.164853   0.233134  -0.223828   0.361067
   52  F  6  X   -0.043968  -0.011739   0.152940   0.263061  -0.017504
   53  F  6  Y   -0.037389  -0.055442  -0.168325  -0.053490   0.178633
   54  F  6  Z   -0.049797  -0.101729  -0.064849   0.245483   0.009587
   55  F  6  S    0.157760   0.112254  -0.469138  -0.144170  -0.569815
   56  F  6  X   -0.062378  -0.105945  -0.004940  -0.505523   0.185475
   57  F  6  Y    0.053522   0.126252  -0.011070   0.225119  -0.288082
   58  F  6  Z    0.060011   0.100272  -0.011853   0.156961  -0.136226
   59  F  6 XX   -0.035132  -0.055602   0.058979  -0.138142   0.185716
   60  F  6 YY   -0.041939  -0.064925  -0.014104  -0.118008   0.163509
   61  F  6 ZZ   -0.067927  -0.097047   0.087497  -0.031509   0.149913
   62  F  6 XY    0.011308   0.012983   0.086411  -0.003156  -0.015929
   63  F  6 XZ    0.013131   0.041183   0.043882  -0.009790  -0.008068
   64  F  6 YZ   -0.016446  -0.032681  -0.063684   0.008395  -0.014366
   65  H  7  S    0.085221   0.343404   0.570669  -0.597752   0.257716
   66  H  7  S   -0.391392  -1.024880  -1.012375   0.099156  -0.369358

                     36         37         38         39         40
                    1.0013     1.0816     1.1790     1.2563     1.3678
                     A          A          A          A          A   
    1  C  1  S    0.000994   0.031614  -0.133408   0.003055   0.007510
    2  C  1  S   -0.369886  -0.025012  -1.678715  -0.145581   0.035905
    3  C  1  X   -0.402032   0.024773  -0.069959   0.008559   0.129351
    4  C  1  Y    0.311212   0.061342   0.004086  -0.049620  -0.008416
    5  C  1  Z    0.232477   0.072039   0.022029  -0.108745   0.164151
    6  C  1  S    2.838123   1.382750   5.124906   0.265789  -0.107147
    7  C  1  X    0.936557   0.485476   1.404453  -0.110071  -0.901413
    8  C  1  Y   -0.119543  -0.014282   0.195703  -0.390604   0.246586
    9  C  1  Z    0.094845   0.238025  -0.085105   0.408734  -0.968554
   10  C  1 XX    0.045704   0.048650  -0.056169   0.057957   0.153771
   11  C  1 YY   -0.010242   0.029403  -0.079264   0.052444  -0.018352
   12  C  1 ZZ   -0.049292  -0.027728  -0.075825  -0.113758  -0.127728
   13  C  1 XY   -0.105498  -0.013777   0.122773   0.076247  -0.034028
   14  C  1 XZ   -0.134154  -0.079458   0.021990   0.108859  -0.015897
   15  C  1 YZ    0.134303   0.038040  -0.075551   0.164729  -0.198899
   16  C  2  S    0.020997   0.004273   0.036180   0.017148   0.001444
   17  C  2  S    0.664243   0.134784   0.537428   0.145952   0.048472
   18  C  2  X   -0.050224  -0.147804   0.009645  -0.057369  -0.054881
   19  C  2  Y    0.077377  -0.227460  -0.066875   0.076064   0.113622
   20  C  2  Z    0.013079   0.124711   0.011610   0.062523   0.016836
   21  C  2  S   -2.277129  -0.355343  -3.075770  -0.157980  -0.531670
   22  C  2  X    0.423239   0.926248   1.235434   0.193257  -0.184426
   23  C  2  Y    0.511756   1.589388   1.437286  -0.210383  -0.642599
   24  C  2  Z   -0.337957  -0.776812  -0.392219  -0.297839   0.228531
   25  C  2 XX    0.003192   0.111172   0.023141   0.162510  -0.025416
   26  C  2 YY    0.047575  -0.075698   0.047546  -0.081154   0.134911
   27  C  2 ZZ    0.006393  -0.042367  -0.048473  -0.040459  -0.087187
   28  C  2 XY   -0.028361   0.070020   0.029850  -0.082946   0.090693
   29  C  2 XZ    0.053412   0.003922   0.029292  -0.244328   0.002211
   30  C  2 YZ   -0.016564   0.086659  -0.067964  -0.138817   0.018096
   31  O  3  S   -0.010646  -0.000809  -0.011119  -0.000120  -0.019638
   32  O  3  S   -0.118330   0.028393  -0.135614   0.035832  -0.462811
   33  O  3  X   -0.202785   0.327785   0.055325  -0.002630   0.139109
   34  O  3  Y   -0.281465   0.629353   0.093240  -0.059580  -0.063743
   35  O  3  Z   -0.181907  -0.328774  -0.015273  -0.080971   0.003479
   36  O  3  S    0.677957   0.050482   0.686690  -0.071109   1.024750
   37  O  3  X    0.120687  -0.658504  -0.359544  -0.044805  -0.422589
   38  O  3  Y    0.303516  -1.210491  -0.346017   0.163537   0.258683
   39  O  3  Z    0.227984   0.609007   0.048694   0.290145  -0.138852
   40  O  3 XX   -0.013510  -0.066674  -0.011426  -0.026333  -0.191916
   41  O  3 YY   -0.046883   0.053243  -0.002948  -0.065264  -0.045203
   42  O  3 ZZ   -0.098185   0.023020  -0.120915   0.104830  -0.097694
   43  O  3 XY    0.022868  -0.061681   0.030847   0.068897   0.011334
   44  O  3 XZ    0.027214   0.018728   0.043421   0.041421   0.004242
   45  O  3 YZ   -0.033131  -0.065303  -0.099746  -0.068424   0.058994
   46  H  4  S   -0.175002  -0.254221   0.007303   0.054759   0.216563
   47  H  4  S    0.229120  -0.714151  -0.350153   0.033703   0.324916
   48  H  5  S   -0.360001   0.019147  -0.449482   0.004353   0.139215
   49  H  5  S   -0.355964  -0.275554  -0.676322  -0.310500   0.298358
   50  F  6  S   -0.013631  -0.013863   0.024971  -0.015235   0.009709
   51  F  6  S   -0.593602  -0.130518   0.091209  -0.156362   0.112577
   52  F  6  X    0.250447   0.131502  -0.205389  -0.287005  -0.453074
   53  F  6  Y   -0.171775  -0.129883   0.260969  -0.658998  -0.127678
   54  F  6  Z   -0.328971  -0.127274   0.160367   0.316307  -0.540413
   55  F  6  S    0.580641   0.168924  -0.605147   0.372492  -0.376679
   56  F  6  X   -0.729250  -0.241426   0.342636   0.479095   0.774026
   57  F  6  Y    0.557170   0.249787  -0.448057   0.823389   0.209821
   58  F  6  Z    0.485843   0.131990  -0.298046  -0.477670   0.976503
   59  F  6 XX   -0.336189  -0.105113   0.011032  -0.056910  -0.148822
   60  F  6 YY   -0.282086  -0.071461   0.133839  -0.060001   0.128573
   61  F  6 ZZ   -0.278520  -0.105260   0.194962  -0.101577   0.166372
   62  F  6 XY    0.021204   0.030392   0.036463   0.057278   0.029074
   63  F  6 XZ    0.039471  -0.003056   0.054558   0.051378  -0.092682
   64  F  6 YZ   -0.050999  -0.040012  -0.089992   0.054350   0.047220
   65  H  7  S    0.011993   0.152503  -0.446826  -0.032153  -0.024363
   66  H  7  S   -0.380435  -0.050542  -0.454734   0.080808  -0.514941

                     41         42         43         44         45
                    1.4316     1.4540     1.5243     1.5978     1.6840
                     A          A          A          A          A   
    1  C  1  S    0.008069   0.004805  -0.002676   0.022508  -0.027435
    2  C  1  S    0.047403   0.030119  -0.142105   0.007036   0.158346
    3  C  1  X    0.015591  -0.030702  -0.011992  -0.026257   0.122482
    4  C  1  Y    0.234252   0.070209  -0.017465   0.066257   0.098200
    5  C  1  Z   -0.084434  -0.095399   0.138666   0.069666   0.048267
    6  C  1  S   -0.090265   0.327743   0.768465  -0.528155   0.699947
    7  C  1  X   -0.476203   0.484442  -0.129963   0.125715  -0.183673
    8  C  1  Y   -0.664370  -0.574852   0.220117  -0.444392  -0.691012
    9  C  1  Z    0.770484   1.030987  -0.591177   0.552714   0.560796
   10  C  1 XX    0.110955  -0.065015   0.045757   0.431111  -0.050718
   11  C  1 YY   -0.377877   0.074662   0.061345  -0.284914  -0.086119
   12  C  1 ZZ    0.263850   0.001976  -0.103327  -0.161190   0.117460
   13  C  1 XY    0.010772   0.074772  -0.049808  -0.147139  -0.382812
   14  C  1 XZ   -0.256850  -0.110548   0.177394   0.316052   0.250728
   15  C  1 YZ   -0.144466   0.061141   0.068043  -0.040666  -0.083893
   16  C  2  S    0.001301  -0.030431   0.003615  -0.016814  -0.014509
   17  C  2  S   -0.115077  -0.154835   0.008400  -0.433449   0.031683
   18  C  2  X    0.026411  -0.046080   0.046370   0.028936  -0.163878
   19  C  2  Y    0.029884  -0.051774  -0.078529   0.036086  -0.042876
   20  C  2  Z   -0.018241  -0.049618  -0.144161   0.015311  -0.015954
   21  C  2  S    0.807419  -2.395421   0.026683   0.553005  -0.226160
   22  C  2  X   -0.307881  -1.790571   0.258173  -1.040581  -0.464271
   23  C  2  Y   -0.189014   1.240775   0.062542   0.618298   1.020116
   24  C  2  Z   -0.120792  -1.238190   0.274316  -0.747283  -0.727803
   25  C  2 XX   -0.147725  -0.058561  -0.065370  -0.032887  -0.228446
   26  C  2 YY    0.037951  -0.025128  -0.464565   0.230694   0.161521
   27  C  2 ZZ    0.105572   0.059838   0.524766  -0.241463   0.100411
   28  C  2 XY    0.204455   0.148951   0.204492   0.208899  -0.184089
   29  C  2 XZ    0.310847  -0.113880   0.024601  -0.019708  -0.054195
   30  C  2 YZ    0.106612  -0.112224  -0.299661  -0.106277  -0.051625
   31  O  3  S    0.003066  -0.093118   0.005939  -0.030525  -0.026544
   32  O  3  S    0.110423  -1.596401   0.138962  -0.196352  -0.288464
   33  O  3  X   -0.047884   0.188030  -0.003672  -0.151445   0.002366
   34  O  3  Y   -0.050988  -0.077478  -0.019949  -0.004073   0.143972
   35  O  3  Z   -0.087432   0.129110  -0.087724  -0.031813  -0.047099
   36  O  3  S   -0.233488   5.199332  -0.437604   1.234285   1.332971
   37  O  3  X    0.164113  -1.417529   0.118431  -0.166150  -0.390900
   38  O  3  Y    0.009647   0.435841  -0.132578   0.082356  -0.151528
   39  O  3  Z    0.024947  -0.748952  -0.016478  -0.077745  -0.059403
   40  O  3 XX    0.089605  -0.422984   0.212968  -0.141936   0.014676
   41  O  3 YY    0.122682  -0.364372  -0.063680   0.143360  -0.198597
   42  O  3 ZZ   -0.138974  -0.400873  -0.057778  -0.199717  -0.036984
   43  O  3 XY   -0.118875   0.087903  -0.213045   0.115947   0.114763
   44  O  3 XZ   -0.104321  -0.161353  -0.349115   0.086560  -0.003681
   45  O  3 YZ    0.043006  -0.095814  -0.149950  -0.213574   0.083122
   46  H  4  S   -0.040988  -0.103073  -0.020657  -0.389798  -0.427009
   47  H  4  S    0.008030  -0.420188   0.001496  -0.439329  -0.387067
   48  H  5  S   -0.013232  -0.155825   0.008848   0.065269  -0.372041
   49  H  5  S   -0.509929  -0.511548   0.150002  -0.240611  -0.361366
   50  F  6  S    0.022225   0.015575   0.017481   0.000869   0.022530
   51  F  6  S    0.265990   0.249945   0.237413   0.094774   0.345402
   52  F  6  X   -0.116985   0.145881  -0.024462   0.213028  -0.027927
   53  F  6  Y   -0.234420  -0.027342  -0.032814   0.088025  -0.096598
   54  F  6  Z    0.222018   0.119318  -0.101295   0.168470   0.131161
   55  F  6  S   -0.730618  -0.551503  -0.638758  -0.081682  -0.899333
   56  F  6  X    0.163462  -0.404190  -0.011507  -0.254139  -0.087491
   57  F  6  Y    0.667117   0.110264   0.019195  -0.050705   0.314763
   58  F  6  Z   -0.456875  -0.330610   0.334260  -0.176813  -0.098917
   59  F  6 XX   -0.068009   0.130128   0.092824  -0.062651  -0.101414
   60  F  6 YY    0.339141   0.224767  -0.015567   0.082377  -0.129538
   61  F  6 ZZ    0.060851  -0.077074   0.202391   0.052526   0.585317
   62  F  6 XY   -0.181712   0.017158   0.052044   0.155938  -0.327333
   63  F  6 XZ    0.143662  -0.141882   0.007562  -0.000925  -0.107627
   64  F  6 YZ   -0.041090  -0.171642   0.155759   0.352505  -0.180683
   65  H  7  S    0.123804   0.120687  -0.138830   0.223117  -0.115062
   66  H  7  S    0.118746   0.383642  -0.396847   0.114644   0.042321

                     46         47         48         49         50
                    1.7272     1.7610     1.8090     1.9182     1.9579
                     A          A          A          A          A   
    1  C  1  S   -0.004349  -0.004463   0.001902  -0.017568  -0.072083
    2  C  1  S   -0.102730  -0.226298  -0.098141   0.227773  -0.641620
    3  C  1  X   -0.078223   0.006493   0.008974   0.323944  -0.174281
    4  C  1  Y    0.000749   0.138403  -0.040869   0.129144   0.174719
    5  C  1  Z   -0.092845   0.008116   0.034749  -0.097776   0.134559
    6  C  1  S    0.233423   0.517641  -0.394840  -0.493491   4.717063
    7  C  1  X    0.323503   0.264792   0.812047   0.914923   0.143828
    8  C  1  Y   -0.134818  -0.127124  -0.445941  -0.352372   1.120444
    9  C  1  Z    0.110071  -0.280914   0.585024  -0.210889   0.650830
   10  C  1 XX   -0.019380   0.170593   0.150833   0.003356   0.134783
   11  C  1 YY   -0.090815  -0.285443   0.061592  -0.174373   0.110347
   12  C  1 ZZ    0.135183   0.127169  -0.169514   0.159397  -0.243369
   13  C  1 XY    0.035331  -0.037199  -0.020360   0.114408  -0.190921
   14  C  1 XZ    0.166187  -0.088517   0.225924   0.097287  -0.173712
   15  C  1 YZ    0.264528  -0.088058  -0.099988  -0.098422   0.218631
   16  C  2  S    0.006590   0.011276   0.017220   0.008371   0.013077
   17  C  2  S    0.132430  -0.026162   0.103721   0.301580   0.235791
   18  C  2  X   -0.109954  -0.017475  -0.057084   0.005642   0.055162
   19  C  2  Y   -0.134622   0.001252  -0.066312   0.094798   0.043757
   20  C  2  Z    0.030336   0.077547  -0.049741  -0.039532   0.004589
   21  C  2  S   -1.552417  -0.569392  -0.778545  -1.132504  -1.919517
   22  C  2  X   -0.688707  -0.290992  -0.277879   0.241276   1.152138
   23  C  2  Y    0.567276   0.221241   0.369436   1.094153   0.812452
   24  C  2  Z   -0.592722   0.090324  -0.365342  -0.458673  -0.481561
   25  C  2 XX   -0.033667   0.130952  -0.010758  -0.241352  -0.132382
   26  C  2 YY   -0.010468  -0.140105  -0.105572   0.077127   0.191664
   27  C  2 ZZ    0.067435   0.001648   0.115144   0.147125  -0.126756
   28  C  2 XY    0.095009  -0.047517   0.047286  -0.195538  -0.122917
   29  C  2 XZ   -0.018878  -0.258202  -0.028736  -0.025577   0.210745
   30  C  2 YZ    0.239975   0.096013   0.173382  -0.227676  -0.063446
   31  O  3  S   -0.033795  -0.010770  -0.016478  -0.010058  -0.008091
   32  O  3  S   -0.653656  -0.122821  -0.094294  -0.287149  -0.087830
   33  O  3  X    0.015997  -0.098008  -0.098879   0.145940   0.104045
   34  O  3  Y   -0.054172  -0.005691  -0.068931   0.149606   0.053693
   35  O  3  Z    0.006588   0.082835  -0.029617  -0.061946   0.007259
   36  O  3  S    2.254413   0.583523   0.741016   0.953368   0.289722
   37  O  3  X   -0.617252  -0.058588  -0.105423  -0.491526  -0.301512
   38  O  3  Y    0.201868   0.050942   0.140636  -0.283545  -0.208154
   39  O  3  Z   -0.262575  -0.204203  -0.058666   0.028002   0.076312
   40  O  3 XX   -0.408580  -0.201955  -0.226507   0.235775   0.008536
   41  O  3 YY    0.144223  -0.531623   0.065440  -0.314618  -0.265908
   42  O  3 ZZ   -0.109172   0.658775   0.065002  -0.051596   0.152923
   43  O  3 XY   -0.202232  -0.169011  -0.433160   0.180215  -0.193660
   44  O  3 XZ    0.054746  -0.130571   0.038911  -0.074734   0.021065
   45  O  3 YZ    0.240130  -0.153305   0.450978   0.398507   0.342881
   46  H  4  S    0.162261   0.174207   0.113474  -0.410757  -0.123624
   47  H  4  S   -0.176479  -0.041483  -0.106239  -0.196620  -0.265031
   48  H  5  S    0.118200   0.070327  -0.236152   0.060155  -0.258510
   49  H  5  S   -0.097402  -0.095916  -0.173106   0.081886  -0.359312
   50  F  6  S   -0.004841  -0.005145  -0.030308  -0.039589   0.085348
   51  F  6  S   -0.155946   0.003573  -0.576859  -0.910217   1.396714
   52  F  6  X   -0.036115   0.142315   0.090397   0.027946  -0.099434
   53  F  6  Y    0.007689   0.147823  -0.027173   0.052542   0.017405
   54  F  6  Z   -0.030043  -0.032105   0.217768  -0.042922   0.066807
   55  F  6  S    0.345518   0.064361   1.522071   2.413655  -4.290304
   56  F  6  X    0.018603  -0.173909   0.006849   0.253605  -0.573928
   57  F  6  Y   -0.063110  -0.129550  -0.110993  -0.342333   0.468374
   58  F  6  Z   -0.025166   0.070446  -0.459077  -0.142384   0.250991
   59  F  6 XX    0.159143  -0.232431  -0.383535  -0.262409   0.651487
   60  F  6 YY   -0.434803   0.155478  -0.011521  -0.023938   0.470406
   61  F  6 ZZ    0.146151   0.041178  -0.137079  -0.446081   0.120082
   62  F  6 XY   -0.136607  -0.112848   0.234583   0.276261   0.046539
   63  F  6 XZ    0.469042   0.136044  -0.342297   0.248246  -0.112766
   64  F  6 YZ    0.222140   0.093190  -0.207802   0.220706   0.322261
   65  H  7  S   -0.232968  -0.104003   0.259006  -0.082189  -0.131250
   66  H  7  S    0.091931  -0.169383   0.354478   0.226282  -0.263258

                     51         52         53         54         55
                    2.0212     2.1357     2.1744     2.2976     2.4552
                     A          A          A          A          A   
    1  C  1  S    0.007738   0.053099  -0.016329  -0.056269   0.017930
    2  C  1  S    0.250570   0.097632  -0.070087  -0.181710  -0.181603
    3  C  1  X   -0.078337  -0.129548  -0.217737   0.198631  -0.221061
    4  C  1  Y   -0.077836  -0.077888   0.095258   0.234902  -0.194445
    5  C  1  Z    0.079275  -0.079764  -0.086184   0.146904   0.115884
    6  C  1  S   -1.019315  -1.567231   0.780730   1.890663   0.309752
    7  C  1  X    0.161372  -0.174871  -0.194800   0.880355   0.104539
    8  C  1  Y   -0.334144  -0.203164   0.641332   0.591231  -0.365266
    9  C  1  Z    0.486100  -0.094996  -0.617333   0.478433   0.361948
   10  C  1 XX    0.003938   0.208777   0.187502   0.279492  -0.028880
   11  C  1 YY    0.123772   0.079178  -0.325131   0.271670   0.051761
   12  C  1 ZZ   -0.130080  -0.260406   0.129714  -0.641262   0.063314
   13  C  1 XY   -0.039052   0.372673  -0.071695   0.278134   0.028060
   14  C  1 XZ    0.042974   0.026478   0.094987  -0.297253  -0.385817
   15  C  1 YZ   -0.038161   0.101290   0.508220   0.312977  -0.551991
   16  C  2  S    0.001791  -0.038592   0.051592   0.077957   0.034185
   17  C  2  S    0.122051  -0.505591   0.107995  -0.059980   0.088200
   18  C  2  X   -0.067520   0.244468  -0.126614   0.311790  -0.041498
   19  C  2  Y   -0.048837   0.125637   0.082119   0.112809   0.088613
   20  C  2  Z   -0.002471  -0.042088  -0.116690  -0.043404   0.117809
   21  C  2  S   -0.134875   1.752662  -0.469122  -1.734885  -0.118096
   22  C  2  X   -0.220306  -0.511127   0.405053   0.438719  -0.243574
   23  C  2  Y    0.016960  -0.276131  -0.090169   0.844868   0.306427
   24  C  2  Z   -0.420074   0.069354   0.193058  -0.494660  -0.145544
   25  C  2 XX   -0.149642   0.190747  -0.436152  -0.093398  -0.167832
   26  C  2 YY    0.440015   0.174707   0.438605  -0.018295  -0.013988
   27  C  2 ZZ   -0.274091  -0.443473   0.138652   0.323413   0.306812
   28  C  2 XY    0.042805   0.292866   0.329409  -0.151253   0.652104
   29  C  2 XZ    0.328794   0.131938  -0.429665  -0.208011  -0.253004
   30  C  2 YZ    0.381043  -0.454997   0.093764   0.509225   0.029879
   31  O  3  S   -0.003763   0.005981   0.002393  -0.006103   0.003673
   32  O  3  S   -0.127705   0.091106   0.472025  -0.037894   0.292599
   33  O  3  X    0.021156   0.050372  -0.363914  -0.081849  -0.283078
   34  O  3  Y   -0.039552  -0.020833   0.183707   0.077309   0.093327
   35  O  3  Z   -0.057663   0.025840  -0.218559  -0.061564  -0.129842
   36  O  3  S    0.468178  -0.483472  -0.588959   0.578563  -0.072783
   37  O  3  X   -0.151589   0.179090   0.192497  -0.253942   0.165496
   38  O  3  Y    0.123911  -0.022475  -0.159392  -0.207867  -0.232345
   39  O  3  Z    0.093170   0.068330   0.167263   0.092940  -0.038899
   40  O  3 XX    0.159011   0.149440   0.118425   0.287394  -0.008085
   41  O  3 YY   -0.370700  -0.250188   0.075100  -0.036225  -0.092498
   42  O  3 ZZ    0.170680   0.110322   0.112814  -0.222681   0.320114
   43  O  3 XY   -0.093048  -0.097197  -0.005582   0.301588   0.353887
   44  O  3 XZ   -0.431044  -0.062531  -0.089402  -0.152648   0.194819
   45  O  3 YZ   -0.299027   0.301763   0.005234   0.128587   0.226115
   46  H  4  S   -0.001554  -0.384578  -0.103823   0.169972  -0.082919
   47  H  4  S   -0.021833  -0.025163   0.162233  -0.337211  -0.058022
   48  H  5  S   -0.142175   0.276107   0.513924   0.031337  -0.446282
   49  H  5  S    0.002624   0.045849   0.119434  -0.153715  -0.089375
   50  F  6  S   -0.006293  -0.012652   0.017440   0.013232   0.001000
   51  F  6  S   -0.543267  -0.089736   0.052215   0.064931   0.129096
   52  F  6  X   -0.154858   0.101802  -0.186043   0.009272   0.041259
   53  F  6  Y   -0.051700  -0.002651   0.124661   0.136687  -0.089791
   54  F  6  Z    0.134335  -0.066050  -0.082115   0.125560   0.064382
   55  F  6  S    1.115397   0.593594  -0.617285  -0.616477  -0.202903
   56  F  6  X    0.278597   0.019689   0.097568  -0.375132   0.002239
   57  F  6  Y    0.064682  -0.126758  -0.033099  -0.150755   0.313979
   58  F  6  Z   -0.296291   0.030271   0.364353  -0.180952  -0.200454
   59  F  6 XX    0.126675  -0.098071   0.160512  -0.374803   0.392989
   60  F  6 YY   -0.406927  -0.233422   0.124477   0.102615  -0.471110
   61  F  6 ZZ   -0.045029   0.243036  -0.199853   0.339390   0.139138
   62  F  6 XY    0.224241  -0.285378   0.041056  -0.144212   0.157272
   63  F  6 XZ    0.009916   0.138173  -0.179305   0.065728  -0.031359
   64  F  6 YZ   -0.022167  -0.308196  -0.337626   0.163165   0.112510
   65  H  7  S    0.274097   0.191774  -0.461072   0.341249   0.249846
   66  H  7  S    0.274830   0.022022  -0.158082   0.008993  -0.045895

                     56         57         58         59         60
                    2.5683     2.6044     2.6992     2.8657     2.8861
                     A          A          A          A          A   
    1  C  1  S    0.004559   0.015586  -0.006355  -0.024675  -0.057264
    2  C  1  S   -0.178124  -0.705589  -0.308150  -0.063430  -0.166035
[...]
   38  O  3  Y    0.000000   0.000000   0.000000   0.000000   0.000000
   39  O  3  Z    0.000000   0.000000   0.000000  -0.000000   0.000000
   40  O  3 XX    0.000000   0.000000   0.000000   0.000000   0.000000
   41  O  3 YY    0.000000   0.000000   0.000000   0.000000   0.000000
   42  O  3 ZZ    0.000000   0.000000   0.000000   0.000000   0.000000
   43  O  3 XY    0.000000   0.000000   0.000000   0.000000   0.000000
   44  O  3 XZ    0.000000   0.000000   0.000000   0.000000   0.000000
   45  O  3 YZ    0.000000   0.000000   0.000000   0.000000   0.000000
   46  H  4  S    0.000000   0.000000   0.000000   0.000000   0.000000
   47  H  4  S    0.000000   0.000000   0.000000   0.000000   0.000000
   48  H  5  S    0.000000   0.000000  -0.000000   0.000000   0.000000
   49  H  5  S    0.000000   0.000000  -0.000000   0.000000   0.000000
   50  F  6  S   -0.000000   0.000079   0.000000   0.000000   0.000000
   51  F  6  S    0.000001  -0.001128   0.000000   0.000000   0.000000
   52  F  6  X    0.011208   0.002145   0.000000   0.000000   0.000000
   53  F  6  Y    0.003322  -0.007390   0.000000   0.000000   0.000000
   54  F  6  Z    0.000016   0.011202   0.000000   0.000000   0.000000
   55  F  6  S    0.000000   0.001072   0.000000   0.000000   0.000000
   56  F  6  X   -0.024723  -0.004731   0.000000   0.000000   0.000000
   57  F  6  Y   -0.007327   0.016299   0.000000   0.000000   0.000000
   58  F  6  Z   -0.000035  -0.024705   0.000000   0.000000   0.000000
   59  F  6 XX    0.255380  -0.478512   0.000000   0.000000   0.000000
   60  F  6 YY   -0.262253  -0.058100   0.000000   0.000000   0.000000
   61  F  6 ZZ    0.006871   0.537232   0.000000   0.000000   0.000000
   62  F  6 XY   -0.471556  -0.151748   0.000000   0.000000   0.000000
   63  F  6 XZ    0.796433   0.217990   0.000000   0.000000   0.000000
   64  F  6 YZ    0.231230  -0.762538   0.000000   0.000000   0.000000
   65  H  7  S    0.000000   0.000000  -0.000000   0.000000   0.000000
   66  H  7  S    0.000000   0.000000   0.000000   0.000000   0.000000

                     21         22         23         24         25
                   -1.1165    -0.6139    -0.3395    -0.3031    -0.0612
                     A          A          A          A          A   
    1  C  1  S   -0.000119   0.000000   0.000000   0.000000   0.001497
    2  C  1  S   -0.000054   0.000000   0.000000   0.000000   0.004788
    3  C  1  X   -0.000179   0.000000  -0.000000  -0.000000   0.001339
    4  C  1  Y   -0.000968   0.000000   0.000000   0.000000   0.006315
    5  C  1  Z   -0.000602   0.000000  -0.000000   0.000000   0.004192
    6  C  1  S    0.001257   0.000000  -0.000000  -0.000000  -0.019609
    7  C  1  X    0.000415   0.000000  -0.000000   0.000000  -0.003734
    8  C  1  Y    0.002229   0.000000   0.000000  -0.000000  -0.017583
    9  C  1  Z    0.001398   0.000000  -0.000000   0.000000  -0.011699
   10  C  1 XX   -0.000389   0.000000   0.000000   0.000000   0.004279
   11  C  1 YY   -0.000332   0.000000   0.000000   0.000000   0.003291
   12  C  1 ZZ   -0.000365   0.000000   0.000000   0.000000   0.003856
   13  C  1 XY    0.000014   0.000000   0.000000   0.000000  -0.000257
   14  C  1 XZ    0.000009   0.000000   0.000000   0.000000  -0.000173
   15  C  1 YZ    0.000046   0.000000   0.000000  -0.000000  -0.000806
   16  C  2  S   -0.090264   0.000000   0.000000  -0.000000  -0.022445
   17  C  2  S    0.419456   0.000000  -0.000000   0.000000   1.193998
   18  C  2  X   -0.161804   0.000000   0.000000  -0.000000   0.075536
   19  C  2  Y   -0.769248   0.000000   0.000000   0.000000   0.371618
   20  C  2  Z   -0.537447   0.000000   0.000000  -0.000000   0.267749
   21  C  2  S    0.038488   0.000000   0.000000  -0.000000  -1.264243
   22  C  2  X    0.004007   0.000000  -0.000000   0.000000  -0.131249
   23  C  2  Y    0.018295   0.000000  -0.000000  -0.000000  -0.641750
   24  C  2  Z    0.012599   0.000000  -0.000000   0.000000  -0.461620
   25  C  2 XX   -0.020849   0.000000   0.000000   0.000000  -0.035524
   26  C  2 YY   -0.078663   0.000000   0.000000  -0.000000  -0.049909
   27  C  2 ZZ   -0.047476   0.000000   0.000000   0.000000  -0.043494
   28  C  2 XY   -0.015050   0.000000   0.000000   0.000000  -0.002720
   29  C  2 XZ   -0.010415   0.000000   0.000000   0.000000  -0.002383
   30  C  2 YZ   -0.048826   0.000000   0.000000  -0.000000  -0.012597
   31  O  3  S    0.000000   0.000000   0.000000   0.000000   0.000000
   32  O  3  S    0.000000   0.000000   0.000000   0.000000   0.000000
   33  O  3  X    0.000000   0.000000   0.000000   0.000000   0.000000
   34  O  3  Y    0.000000   0.000000   0.000000   0.000000   0.000000
   35  O  3  Z    0.000000   0.000000   0.000000   0.000000   0.000000
   36  O  3  S    0.000000   0.000000   0.000000   0.000000   0.000000
   37  O  3  X    0.000000   0.000000   0.000000   0.000000   0.000000
   38  O  3  Y    0.000000   0.000000   0.000000   0.000000   0.000000
   39  O  3  Z    0.000000   0.000000   0.000000   0.000000   0.000000
   40  O  3 XX    0.000000   0.000000   0.000000   0.000000   0.000000
   41  O  3 YY    0.000000   0.000000   0.000000   0.000000   0.000000
   42  O  3 ZZ    0.000000   0.000000   0.000000   0.000000   0.000000
   43  O  3 XY    0.000000   0.000000   0.000000   0.000000   0.000000
   44  O  3 XZ    0.000000   0.000000   0.000000   0.000000   0.000000
   45  O  3 YZ    0.000000   0.000000   0.000000   0.000000   0.000000
   46  H  4  S    0.000000   0.000000   0.000000   0.000000   0.000000
   47  H  4  S    0.000000   0.000000   0.000000   0.000000   0.000000
   48  H  5  S   -0.000000   0.000000  -0.427430   0.000000  -0.000000
   49  H  5  S   -0.000000   0.000000  -0.665449   0.000000  -0.000000
   50  F  6  S    0.000000  -0.466850   0.000000   0.000000   0.000000
   51  F  6  S    0.000000  -1.358873   0.000000   0.000000   0.000000
   52  F  6  X    0.000000   0.000115   0.000000   0.000000   0.000000
   53  F  6  Y    0.000000  -0.000414   0.000000   0.000000   0.000000
   54  F  6  Z    0.000000   0.000666   0.000000   0.000000   0.000000
   55  F  6  S    0.000000   5.483837   0.000000   0.000000   0.000000
   56  F  6  X    0.000000  -0.000216   0.000000   0.000000   0.000000
   57  F  6  Y    0.000000   0.000781   0.000000   0.000000   0.000000
   58  F  6  Z    0.000000  -0.001260   0.000000   0.000000   0.000000
   59  F  6 XX    0.000000  -2.050807   0.000000   0.000000   0.000000
   60  F  6 YY    0.000000  -2.050803   0.000000   0.000000   0.000000
   61  F  6 ZZ    0.000000  -2.050797   0.000000   0.000000   0.000000
   62  F  6 XY    0.000000  -0.000002   0.000000   0.000000   0.000000
   63  F  6 XZ    0.000000   0.000002   0.000000   0.000000   0.000000
   64  F  6 YZ    0.000000  -0.000008   0.000000   0.000000   0.000000
   65  H  7  S   -0.000000   0.000000   0.000000  -0.427430   0.000000
   66  H  7  S    0.000000   0.000000   0.000000  -0.665449  -0.000000

                     26
                    0.1074
                     A   
    1  C  1  S   -0.000047
    2  C  1  S   -0.000179
    3  C  1  X   -0.000703
    4  C  1  Y    0.000560
    5  C  1  Z   -0.001024
    6  C  1  S    0.000654
    7  C  1  X    0.001875
    8  C  1  Y   -0.001447
    9  C  1  Z    0.002746
   10  C  1 XX   -0.000102
   11  C  1 YY   -0.000261
   12  C  1 ZZ    0.000013
   13  C  1 XY    0.000071
   14  C  1 XZ    0.000086
   15  C  1 YZ    0.000075
   16  C  2  S    0.000136
   17  C  2  S   -0.006785
   18  C  2  X    0.340980
   19  C  2  Y   -0.395403
   20  C  2  Z    0.458433
   21  C  2  S    0.006940
   22  C  2  X   -0.596665
   23  C  2  Y    0.691966
   24  C  2  Z   -0.802188
   25  C  2 XX   -0.005191
   26  C  2 YY    0.032380
   27  C  2 ZZ   -0.026045
   28  C  2 XY   -0.012224
   29  C  2 XZ   -0.015675
   30  C  2 YZ   -0.008258
   31  O  3  S    0.000000
   32  O  3  S    0.000000
   33  O  3  X    0.000000
   34  O  3  Y    0.000000
   35  O  3  Z    0.000000
   36  O  3  S    0.000000
   37  O  3  X    0.000000
   38  O  3  Y    0.000000
   39  O  3  Z    0.000000
   40  O  3 XX    0.000000
   41  O  3 YY    0.000000
   42  O  3 ZZ    0.000000
   43  O  3 XY    0.000000
   44  O  3 XZ    0.000000
   45  O  3 YZ    0.000000
   46  H  4  S    0.000000
   47  H  4  S    0.000000
   48  H  5  S    0.000000
   49  H  5  S    0.000000
   50  F  6  S    0.000000
   51  F  6  S    0.000000
   52  F  6  X    0.000000
   53  F  6  Y    0.000000
   54  F  6  Z    0.000000
   55  F  6  S    0.000000
   56  F  6  X    0.000000
   57  F  6  Y    0.000000
   58  F  6  Z    0.000000
   59  F  6 XX    0.000000
   60  F  6 YY    0.000000
   61  F  6 ZZ    0.000000
   62  F  6 XY    0.000000
   63  F  6 XZ    0.000000
   64  F  6 YZ    0.000000
   65  H  7  S   -0.000000
   66  H  7  S    0.000000

     ---------------------------------------------------------------------
     PROPERTIES FOR THE B3LYP    DFT FUNCTIONAL (RHF  TYPE) DENSITY MATRIX
     ---------------------------------------------------------------------

          -----------------
          ENERGY COMPONENTS
          -----------------

         WAVEFUNCTION NORMALIZATION =       1.0000000000

                ONE ELECTRON ENERGY =    -377.6954007599
                TWO ELECTRON ENERGY =     363.5527051887
           NUCLEAR REPULSION ENERGY =      14.1426955712
                                      ------------------
                       TOTAL ENERGY =       0.0000000000

 ELECTRON-ELECTRON POTENTIAL ENERGY =     363.5527051887
  NUCLEUS-ELECTRON POTENTIAL ENERGY =    -661.4662413057
   NUCLEUS-NUCLEUS POTENTIAL ENERGY =      14.1426955712
                                      ------------------
             TOTAL POTENTIAL ENERGY =    -283.7708405458
               TOTAL KINETIC ENERGY =     283.7708405458
                 VIRIAL RATIO (V/T) =       1.0000000000

          ---------------------------------------
          MULLIKEN AND LOWDIN POPULATION ANALYSES
          ---------------------------------------

     ATOMIC MULLIKEN POPULATION IN EACH MOLECULAR ORBITAL

                      1          2          3          4          5

                  2.000000   2.000000   2.000000   2.000000   2.000000

    1             0.000000   0.000000   0.000000   0.000000   0.000000
    2             0.000000   0.000000   2.000000   0.000000   0.000000
    3             0.000000   2.000000   0.000000   0.000000   0.000000
    4             0.000000   0.000000   0.000000   0.000000   0.000000
    5             0.000000   0.000000   0.000000   0.000000   0.000000
    6             2.000000   0.000000   0.000000   2.000000   2.000000
    7             0.000000   0.000000   0.000000   0.000000   0.000000

                      6          7          8          9         10

                  2.000000   2.000000   2.000000   2.000000   2.000000

    1             0.000000   0.000000   2.000000   0.000000   0.000000
    2             0.000000   0.000000   0.000000   0.000000   0.000000
    3             0.000000   0.000000   0.000000   0.000000   0.000000
    4             0.000000   0.000000   0.000000   0.000000   0.000000
    5             0.000000   0.000000   0.000000   0.000000   0.000000
    6             2.000000   2.000000   0.000000   2.000000   2.000000
    7             0.000000   0.000000   0.000000   0.000000   0.000000

                     11         12         13         14         15

                  2.000000   2.000000   2.000000   2.000000   2.000000

    1             0.000000   0.000000   0.000000   0.000000   0.000000
    2             0.000000   0.000000   0.000000   0.000000   0.000000
    3             0.000000   0.000000   0.000000   0.000000   0.000000
    4             0.000000   0.000000   0.000000   0.000000   0.000000
    5             0.000000   0.000000   0.000000   0.000000   0.000000
    6             2.000000   2.000000   2.000000   2.000000   2.000000
    7             0.000000   0.000000   0.000000   0.000000   0.000000

                     16

                  2.000000

    1             0.000000
    2             0.000000
    3             0.000000
    4             0.000000
    5             0.000000
    6             2.000000
    7             0.000000

               ----- POPULATIONS IN EACH AO -----
                             MULLIKEN      LOWDIN
              1  C  1  S      1.95737     1.93424
              2  C  1  S      0.06677     0.04898
              3  C  1  X      0.00000     0.00000
              4  C  1  Y      0.00002     0.00002
              5  C  1  Z      0.00002     0.00001
              6  C  1  S     -0.00223     0.01488
              7  C  1  X     -0.00000     0.00000
              8  C  1  Y     -0.00000     0.00000
              9  C  1  Z     -0.00000     0.00000
             10  C  1 XX     -0.00733     0.00062
             11  C  1 YY     -0.00731     0.00063
             12  C  1 ZZ     -0.00732     0.00062
             13  C  1 XY      0.00000     0.00000
             14  C  1 XZ      0.00000     0.00000
             15  C  1 YZ      0.00000     0.00000
             16  C  2  S      1.99289     1.95782
             17  C  2  S      0.00991     0.02836
             18  C  2  X      0.00000     0.00000
             19  C  2  Y      0.00000     0.00000
             20  C  2  Z      0.00000     0.00000
             21  C  2  S     -0.00197     0.01265
             22  C  2  X     -0.00000     0.00000
             23  C  2  Y     -0.00000     0.00000
             24  C  2  Z     -0.00000     0.00000
             25  C  2 XX     -0.00028     0.00039
             26  C  2 YY     -0.00028     0.00039
             27  C  2 ZZ     -0.00028     0.00039
             28  C  2 XY      0.00000     0.00000
             29  C  2 XZ      0.00000     0.00000
             30  C  2 YZ      0.00000     0.00000
             31  O  3  S      1.97868     1.94205
             32  O  3  S      0.01925     0.04090
             33  O  3  X      0.00000     0.00000
             34  O  3  Y      0.00000     0.00000
             35  O  3  Z      0.00000     0.00000
             36  O  3  S      0.00520     0.01648
             37  O  3  X     -0.00000     0.00000
             38  O  3  Y     -0.00000     0.00000
             39  O  3  Z     -0.00000     0.00000
             40  O  3 XX     -0.00104     0.00019
             41  O  3 YY     -0.00104     0.00019
             42  O  3 ZZ     -0.00104     0.00019
             43  O  3 XY      0.00000     0.00000
             44  O  3 XZ      0.00000     0.00000
             45  O  3 YZ      0.00000     0.00000
             46  H  4  S      0.00000     0.00000
             47  H  4  S      0.00000     0.00000
             48  H  5  S      0.00000     0.00000
             49  H  5  S      0.00000     0.00000
             50  F  6  S      2.00022     1.99229
             51  F  6  S      1.89479     1.95294
             52  F  6  X      2.00000     2.00000
             53  F  6  Y      2.00001     1.99998
             54  F  6  Z      2.00003     1.99996
             55  F  6  S      1.94493     0.89366
             56  F  6  X      1.99997     1.99997
             57  F  6  Y      1.99959     1.99962
             58  F  6  Z      1.99905     1.99912
             59  F  6 XX      1.08182     1.41550
             60  F  6 YY      1.38224     1.71592
             61  F  6 ZZ      1.00138     1.33507
             62  F  6 XY      1.95394     1.95394
             63  F  6 XZ      1.90496     1.90496
             64  F  6 YZ      0.83707     0.83707
             65  H  7  S      0.00000     0.00000
             66  H  7  S      0.00000     0.00000

          ----- MULLIKEN ATOMIC OVERLAP POPULATIONS -----
          (OFF-DIAGONAL ELEMENTS NEED TO BE MULTIPLIED BY 2)

             1           2           3           4           5

    1    1.9999997
    2    0.0000000   2.0000002
    3    0.0000000   0.0000000   2.0000000
    4    0.0000000   0.0000000   0.0000000   0.0000000
    5    0.0000000   0.0000000   0.0000000   0.0000000   0.0000000
    6    0.0000000   0.0000000   0.0000000   0.0000000   0.0000000
    7    0.0000000   0.0000000   0.0000000   0.0000000   0.0000000

             6           7

    6   26.0000000
    7    0.0000000   0.0000000

          TOTAL MULLIKEN AND LOWDIN ATOMIC POPULATIONS
       ATOM         MULL.POP.    CHARGE          LOW.POP.     CHARGE
    1 C             2.000000    4.000000         2.000000    4.000000
    2 C             2.000000    4.000000         2.000000    4.000000
    3 O             2.000000    6.000000         2.000000    6.000000
    4 H             0.000000    1.000000         0.000000    1.000000
    5 H             0.000000    1.000000         0.000000    1.000000
    6 F            26.000000  -17.000000        26.000000  -17.000000
    7 H             0.000000    1.000000         0.000000    1.000000

          -------------------------------
          BOND ORDER AND VALENCE ANALYSIS     BOND ORDER THRESHOLD=0.050
          -------------------------------

                   BOND                       BOND                       BOND
  ATOM PAIR DIST  ORDER      ATOM PAIR DIST  ORDER      ATOM PAIR DIST  ORDER

                       TOTAL       BONDED        FREE
      ATOM            VALENCE     VALENCE     VALENCE
    1 C                 0.000       0.000       0.000
    2 C                 0.000       0.000       0.000
    3 O                 0.000       0.000       0.000
    4 H                 0.000       0.000       0.000
    5 H                 0.000       0.000       0.000
    6 F                 0.000       0.000      -0.000
    7 H                 0.000       0.000       0.000

          ---------------------
          ELECTROSTATIC MOMENTS
          ---------------------

 POINT   1           X           Y           Z (BOHR)    CHARGE
                -6.731440    5.593868    8.956377        0.00 (A.U.)
         DX          DY          DZ         /D/  (DEBYE)
  -318.522434 1457.724494-1191.752042 1909.630899
 ...... END OF PROPERTY EVALUATION ......
 STEP CPU TIME =     0.03 TOTAL CPU TIME =        266.3 (      4.4 MIN)
 TOTAL WALL CLOCK TIME=        268.9 SECONDS, CPU UTILIZATION IS    99.06%
  $VIB   
          IVIB=   0 IATOM=   0 ICOORD=   0 E=        0.0000000000
  2.837285174E-02-7.897794077E-03-1.296292218E-03-9.351573659E-02-2.511046245E-02
 -7.110241365E-02 1.258132453E-01-3.941482578E-02 9.927132678E-02-2.520223049E-02
  6.868504265E-02-2.625322152E-02-2.154027206E-03-1.831192188E-02 1.806374064E-03
 -1.248875060E-02 2.368972903E-02 1.267498816E-02-2.082535210E-02-1.639767490E-03
 -1.510076161E-02
 -3.185224335E+02 1.457724494E+03-1.191752042E+03
 ......END OF GEOMETRY SEARCH......
 STEP CPU TIME =     0.01 TOTAL CPU TIME =        266.3 (      4.4 MIN)
 TOTAL WALL CLOCK TIME=        268.9 SECONDS, CPU UTILIZATION IS    99.05%
                998100  WORDS OF DYNAMIC MEMORY USED
 EXECUTION OF GAMESS TERMINATED NORMALLY Thu Oct 17 23:49:32 2019
 DDI: 263640 bytes (0.3 MB / 0 MWords) used by master data server.

 ----------------------------------------
 CPU timing information for all processes
 ========================================
 0: 259.630 + 6.719 = 266.350
 ----------------------------------------
 ddikick.x: exited gracefully.
----- accounting info -----
Files used on the master node crcfe01.crc.nd.edu were:
-rw-r--r-- 1 cdrisko campus     521 Oct 17 23:45 /afs/crc.nd.edu/user/c/cdrisko/acetaldehyde_opt.F05
-rw-r--r-- 1 cdrisko campus  770599 Oct 17 23:49 /afs/crc.nd.edu/user/c/cdrisko/acetaldehyde_opt.F07
-rw-r--r-- 1 cdrisko campus 1980176 Oct 17 23:49 /afs/crc.nd.edu/user/c/cdrisko/acetaldehyde_opt.F08
-rw-r--r-- 1 cdrisko campus 1799600 Oct 17 23:49 /afs/crc.nd.edu/user/c/cdrisko/acetaldehyde_opt.F10
-rw-r--r-- 1 cdrisko campus 2041032 Oct 17 23:49 /afs/crc.nd.edu/user/c/cdrisko/acetaldehyde_opt.F22
Thu Oct 17 23:49:35 EDT 2019
0.393u 0.207s 4:32.52 0.2%	0+0k 0+16io 0pf+0w
