----- GAMESS execution script 'rungms' -----
This job is running on host crcfe01.crc.nd.edu
under operating system Linux at Thu Oct 17 12:47:12 EDT 2019
Available scratch disk space (Kbyte units) at beginning of the job is
Filesystem      1K-blocks  Used  Available Use% Mounted on
AFS            2147483647     0 2147483647   0% /afs
GAMESS temporary binary files will be written to /afs/crc.nd.edu/user/c/cdrisko
GAMESS supplementary output files will be written to /afs/crc.nd.edu/user/c/cdrisko/scr
Copying input file acetaldehyde.inp to your run's scratch directory...

 Distributed Data Interface kickoff program.
 Initiating 1 compute processes on 1 nodes to run the following command:
 /afs/crc.nd.edu/x86_64_linux/g/gamess/nov-2017/gamess/gamess.00.x acetaldehyde 

          ******************************************************
          *         GAMESS VERSION = 11 NOV 2017 (R3)         *
          *             FROM IOWA STATE UNIVERSITY             *
          * M.W.SCHMIDT, K.K.BALDRIDGE, J.A.BOATZ, S.T.ELBERT, *
          *   M.S.GORDON, J.H.JENSEN, S.KOSEKI, N.MATSUNAGA,   *
          *          K.A.NGUYEN, S.J.SU, T.L.WINDUS,           *
          *       TOGETHER WITH M.DUPUIS, J.A.MONTGOMERY       *
          *         J.COMPUT.CHEM.  14, 1347-1363(1993)        *
          **************** 64 BIT INTEL VERSION ****************

  SINCE 1993, STUDENTS AND POSTDOCS WORKING AT IOWA STATE UNIVERSITY
  AND ALSO IN THEIR VARIOUS JOBS AFTER LEAVING ISU HAVE MADE IMPORTANT
  CONTRIBUTIONS TO THE CODE:
     IVANA ADAMOVIC, CHRISTINE AIKENS, YURI ALEXEEV, POOJA ARORA,
     ANDREY ASADCHEV, ROB BELL, PRADIPTA BANDYOPADHYAY, JONATHAN BENTZ,
     BRETT BODE, KURT BRORSEN, CALEB CARLIN, GALINA CHABAN, WEI CHEN,
     CHEOL HO CHOI, PAUL DAY, ALBERT DEFUSCO, NUWAN DESILVA, TIM DUDLEY,
     DMITRI FEDOROV, ALEX FINDLATER, GRAHAM FLETCHER, MARK FREITAG,
     KURT GLAESEMANN, ANASTASIA GUININA,
     DAN KEMP, GRANT MERRILL, NORIYUKI MINEZAWA, JONATHAN MULLIN,
     TAKESHI NAGATA, SEAN NEDD, HEATHER NETZLOFF, BOSILJKA NJEGIC, RYAN OLSON,
     MIKE PAK, BUU PHAM,
     SPENCER PRUITT, LUKE ROSKOP, JIM SHOEMAKER, LYUDMILA SLIPCHENKO,
     TONY SMITH, SAROM SOK LEANG, JIE SONG, TETSUYA TAKETSUGU, SIMON WEBB,
     PENG XU, SOOHAENG YOO, FEDERICO ZAHARIEV

  ADDITIONAL CODE HAS BEEN PROVIDED BY COLLABORATORS IN OTHER GROUPS:
     IOWA STATE UNIVERSITY:
          JOE IVANIC, AARON WEST, LAIMUTIS BYTAUTAS, KLAUS RUEDENBERG
     UNIVERSITY OF TOKYO: KIMIHIKO HIRAO, TAKAHITO NAKAJIMA,
          TAKAO TSUNEDA, MUNEAKI KAMIYA, SUSUMU YANAGISAWA,
          KIYOSHI YAGI, MAHITO CHIBA, SEIKEN TOKURA, NAOAKI KAWAKAMI
     UNIVERSITY OF AARHUS: FRANK JENSEN
     UNIVERSITY OF IOWA: VISVALDAS KAIRYS, HUI LI
     NATIONAL INST. OF STANDARDS AND TECHNOLOGY: WALT STEVENS, DAVID GARMER
     UNIVERSITY OF PISA: BENEDETTA MENNUCCI, JACOPO TOMASI
     UNIVERSITY OF MEMPHIS: HENRY KURTZ, PRAKASHAN KORAMBATH
     UNIVERSITY OF ALBERTA: TOBY ZENG, MARIUSZ KLOBUKOWSKI
     UNIVERSITY OF NEW ENGLAND: MARK SPACKMAN
     MIE UNIVERSITY: HIROAKI UMEDA
     NAT. INST. OF ADVANCED INDUSTRIAL SCIENCE AND TECHNOLOGY: KAZUO KITAURA
     MICHIGAN STATE UNIVERSITY:
          KAROL KOWALSKI, MARTA WLOCH, JEFFREY GOUR, JESSE LUTZ,
          WEI LI, PIOTR PIECUCH
     UNIVERSITY OF SILESIA: MONIKA MUSIAL, STANISLAW KUCHARSKI
     FACULTES UNIVERSITAIRES NOTRE-DAME DE LA PAIX:
          OLIVIER QUINET, BENOIT CHAMPAGNE
     UNIVERSITY OF CALIFORNIA - SANTA BARBARA: BERNARD KIRTMAN
     INSTITUTE FOR MOLECULAR SCIENCE:
          KAZUYA ISHIMURA, MICHIO KATOUDA, AND SHIGERU NAGASE
     UNIVERSITY OF NOTRE DAME: ANNA POMOGAEVA, DAN CHIPMAN
     KYUSHU UNIVERSITY:
          HARUYUKI NAKANO,
          FENG LONG GU, JACEK KORCHOWIEC, MARCIN MAKOWSKI, AND YURIKO AOKI,
          HIROTOSHI MORI AND EISAKU MIYOSHI
     PENNSYLVANIA STATE UNIVERSITY:
          TZVETELIN IORDANOV, CHET SWALINA, JONATHAN SKONE,
          SHARON HAMMES-SCHIFFER
     WASEDA UNIVERSITY:
          MASATO KOBAYASHI, TOMOKO AKAMA, TSUGUKI TOUMA,
          TAKESHI YOSHIKAWA, YASUHIRO IKABATA, JUNJI SEINO,
          YUYA NAKAJIMA, HIROMI NAKAI
     NANJING UNIVERSITY: SHUHUA LI
     UNIVERSITY OF NEBRASKA:
          PEIFENG SU, DEJUN SI, NANDUN THELLAMUREGE, YALI WANG, HUI LI
     UNIVERSITY OF ZURICH: ROBERTO PEVERATI, KIM BALDRIDGE
     N. COPERNICUS UNIVERSITY AND JACKSON STATE UNIVERSITY:
          MARIA BARYSZ
     UNIVERSITY OF COPENHAGEN: Jimmy Kromann, CASPER STEINMANN
     TOKYO INSTITUTE OF TECHNOLOGY: HIROYA NAKATA
     NAGOYA UNIVERSITY: YOSHIO NISHIMOTO, STEPHAN IRLE
     MOSCOW STATE UNIVERSITY: VLADIMIR MIRONOV

 EXECUTION OF GAMESS BEGUN Thu Oct 17 12:47:12 2019

            ECHO OF THE FIRST FEW INPUT CARDS -
 INPUT CARD> $CONTRL SCFTYP=RHF DFTTYP=B3LYP RUNTYP=ENERGY                                  
 INPUT CARD>       ISPHER=1 MULT=1 COORD=ZMT NZVAR=15 $END                                  
 INPUT CARD> $BASIS GBASIS=N31 NGAUSS=6 NDFUNC=1 $END                                       
 INPUT CARD> $STATPT IFREEZ(1)=9 $END                                                       
 INPUT CARD> $DATA                                                                          
 INPUT CARD>Title Single Point Energy Calculation of Acetaldehyde                           
 INPUT CARD>C1                                                                              
 INPUT CARD>C                                                                               
 INPUT CARD>C      1   1.5086892                                                            
 INPUT CARD>O      2   1.2107245  1  124.7161                                               
 INPUT CARD>H      2   1.1145804  1  114.7739  3  180.0000  0                               
 INPUT CARD>H      1   1.0926781  2  110.5176  3  150.      0                               
 INPUT CARD>H      1   1.0983769  2  109.8265  3  121.4889  0                               
 INPUT CARD>H      1   1.0983769  2  109.8265  3 -121.4889  0                               
 INPUT CARD> $END                                                                           
    1000000 WORDS OF MEMORY AVAILABLE

     BASIS OPTIONS
     -------------
     GBASIS=N31          IGAUSS=       6      POLAR=POPN31  
     NDFUNC=       1     NFFUNC=       0     DIFFSP=       F
     NPFUNC=       0      DIFFS=       F     BASNAM=        


     RUN TITLE
     ---------
 Title Single Point Energy Calculation of Acetaldehyde                           

 THE POINT GROUP OF THE MOLECULE IS C1      
 THE ORDER OF THE PRINCIPAL AXIS IS     0

 YOUR FULLY SUBSTITUTED Z-MATRIX IS
 C   
 C      1   1.5086892
 O      2   1.2107245  1  124.7161
 H      2   1.1145804  1  114.7739  3  180.0000  0
 H      1   1.0926781  2  110.5176  3  150.0000  0
 H      1   1.0983769  2  109.8265  3  121.4889  0
 H      1   1.0983769  2  109.8265  3 -121.4889  0

 THE MOMENTS OF INERTIA ARE (AMU-ANGSTROM**2)
 IXX=     7.579   IYY=    52.940   IZZ=    56.932

 ATOM      ATOMIC                      COORDINATES (BOHR)
           CHARGE         X                   Y                   Z
 C           6.0    -2.3303084112        0.5209653833        0.0461662046
 C           6.0     0.2325217780       -0.7280874396        0.0508417304
 O           8.0     2.2268468860        0.3894047482       -0.0415531494
 H           1.0     0.1889816048       -2.8316270321        0.1484174273
 H           1.0    -3.7336853942       -0.7098873770       -0.8365514390
 H           1.0    -3.4437043252       -0.1626567219       -1.5666747514
 H           1.0    -3.3752720163       -0.0097962992        1.7592303289

          INTERNUCLEAR DISTANCES (ANGS.)
          ------------------------------

                1 C          2 C          3 O          4 H          5 H     

   1 C       0.0000000    1.5086892 *  2.4129941 *  2.2198436 *  1.0926781 *
   2 C       1.5086892 *  0.0000000    1.2107245 *  1.1145804 *  2.1507392 *
   3 O       2.4129941 *  1.2107245 *  0.0000000    2.0194911 *  3.2348450  
   4 H       2.2198436 *  1.1145804 *  2.0194911 *  0.0000000    2.4168551 *
   5 H       1.0926781 *  2.1507392 *  3.2348450    2.4168551 *  0.0000000  
   6 H       1.0983769 *  2.1463151 *  3.1210656    2.5522231 *  0.5066386 *
   7 H       1.0983769 *  2.1463151 *  3.1210656    2.5522231 *  1.4352971 *

                6 H          7 H     

   1 C       1.0983769 *  1.0983769 *
   2 C       2.1463151 *  2.1463151 *
   3 O       3.1210656    3.1210656  
   4 H       2.5522231 *  2.5522231 *
   5 H       0.5066386 *  1.4352971 *
   6 H       0.0000000    1.7622233 *
   7 H       1.7622233 *  0.0000000  

  * ... LESS THAN  3.000


     ATOMIC BASIS SET
     ----------------
 THE CONTRACTED PRIMITIVE FUNCTIONS HAVE BEEN UNNORMALIZED
 THE CONTRACTED BASIS FUNCTIONS ARE NOW NORMALIZED TO UNITY

  SHELL TYPE  PRIMITIVE        EXPONENT          CONTRACTION COEFFICIENT(S)

 C         

      1   S       1          3047.5248800    0.001834737132
      1   S       2           457.3695180    0.014037322813
      1   S       3           103.9486850    0.068842622264
      1   S       4            29.2101553    0.232184443216
      1   S       5             9.2866630    0.467941348435
      1   S       6             3.1639270    0.362311985337

      2   L       7             7.8682723   -0.119332419775    0.068999066591
      2   L       8             1.8812885   -0.160854151696    0.316423960957
      2   L       9             0.5442493    1.143456437840    0.744308290898

      3   L      10             0.1687145    1.000000000000    1.000000000000

      4   D      11             0.8000000    1.000000000000

 C         

      5   S      12          3047.5248800    0.001834737132
      5   S      13           457.3695180    0.014037322813
      5   S      14           103.9486850    0.068842622264
      5   S      15            29.2101553    0.232184443216
      5   S      16             9.2866630    0.467941348435
      5   S      17             3.1639270    0.362311985337

      6   L      18             7.8682723   -0.119332419775    0.068999066591
      6   L      19             1.8812885   -0.160854151696    0.316423960957
      6   L      20             0.5442493    1.143456437840    0.744308290898

      7   L      21             0.1687145    1.000000000000    1.000000000000

      8   D      22             0.8000000    1.000000000000

 O         

      9   S      23          5484.6716600    0.001831074430
      9   S      24           825.2349460    0.013950172200
      9   S      25           188.0469580    0.068445078098
      9   S      26            52.9645000    0.232714335992
      9   S      27            16.8975704    0.470192897984
      9   S      28             5.7996353    0.358520852987

     10   L      29            15.5396162   -0.110777549525    0.070874268231
     10   L      30             3.5999336   -0.148026262701    0.339752839147
     10   L      31             1.0137618    1.130767015354    0.727158577316

     11   L      32             0.2700058    1.000000000000    1.000000000000

     12   D      33             0.8000000    1.000000000000

 H         

     13   S      34            18.7311370    0.033494604338
     13   S      35             2.8253944    0.234726953484
     13   S      36             0.6401217    0.813757326146

     14   S      37             0.1612778    1.000000000000

 H         

     15   S      38            18.7311370    0.033494604338
     15   S      39             2.8253944    0.234726953484
     15   S      40             0.6401217    0.813757326146

     16   S      41             0.1612778    1.000000000000

 H         

     17   S      42            18.7311370    0.033494604338
     17   S      43             2.8253944    0.234726953484
     17   S      44             0.6401217    0.813757326146

     18   S      45             0.1612778    1.000000000000

 H         

     19   S      46            18.7311370    0.033494604338
     19   S      47             2.8253944    0.234726953484
     19   S      48             0.6401217    0.813757326146

     20   S      49             0.1612778    1.000000000000

 TOTAL NUMBER OF BASIS SET SHELLS             =   20
 NUMBER OF CARTESIAN GAUSSIAN BASIS FUNCTIONS =   53
 NOTE: THIS RUN WILL RESTRICT THE MO VARIATION SPACE TO SPHERICAL HARMONICS.
 THE NUMBER OF ORBITALS KEPT IN THE VARIATIONAL SPACE WILL BE PRINTED LATER.
 NUMBER OF ELECTRONS                          =   24
 CHARGE OF MOLECULE                           =    0
 SPIN MULTIPLICITY                            =    1
 NUMBER OF OCCUPIED ORBITALS (ALPHA)          =   12
 NUMBER OF OCCUPIED ORBITALS (BETA )          =   12
 TOTAL NUMBER OF ATOMS                        =    7
 THE NUCLEAR REPULSION ENERGY IS       69.9991179002

     LEBEDEV GRID-BASED DFT OPTIONS
     ------------------------------
     DFTTYP=B3LYP   
     NRAD  =      96     NLEB  =     302
     NRAD0 =      24     NLEB0 =     110
     SWOFF =    5.00E-03 (PURE SCF -> DFT)
     SWITCH=    3.00E-04 (COARSE -> TIGHT GRID)
     THRESH=    0.00E+00 GTHRE=    1.00E+00

 GRIMME'S EMPIRICAL DISPERSION CORRECTION= F

     $CONTRL OPTIONS
     ---------------
 SCFTYP=RHF          RUNTYP=ENERGY       EXETYP=RUN     
 MPLEVL=       0     CITYP =NONE         CCTYP =NONE         VBTYP =NONE    
 DFTTYP=B3LYP        TDDFT =NONE    
 MULT  =       1     ICHARG=       0     NZVAR =      15     COORD =ZMT     
 PP    =NONE         RELWFN=NONE         LOCAL =NONE         NUMGRD=       F
 ISPHER=       1     NOSYM =       0     MAXIT =      30     UNITS =ANGS    
 PLTORB=       F     MOLPLT=       F     AIMPAC=       F     FRIEND=        
 NPRINT=       7     IREST =       0     GEOM  =INPUT   
 NORMF =       0     NORMP =       0     ITOL  =      20     ICUT  =       9
 INTTYP=BEST         GRDTYP=BEST         QMTTOL= 1.0E-06

     $SYSTEM OPTIONS
     ---------------
  REPLICATED MEMORY=     1000000 WORDS (ON EVERY NODE).
 DISTRIBUTED MEMDDI=           0 MILLION WORDS IN AGGREGATE,
 MEMDDI DISTRIBUTED OVER   1 PROCESSORS IS           0 WORDS/PROCESSOR.
 TOTAL MEMORY REQUESTED ON EACH PROCESSOR=     1000000 WORDS.
 TIMLIM=      525600.00 MINUTES, OR     365.0 DAYS.
 PARALL= F  BALTYP=  DLB     KDIAG=    0  COREFL= F
 MXSEQ2=     300 MXSEQ3=     150  mem10=         0

          ----------------
          PROPERTIES INPUT
          ----------------

     MOMENTS            FIELD           POTENTIAL          DENSITY
 IEMOM =       1   IEFLD =       0   IEPOT =       0   IEDEN =       0
 WHERE =COMASS     WHERE =NUCLEI     WHERE =NUCLEI     WHERE =NUCLEI  
 OUTPUT=BOTH       OUTPUT=BOTH       OUTPUT=BOTH       OUTPUT=BOTH    
 IEMINT=       0   IEFINT=       0                     IEDINT=       0
                                                       MORB  =       0
          EXTRAPOLATION IN EFFECT
          DIIS IN EFFECT
 ORBITAL PRINTING OPTION: NPREO=     1    53     2     1

     -------------------------------
     INTEGRAL TRANSFORMATION OPTIONS
     -------------------------------
     NWORD  =            0
     CUTOFF = 1.0E-09     MPTRAN =       0
     DIRTRF =       F     AOINTS =DUP     

          ----------------------
          INTEGRAL INPUT OPTIONS
          ----------------------
 NOPK  =       1 NORDER=       0 SCHWRZ=       T

   --- ENCODED Z MATRIX ---
 COORD  TYPE   I   J   K   L   M   N
    1      1    2   1
    2      1    3   2
    3      2    3   2   1
    4      1    4   2
    5      2    4   2   1
    6      3    4   2   1   3
    7      1    5   1
    8      2    5   1   2
    9      3    5   1   2   3
   10      1    6   1
   11      2    6   1   2
   12      3    6   1   2   3
   13      1    7   1
   14      2    7   1   2
   15      3    7   1   2   3

 THE DETERMINANT OF THE G MATRIX IS 10**(    -8)


                     --------------------
                     INTERNAL COORDINATES
                     --------------------

                 - - ATOMS - -         COORDINATE      COORDINATE
 NO.   TYPE    I  J  K  L  M  N        (BOHR,RAD)       (ANG,DEG)
 ----------------------------------------------------------------
   1 STRETCH   2  1                     2.8510092       1.5086892
   2 STRETCH   3  2                     2.2879376       1.2107245
   3 BEND      3  2  1                  2.1767066     124.7161000
   4 STRETCH   4  2                     2.1062515       1.1145804
   5 BEND      4  2  1                  2.0031825     114.7739000
   6 TORSION   4  2  1  3               3.1415927     180.0000000
   7 STRETCH   5  1                     2.0648622       1.0926781
   8 BEND      5  1  2                  1.9288960     110.5176000
   9 TORSION   5  1  2  3               2.6179939     150.0000000
  10 STRETCH   6  1                     2.0756314       1.0983769
  11 BEND      6  1  2                  1.9168340     109.8265000
  12 TORSION   6  1  2  3               2.1203813     121.4889000
  13 STRETCH   7  1                     2.0756314       1.0983769
  14 BEND      7  1  2                  1.9168340     109.8265000
  15 TORSION   7  1  2  3              -2.1203813    -121.4889000

     ------------------------------------------
     THE POINT GROUP IS C1 , NAXIS= 0, ORDER= 1
     ------------------------------------------

 -- VARIATIONAL SPACE WILL BE RESTRICTED TO PURE SPHERICAL HARMONICS ONLY --
 AFTER EXCLUDING CONTAMINANT COMBINATIONS FROM THE CARTESIAN GAUSSIAN BASIS
 SET, THE NUMBER OF SPHERICAL HARMONICS KEPT IN THE VARIATION SPACE IS   50

     DIMENSIONS OF THE SYMMETRY SUBSPACES ARE
 A   =   50

 ..... DONE SETTING UP THE RUN .....
 STEP CPU TIME =     0.01 TOTAL CPU TIME =          0.0 (      0.0 MIN)
 TOTAL WALL CLOCK TIME=          0.0 SECONDS, CPU UTILIZATION IS    50.00%

          ********************
          1 ELECTRON INTEGRALS
          ********************
 ...... END OF ONE-ELECTRON INTEGRALS ......
 STEP CPU TIME =     0.00 TOTAL CPU TIME =          0.0 (      0.0 MIN)
 TOTAL WALL CLOCK TIME=          0.0 SECONDS, CPU UTILIZATION IS    50.00%

          -------------
          GUESS OPTIONS
          -------------
          GUESS =HUCKEL            NORB  =       0          NORDER=       0
          MIX   =       F          PRTMO =       F          PUNMO =       F
          TOLZ  = 1.0E-08          TOLE  = 1.0E-05
          SYMDEN=       F          PURIFY=       F

 INITIAL GUESS ORBITALS GENERATED BY HUCKEL   ROUTINE.
 HUCKEL GUESS REQUIRES     27154 WORDS.

 STATISTICS FOR GENERATION OF SYMMETRY ORBITAL -Q- MATRIX
 NUMBER OF CARTESIAN ATOMIC ORBITALS=         53
 NUMBER OF SPHERICAL CONTAMINANTS DROPPED=     3
 NUMBER OF LINEARLY DEPENDENT MOS DROPPED=     0
 TOTAL NUMBER OF MOS IN VARIATION SPACE=      50

 SYMMETRIES FOR INITIAL GUESS ORBITALS FOLLOW.   BOTH SET(S).
    12 ORBITALS ARE OCCUPIED (    3 CORE ORBITALS).
     4=A        5=A        6=A        7=A        8=A        9=A       10=A   
    11=A       12=A       13=A       14=A       15=A       16=A       17=A   
    18=A       19=A       20=A       21=A       22=A   
 ...... END OF INITIAL ORBITAL SELECTION ......
 STEP CPU TIME =     0.01 TOTAL CPU TIME =          0.0 (      0.0 MIN)
 TOTAL WALL CLOCK TIME=          0.0 SECONDS, CPU UTILIZATION IS    66.67%

                    ----------------------
                    AO INTEGRAL TECHNOLOGY
                    ----------------------
     S,P,L SHELL ROTATED AXIS INTEGRALS, REPROGRAMMED BY
        KAZUYA ISHIMURA (IMS) AND JOSE SIERRA (SYNSTAR).
     S,P,D,L SHELL ROTATED AXIS INTEGRALS PROGRAMMED BY
        KAZUYA ISHIMURA (INSTITUTE FOR MOLECULAR SCIENCE).
     S,P,D,F,G SHELL TO TOTAL QUARTET ANGULAR MOMENTUM SUM 5,
        ERIC PROGRAM BY GRAHAM FLETCHER (ELORET AND NASA ADVANCED
        SUPERCOMPUTING DIVISION, AMES RESEARCH CENTER).
     S,P,D,F,G,L SHELL GENERAL RYS QUADRATURE PROGRAMMED BY
        MICHEL DUPUIS (PACIFIC NORTHWEST NATIONAL LABORATORY).

          --------------------
          2 ELECTRON INTEGRALS
          --------------------

 THE -PK- OPTION IS OFF, THE INTEGRALS ARE NOT IN SUPERMATRIX FORM.
 STORING   15000 INTEGRALS/RECORD ON DISK, USING 12 BYTES/INTEGRAL.
 TWO ELECTRON INTEGRAL EVALUATION REQUIRES   90606 WORDS OF MEMORY.
 SCHWARZ INEQUALITY OVERHEAD:      1430 INTEGRALS, T=        0.00
 II,JST,KST,LST =  1  1  1  1 NREC =         1 INTLOC =    1
 II,JST,KST,LST =  2  1  1  1 NREC =         1 INTLOC =    2
 II,JST,KST,LST =  3  1  1  1 NREC =         1 INTLOC =   34
 II,JST,KST,LST =  4  1  1  1 NREC =         1 INTLOC =  214
 II,JST,KST,LST =  5  1  1  1 NREC =         1 INTLOC = 1189
 II,JST,KST,LST =  6  1  1  1 NREC =         1 INTLOC = 3195
 II,JST,KST,LST =  7  1  1  1 NREC =         2 INTLOC =  920
 II,JST,KST,LST =  8  1  1  1 NREC =         3 INTLOC = 8146
 II,JST,KST,LST =  9  1  1  1 NREC =         7 INTLOC = 6019
 II,JST,KST,LST = 10  1  1  1 NREC =         8 INTLOC = 3281
 II,JST,KST,LST = 11  1  1  1 NREC =        13 INTLOC =  706
 II,JST,KST,LST = 12  1  1  1 NREC =        19 INTLOC =14483
 II,JST,KST,LST = 13  1  1  1 NREC =        34 INTLOC =10161
 II,JST,KST,LST = 14  1  1  1 NREC =        37 INTLOC =13072
 II,JST,KST,LST = 15  1  1  1 NREC =        41 INTLOC = 4617
 II,JST,KST,LST = 16  1  1  1 NREC =        44 INTLOC =11201
 II,JST,KST,LST = 17  1  1  1 NREC =        48 INTLOC = 9437
 II,JST,KST,LST = 18  1  1  1 NREC =        52 INTLOC = 8528
 II,JST,KST,LST = 19  1  1  1 NREC =        56 INTLOC =14233
 II,JST,KST,LST = 20  1  1  1 NREC =        61 INTLOC = 5650
 SCHWARZ INEQUALITY TEST SKIPPED         974 INTEGRAL BLOCKS.
 TOTAL NUMBER OF NONZERO TWO-ELECTRON INTEGRALS =              979347
         66 INTEGRAL RECORDS WERE STORED ON DISK FILE  8.
  ...... END OF TWO-ELECTRON INTEGRALS .....
 STEP CPU TIME =     0.12 TOTAL CPU TIME =          0.1 (      0.0 MIN)
 TOTAL WALL CLOCK TIME=          0.2 SECONDS, CPU UTILIZATION IS    93.33%

          --------------------------
             R-B3LYP SCF CALCULATION
          --------------------------

     NUCLEAR ENERGY =        69.9991179002
     MAXIT =   30     NPUNCH=    2
     EXTRAP=T  DAMP=F  SHIFT=F  RSTRCT=F  DIIS=T  DEM=F  SOSCF=F
         DENSITY MATRIX CONVERGENCE THRESHOLD=  1.00E-05
     COARSE -> FINE DFT GRID SWITCH THRESHOLD=  3.00E-04 (SWITCH IN $DFT)
                   HF -> DFT SWITCH THRESHOLD=  5.00E-03 (SWOFF IN $DFT)
     MEMORY REQUIRED FOR RHF ITERS=    307426 WORDS.

 DFT CODE IS SWITCHING FROM THE FINE GRID NRAD= 96,  NLEB=  302
                      TO THE COARSE GRID NRAD0= 24, NLEB0=  110

     EXCHANGE FUNCTIONAL   =B88&HFX   
     CORRELATION FUNCTIONAL=LYP88&VWN5
     DFT THRESHOLD         =.197E-07
     GRID CHANGE THRESHOLD =.300E-03
 FOR AN EULER-MACLAURIN QUADRATURE USING  96 RADIAL POINTS:
 SMALLEST GAUSSIAN PRIMITIVE EXPONENT=        0.1612777588 OF TYPE -S-
 ON ATOM NUMBER   4 HAS RADIAL NORMALIZATION=  1.000000
  LARGEST GAUSSIAN PRIMITIVE EXPONENT=     5484.6716600000 OF TYPE -S-
 ON ATOM NUMBER   3 HAS RADIAL NORMALIZATION=  1.000000
 DFT IS SWITCHED OFF, PERFORMING PURE SCF UNTIL SWOFF THRESHOLD IS REACHED.

 ITER EX DEM     TOTAL ENERGY        E CHANGE  DENSITY CHANGE    DIIS ERROR
   1  0  0     -151.9792639126  -151.9792639126   0.298899329   0.501602266
          * * *   INITIATING DIIS PROCEDURE   * * *
   2  1  0     -152.5416101575    -0.5623462450   0.140428916   0.100066380
   3  2  0     -152.5753589819    -0.0337488244   0.073539716   0.070097095
   4  3  0     -152.5984679460    -0.0231089641   0.028712801   0.007478140
   5  4  0     -152.5995089155    -0.0010409694   0.010984877   0.002587138
   6  5  0     -152.5996282188    -0.0001193034   0.006694314   0.001471952
   7  6  0     -152.5996554535    -0.0000272347   0.003017187   0.000525457
 CONVERGED TO SWOFF, SO DFT CALCULATION IS NOW SWITCHED ON.
          * * *   INITIATING DIIS PROCEDURE   * * *
   8  7  0     -153.4167716760    -0.8171162226   0.162321363   0.050557472
   9  8  0     -153.4281465085    -0.0113748324   0.060503799   0.029438860
  10  9  0     -153.4253680109     0.0027784976   0.044890740   0.040267271
  11 10  0     -153.4314093823    -0.0060413714   0.011292137   0.008165612
  12 11  0     -153.4315938037    -0.0001844214   0.004859796   0.000916276
  13 12  0     -153.4315985484    -0.0000047446   0.000530212   0.000120448
  14 13  0     -153.4315986376    -0.0000000893   0.000109308   0.000052966
 DFT CODE IS SWITCHING BACK TO THE FINE GRID
          * * *   INITIATING DIIS PROCEDURE   * * *
  15 14  0     -153.4309520398     0.0006465978   0.002491196   0.001657029
  16 15  0     -153.4309603278    -0.0000082880   0.000801170   0.000269305
  17 16  0     -153.4309598694     0.0000004584   0.000489881   0.000394590
  18 17  0     -153.4309606342    -0.0000007648   0.000053829   0.000051759
  19 18  0     -153.4309606416    -0.0000000075   0.000017637   0.000010493
  20 19  0     -153.4309606420    -0.0000000004   0.000013987   0.000004237
  21 20  0     -153.4309606421    -0.0000000001   0.000003358   0.000000644

          -----------------
          DENSITY CONVERGED
          -----------------
     TIME TO FORM FOCK OPERATORS=       5.3 SECONDS (       0.3 SEC/ITER)
     TIME TO SOLVE SCF EQUATIONS=       0.0 SECONDS (       0.0 SEC/ITER)

 FINAL R-B3LYP ENERGY IS     -153.4309606421 AFTER  21 ITERATIONS
 DFT EXCHANGE + CORRELATION ENERGY =       -16.8677977128
 TOTAL ELECTRON NUMBER             =        24.0001250580

          ------------
          EIGENVECTORS
          ------------

                      1          2          3          4          5
                  -19.1525   -10.2804   -10.1982    -1.0479    -0.9024
                     A          A          A          A          A   
    1  C  1  S   -0.000022   0.000871   0.995244  -0.020404  -0.139984
    2  C  1  S   -0.000586  -0.001229   0.036604   0.040327   0.275324
    3  C  1  X   -0.000275  -0.000919  -0.000932   0.019860  -0.098869
    4  C  1  Y    0.000056   0.000357  -0.003292  -0.014081  -0.125758
    5  C  1  Z   -0.000003  -0.000030  -0.000424  -0.004101  -0.080207
    6  C  1  S    0.001071   0.006329  -0.030739   0.015730   0.161727
    7  C  1  X   -0.001174   0.002356   0.001135   0.003709  -0.013652
    8  C  1  Y   -0.001499  -0.002336   0.007515   0.004052  -0.020231
    9  C  1  Z    0.000105   0.000232  -0.000685  -0.000636  -0.006972
   10  C  1 XX   -0.000380  -0.000887   0.000198   0.004702   0.001820
   11  C  1 YY    0.000390   0.000237  -0.000157  -0.002551  -0.002913
   12  C  1 ZZ   -0.000010   0.000650  -0.000041  -0.002150   0.001093
   13  C  1 XY   -0.000095   0.000853   0.000045  -0.002007   0.016092
   14  C  1 XZ    0.000028   0.000004   0.000143   0.000433   0.011305
   15  C  1 YZ    0.000004   0.000032   0.000083   0.000931   0.013122
   16  C  2  S    0.000235   0.995153  -0.000858  -0.117630  -0.026086
   17  C  2  S    0.000070   0.035732  -0.001460   0.224787   0.045082
   18  C  2  X   -0.000063   0.001733   0.000521   0.158422  -0.092954
   19  C  2  Y   -0.000232   0.001252  -0.000348   0.092752  -0.005240
   20  C  2  Z    0.000011  -0.000060   0.000013  -0.007046  -0.004532
   21  C  2  S    0.008726  -0.016176   0.007180   0.085195   0.042089
   22  C  2  X    0.005587   0.006132  -0.005470  -0.017474  -0.029925
   23  C  2  Y    0.004853   0.002444  -0.000181  -0.019882  -0.010724
   24  C  2  Z   -0.000333  -0.000282   0.000199   0.000653  -0.006009
   25  C  2 XX   -0.000601   0.001428  -0.000875   0.018443   0.004837
   26  C  2 YY    0.000318  -0.000245   0.000367  -0.003190  -0.001750
   27  C  2 ZZ    0.000283  -0.001184   0.000508  -0.015253  -0.003087
   28  C  2 XY   -0.000749   0.001201   0.000849   0.021551  -0.008225
   29  C  2 XZ    0.000054  -0.000104  -0.000046  -0.001530   0.002195
   30  C  2 YZ    0.000012  -0.000066  -0.000005  -0.000709  -0.000192
   31  O  3  S    0.995117  -0.000047  -0.000030  -0.194300   0.030038
   32  O  3  S    0.029439   0.000467  -0.000640   0.429631  -0.069600
   33  O  3  X   -0.002013   0.000991   0.000104  -0.142739   0.009690
   34  O  3  Y   -0.001122   0.000485  -0.000013  -0.080351   0.012399
   35  O  3  Z    0.000117  -0.000046   0.000010   0.006970  -0.002525
   36  O  3  S   -0.019459  -0.006004   0.002324   0.376609  -0.050019
   37  O  3  X    0.005196   0.003802  -0.000371  -0.042520  -0.000523
   38  O  3  Y    0.002573   0.002583  -0.000667  -0.023593   0.000091
   39  O  3  Z   -0.000237  -0.000193   0.000009   0.002503   0.001772
   40  O  3 XX   -0.000189  -0.001217  -0.000052   0.006683   0.000538
   41  O  3 YY    0.000107   0.000107   0.000232  -0.003876  -0.000474
   42  O  3 ZZ    0.000082   0.001110  -0.000179  -0.002808  -0.000064
   43  O  3 XY   -0.000103  -0.001443   0.000122   0.009775  -0.000929
   44  O  3 XZ    0.000013   0.000128  -0.000011  -0.001108   0.000149
   45  O  3 YZ    0.000000   0.000085  -0.000026   0.000006   0.000079
   46  H  4  S   -0.000219  -0.000945  -0.000641   0.027903   0.014091
   47  H  4  S    0.001170   0.005081  -0.000230  -0.012953  -0.004581
   48  H  5  S   -0.000328  -0.000328  -0.000219   0.017212   0.294690
   49  H  5  S    0.000211  -0.000942   0.005322   0.001087   0.069058
   50  H  6  S    0.000076  -0.000391  -0.000533   0.016239   0.279719
   51  H  6  S   -0.000726   0.001381   0.002688   0.000773   0.026546
   52  H  7  S   -0.000087  -0.000579  -0.000303   0.007353   0.080304
   53  H  7  S   -0.000648   0.000531   0.006521  -0.000158   0.007571

                      6          7          8          9         10
                   -0.6400    -0.5218    -0.4693    -0.4337    -0.3793
                     A          A          A          A          A   
    1  C  1  S   -0.053825  -0.092112   0.012670  -0.002098   0.023375
    2  C  1  S    0.095013   0.178566  -0.015629  -0.004371  -0.042999
    3  C  1  X    0.207554   0.068016   0.206446   0.151879   0.072201
    4  C  1  Y   -0.046870   0.008689   0.023986  -0.056796  -0.022161
    5  C  1  Z    0.106706   0.192670  -0.257787  -0.110762  -0.091039
    6  C  1  S    0.142920   0.261952  -0.064989   0.036376  -0.092316
    7  C  1  X    0.040177  -0.001797   0.081566   0.074663   0.046851
    8  C  1  Y   -0.032325  -0.018375   0.029695  -0.038697   0.001150
    9  C  1  Z    0.015364   0.044894  -0.073213  -0.038176  -0.018472
   10  C  1 XX    0.001815   0.004867   0.003762  -0.006183  -0.000471
   11  C  1 YY    0.002769  -0.008942  -0.001398   0.009754   0.003955
   12  C  1 ZZ   -0.004584   0.004075  -0.002365  -0.003571  -0.003484
   13  C  1 XY   -0.020583   0.000342  -0.014124  -0.014081  -0.005220
   14  C  1 XZ   -0.009910  -0.011780   0.010728   0.002631   0.015753
   15  C  1 YZ   -0.008792  -0.014997   0.020048   0.009361   0.005470
   16  C  2  S   -0.145026   0.051696  -0.034435   0.019772  -0.008451
   17  C  2  S    0.302343  -0.106478   0.079404  -0.058186   0.017329
   18  C  2  X   -0.191994  -0.142052  -0.055899  -0.325933  -0.056707
   19  C  2  Y   -0.078596   0.298331   0.272345  -0.132330   0.027029
   20  C  2  Z    0.024524   0.049188  -0.124639  -0.074280   0.330741
   21  C  2  S    0.251589  -0.114972   0.060382  -0.003572   0.022807
   22  C  2  X   -0.066395  -0.010355  -0.057206  -0.064725  -0.026660
   23  C  2  Y   -0.051029   0.115481   0.060490  -0.033596   0.006287
   24  C  2  Z    0.011104   0.030427  -0.067015  -0.049246   0.192321
   25  C  2 XX   -0.006335   0.006697  -0.000839  -0.009274  -0.003298
   26  C  2 YY    0.011252  -0.009448  -0.000805   0.006686   0.004337
   27  C  2 ZZ   -0.004918   0.002751   0.001645   0.002587  -0.001039
   28  C  2 XY   -0.011646  -0.002631   0.001467  -0.011272   0.001188
   29  C  2 XZ   -0.001309  -0.003764   0.003253   0.000399   0.026141
   30  C  2 YZ    0.000808   0.003168  -0.004212  -0.003239   0.012010
   31  O  3  S    0.077958  -0.030599   0.039146  -0.074584  -0.003749
   32  O  3  S   -0.185399   0.072637  -0.091275   0.161481   0.005180
   33  O  3  X   -0.072910  -0.006595  -0.252600   0.396868   0.021889
   34  O  3  Y   -0.029813   0.194488   0.071237   0.261227   0.094177
   35  O  3  Z    0.009686   0.028016  -0.086709  -0.101882   0.486354
   36  O  3  S   -0.195034   0.088906  -0.131968   0.326703   0.032567
   37  O  3  X   -0.049564  -0.000919  -0.138595   0.200937   0.005738
   38  O  3  Y   -0.017751   0.100600   0.040080   0.135777   0.054346
   39  O  3  Z    0.004368   0.011044  -0.043367  -0.054951   0.303889
   40  O  3 XX    0.005744   0.007687   0.016918  -0.010892   0.000752
   41  O  3 YY   -0.000740  -0.010759  -0.011156   0.000239  -0.003850
   42  O  3 ZZ   -0.005004   0.003072  -0.005762   0.010653   0.003098
   43  O  3 XY    0.004815  -0.011574  -0.000323  -0.015405  -0.004130
   44  O  3 XZ   -0.001003  -0.002422   0.005411   0.006388  -0.026973
   45  O  3 YZ   -0.000665  -0.000231   0.003442   0.003845  -0.015521
   46  H  4  S    0.145450  -0.191149  -0.111671   0.056812   0.006248
   47  H  4  S    0.050442  -0.117185  -0.106354   0.057845   0.001348
   48  H  5  S   -0.157952  -0.096732   0.007468  -0.029647   0.044345
   49  H  5  S   -0.080520  -0.071070  -0.065581  -0.038602   0.029802
   50  H  6  S   -0.165398  -0.129828   0.096617   0.005864   0.072844
   51  H  6  S   -0.060627  -0.082685   0.142127   0.032201   0.072970
   52  H  7  S    0.040697   0.157234  -0.212002  -0.103635  -0.113078
   53  H  7  S    0.018405   0.104634  -0.166233  -0.090718  -0.113632

                     11         12         13         14         15
                   -0.2661    -0.2242    -0.0367     0.0517     0.1228
                     A          A          A          A          A   
    1  C  1  S    0.077859  -0.064552   0.013206  -0.110632   0.067444
    2  C  1  S   -0.153788   0.141642  -0.012048   0.116371  -0.087394
    3  C  1  X   -0.158533  -0.098594   0.075695  -0.275856  -0.084976
    4  C  1  Y   -0.109582   0.465708   0.086683  -0.206984  -0.029941
    5  C  1  Z    0.093182  -0.101312   0.063066  -0.195772  -0.095906
    6  C  1  S   -0.418769   0.153902  -0.171928   1.895847  -0.930761
    7  C  1  X   -0.046837  -0.169866   0.074973  -0.589719  -0.128359
    8  C  1  Y   -0.011403   0.374328   0.121800  -0.596968   0.116446
    9  C  1  Z    0.039450  -0.052675   0.154084  -0.340625  -0.182768
   10  C  1 XX   -0.000706   0.009400   0.004023   0.002024  -0.010122
   11  C  1 YY    0.010897  -0.031857  -0.004154   0.001743  -0.009402
   12  C  1 ZZ   -0.010190   0.022457   0.000130  -0.003768   0.019523
   13  C  1 XY    0.012137  -0.002037  -0.005026   0.023265  -0.016039
   14  C  1 XZ   -0.003159   0.004185   0.027822   0.018838  -0.000422
   15  C  1 YZ   -0.005993   0.000603  -0.012131   0.014345  -0.002567
   16  C  2  S   -0.007039   0.009717  -0.005195   0.003525  -0.091462
   17  C  2  S    0.009427  -0.041348   0.012623   0.029563   0.100843
   18  C  2  X    0.027345   0.088190  -0.007813   0.038847  -0.033135
   19  C  2  Y   -0.065844  -0.124992   0.033248  -0.101954  -0.237866
   20  C  2  Z    0.005145  -0.009645   0.479749   0.108307   0.059059
   21  C  2  S   -0.005565   0.147316   0.063281  -0.178244   1.495572
   22  C  2  X   -0.101192   0.035630   0.020528   0.162199  -0.144770
   23  C  2  Y   -0.000856   0.100835   0.055431  -0.119042  -0.536188
   24  C  2  Z    0.007268  -0.016511   0.510318   0.186142   0.113331
   25  C  2 XX   -0.030711  -0.024203  -0.004175   0.007151  -0.004609
   26  C  2 YY    0.030589   0.028230   0.001802  -0.000954  -0.008999
   27  C  2 ZZ    0.000122  -0.004027   0.002373  -0.006197   0.013608
   28  C  2 XY    0.027647  -0.004630  -0.006398   0.007777   0.007373
   29  C  2 XZ   -0.006060   0.005891  -0.028288   0.000864   0.003125
   30  C  2 YZ   -0.002051  -0.001964  -0.014093  -0.009401  -0.005252
   31  O  3  S   -0.003073   0.007938   0.004152  -0.009935   0.009074
   32  O  3  S    0.001626  -0.010646  -0.009222   0.030013  -0.014606
   33  O  3  X   -0.293012  -0.029748   0.024300  -0.078489   0.022012
   34  O  3  Y    0.484066   0.183735  -0.031419   0.053102   0.091081
   35  O  3  Z   -0.067565   0.037991  -0.429466  -0.065861  -0.025202
   36  O  3  S    0.065036  -0.119117  -0.043700   0.045461  -0.109184
   37  O  3  X   -0.218274   0.011124   0.028439  -0.103311   0.041512
   38  O  3  Y    0.327738   0.145285  -0.027323   0.065762   0.161638
   39  O  3  Z   -0.048868   0.029250  -0.437952  -0.090927  -0.045553
   40  O  3 XX    0.015693  -0.001522  -0.000908   0.002635  -0.005599
   41  O  3 YY   -0.015775   0.000826   0.000935  -0.001390  -0.002263
   42  O  3 ZZ    0.000082   0.000696  -0.000027  -0.001245   0.007862
   43  O  3 XY   -0.008205  -0.005246  -0.000942   0.002777   0.002211
   44  O  3 XZ    0.001657  -0.001014   0.000180   0.000252   0.000402
   45  O  3 YZ    0.002528  -0.000905   0.000973  -0.001840  -0.001184
   46  H  4  S    0.128801   0.143117   0.007941   0.024153  -0.083972
   47  H  4  S    0.195822   0.263448   0.022788  -0.179213  -1.435734
   48  H  5  S    0.089253  -0.117190   0.076885  -0.031655  -0.107743
   49  H  5  S    0.317906  -0.393763   0.089652  -1.065914  -1.436330
   50  H  6  S   -0.000622   0.036986   0.103309  -0.032505   0.086349
   51  H  6  S   -0.161371   0.322538   0.279639  -0.822987   1.473373
   52  H  7  S    0.051631  -0.011752  -0.101120  -0.037655   0.091899
   53  H  7  S    0.086024   0.030354  -0.203065  -0.668769   0.859648

                     16         17         18         19         20
                    0.1362     0.1740     0.2600     0.2813     0.4451
                     A          A          A          A          A   
    1  C  1  S    0.016976  -0.030610  -0.023681   0.074464  -0.062158
    2  C  1  S   -0.026239  -0.017387  -0.042319  -0.091550   0.130934
    3  C  1  X    0.094034   0.023060   0.115818  -0.240321  -0.004396
    4  C  1  Y   -0.085465  -0.162088  -0.038835  -0.056908  -0.145356
    5  C  1  Z   -0.370654   0.250131  -0.029144   0.025149   0.107922
    6  C  1  S   -0.338403   0.862029   1.279667  -0.760820   0.491429
    7  C  1  X    0.348303   0.287179   0.958168  -1.532721  -0.097411
    8  C  1  Y   -0.222172  -0.690797  -0.551670  -0.091659  -0.299471
    9  C  1  Z   -0.969688   0.846995  -0.082841   0.105742  -0.499071
   10  C  1 XX   -0.017635  -0.024519   0.001806   0.052555  -0.017230
   11  C  1 YY    0.001014  -0.004991  -0.009678  -0.030695   0.022477
   12  C  1 ZZ    0.016621   0.029510   0.007872  -0.021859  -0.005247
   13  C  1 XY   -0.000092  -0.002424   0.025456   0.000408  -0.016467
   14  C  1 XZ    0.002470  -0.002796   0.005383   0.004214  -0.062904
   15  C  1 YZ    0.009768  -0.008480   0.014164  -0.004173  -0.056902
   16  C  2  S    0.065716   0.063731  -0.006033  -0.082461   0.014453
   17  C  2  S   -0.125083  -0.109565  -0.012525   0.121815  -0.125679
   18  C  2  X    0.052484   0.102883   0.252767  -0.261282   0.129376
   19  C  2  Y    0.169477   0.057447  -0.089646   0.434523  -0.007828
   20  C  2  Z    0.097072  -0.021420  -0.057612  -0.024817   0.432142
   21  C  2  S   -0.982988  -1.063066   0.353406   1.882046   0.398247
   22  C  2  X    0.068598   0.491275   2.173769   0.255958   0.796478
   23  C  2  Y    0.330676   0.116546   0.054258   1.655090   0.082957
   24  C  2  Z    0.298309  -0.233533  -0.040822  -0.097947  -0.175587
   25  C  2 XX    0.003127   0.002254  -0.012545  -0.000134   0.038634
   26  C  2 YY   -0.006251  -0.005247   0.006588  -0.014425  -0.032119
   27  C  2 ZZ    0.003123   0.002993   0.005957   0.014558  -0.006514
   28  C  2 XY    0.000879   0.003692  -0.018635   0.010881   0.005091
   29  C  2 XZ    0.008848  -0.007232  -0.000541  -0.001216   0.020367
   30  C  2 YZ   -0.017767   0.008938   0.001849   0.002369  -0.016012
   31  O  3  S   -0.007522  -0.004089   0.080341   0.062041   0.025865
   32  O  3  S    0.015046   0.025952  -0.123260  -0.073285  -0.036992
   33  O  3  X   -0.030897  -0.062604   0.076727   0.153699  -0.064085
   34  O  3  Y   -0.055161   0.010938   0.150027  -0.021486   0.079142
   35  O  3  Z   -0.051916   0.023727   0.004059   0.004129  -0.027777
   36  O  3  S    0.091934  -0.077392  -1.579887  -1.326598  -0.646787
   37  O  3  X   -0.034703  -0.048176   0.459942   0.682194   0.206192
   38  O  3  Y   -0.109648   0.030004   0.531617   0.026088   0.209497
   39  O  3  Z   -0.106980   0.061166  -0.024127  -0.010384  -0.038460
   40  O  3 XX    0.002349   0.000536  -0.021333  -0.011944  -0.024827
   41  O  3 YY   -0.000345  -0.000190   0.007739  -0.010512   0.008126
   42  O  3 ZZ   -0.002004  -0.000345   0.013594   0.022456   0.016701
   43  O  3 XY   -0.000415  -0.001947  -0.027994  -0.025419  -0.013370
   44  O  3 XZ    0.002373  -0.003445   0.004927   0.002424  -0.020525
   45  O  3 YZ   -0.004624   0.001855   0.002923   0.002783  -0.021824
   46  H  4  S    0.018281   0.030167  -0.011917  -0.054747  -0.141166
   47  H  4  S    0.935049   0.648406  -0.339163   1.038002  -0.021726
   48  H  5  S   -0.119944  -0.062607   0.194467   0.025482  -0.491812
   49  H  5  S   -0.616862  -2.740871   0.412500  -0.994635   0.819005
   50  H  6  S    0.015470   0.151173   0.104173  -0.000895  -0.558043
   51  H  6  S   -0.049191   2.924137  -0.671859   0.456506  -0.098822
   52  H  7  S    0.086859   0.091935   0.025301  -0.016292   0.164410
   53  H  7  S    1.559913  -0.616336   0.221510  -0.267818  -0.410778

                     21         22         23         24         25
                    0.5387     0.5616     0.6011     0.6573     0.6815
                     A          A          A          A          A   
    1  C  1  S    0.010026  -0.029191   0.013774  -0.027917   0.026077
    2  C  1  S   -0.214321  -0.020403  -0.243541   0.118731  -0.319870
    3  C  1  X   -0.620049  -0.362201  -0.539490  -0.136243  -0.230119
    4  C  1  Y    0.618665   0.300264  -0.721540   0.145263   0.038069
    5  C  1  Z    0.021926   0.068885  -0.145380  -0.621337   0.393571
    6  C  1  S    0.168994   0.274545  -0.759833   0.457227   0.900087
    7  C  1  X    0.887991   0.388340   0.501720   0.352728   0.819034
    8  C  1  Y   -0.549181  -0.494434   1.088134  -0.221891  -0.136861
    9  C  1  Z    0.023113  -0.455232   0.305209   1.439004  -0.904537
   10  C  1 XX    0.000949  -0.016629  -0.065632  -0.022629   0.021695
   11  C  1 YY   -0.025788   0.004509   0.075626   0.038162   0.006503
   12  C  1 ZZ    0.024838   0.012120  -0.009994  -0.015534  -0.028198
   13  C  1 XY    0.029059  -0.007050   0.042861  -0.075868  -0.021778
   14  C  1 XZ    0.005797  -0.036281   0.007561   0.040213  -0.012297
   15  C  1 YZ   -0.000396  -0.026157   0.016246   0.041236  -0.023241
   16  C  2  S   -0.046008  -0.016994  -0.004947   0.020043   0.048711
   17  C  2  S   -0.045955  -0.151830  -0.466861  -0.425968  -0.216807
   18  C  2  X    0.104118   0.077828   0.246018  -0.389486  -0.896239
   19  C  2  Y    0.114126   0.007793  -0.179838   0.113077  -0.326693
   20  C  2  Z    0.458962  -0.809178   0.009735   0.087309   0.018576
   21  C  2  S   -0.388675   0.053478   0.731975   0.324022  -0.943837
   22  C  2  X   -0.369295   0.144844  -0.801451   0.802474   1.092713
   23  C  2  Y   -0.139475  -0.023380   0.216906  -0.899657  -0.037338
   24  C  2  Z   -0.571868   1.191662  -0.085935  -0.448621   0.207759
   25  C  2 XX   -0.101775  -0.027038   0.010597   0.063076   0.041960
   26  C  2 YY    0.012994  -0.027716  -0.047803  -0.079927   0.012434
   27  C  2 ZZ    0.088781   0.054754   0.037206   0.016851  -0.054395
   28  C  2 XY    0.033528   0.029352   0.040532   0.072840   0.112306
   29  C  2 XZ    0.003484   0.007603   0.002094  -0.007622  -0.007394
   30  C  2 YZ    0.015396  -0.030329   0.009656   0.033339  -0.021247
   31  O  3  S    0.008582   0.013690   0.012871  -0.011965  -0.041143
   32  O  3  S   -0.088081  -0.062656  -0.113216   0.059257   0.149070
   33  O  3  X    0.153891   0.017302   0.086400  -0.271964  -0.239858
   34  O  3  Y   -0.058954   0.010581  -0.174776   0.111404  -0.208360
   35  O  3  Z    0.035651  -0.088188  -0.009312  -0.010386   0.032078
   36  O  3  S    0.312309  -0.088085   0.178529  -0.184833  -0.064985
   37  O  3  X   -0.028873   0.074319   0.049551  -0.054750  -0.375420
   38  O  3  Y   -0.080162   0.036010  -0.001308   0.073821  -0.109208
   39  O  3  Z    0.065827  -0.137922   0.028220   0.102027  -0.048325
   40  O  3 XX    0.030404   0.001838  -0.015507  -0.046498  -0.063290
   41  O  3 YY   -0.022567  -0.004529   0.006486   0.003074   0.006793
   42  O  3 ZZ   -0.007837   0.002691   0.009020   0.043424   0.056497
   43  O  3 XY    0.015483   0.006206  -0.015407  -0.049824  -0.116142
   44  O  3 XZ   -0.030493   0.053017  -0.003128  -0.014360   0.017477
   45  O  3 YZ   -0.013993   0.018706   0.004236   0.019320  -0.005519
   46  H  4  S   -0.080948  -0.190900  -0.122095  -0.436588   0.106496
   47  H  4  S   -0.056771  -0.018759   0.128483  -0.337639  -0.022403
   48  H  5  S    0.074468  -0.231630  -0.001030  -0.147807   0.106693
   49  H  5  S    0.069038   0.225304   0.648149  -0.227246   0.385587
   50  H  6  S    0.095610  -0.194791  -0.197220  -0.074562   0.056710
   51  H  6  S   -0.217095   0.087770   0.067692   1.003538  -0.681422
   52  H  7  S    0.125223   0.040898  -0.188599  -0.325517   0.120576
   53  H  7  S    0.050279  -0.181718   0.113695  -0.334003   0.469787

                     26         27         28         29         30
                    0.7382     0.7624     0.8553     0.8886     0.9248
                     A          A          A          A          A   
    1  C  1  S   -0.005100  -0.009332  -0.012493   0.030824  -0.019215
    2  C  1  S   -0.447089   0.179238   0.070655  -1.212345   0.548171
    3  C  1  X    0.336933   0.296123   0.075503   0.397040   0.032263
    4  C  1  Y    0.149845   0.273122   0.105516   0.058737   0.043637
    5  C  1  Z    0.646599  -0.318488   0.038270  -0.350091   0.044413
    6  C  1  S    0.491729  -1.037174  -0.510352   2.169960  -1.350135
    7  C  1  X   -1.037386  -1.765177  -0.576766  -0.708428  -0.689101
    8  C  1  Y   -0.141590  -0.717455  -0.038644  -0.090967  -0.101114
    9  C  1  Z   -1.046204   0.756746  -0.031064   0.506413   0.017057
   10  C  1 XX   -0.068247  -0.034064  -0.029929  -0.061920   0.057245
   11  C  1 YY    0.075757  -0.016045   0.011642  -0.026035  -0.029464
   12  C  1 ZZ   -0.007510   0.050109   0.018287   0.087955  -0.027781
   13  C  1 XY    0.002828   0.021910   0.039735   0.039503   0.066758
   14  C  1 XZ    0.067692  -0.003930   0.013132  -0.099622   0.028586
   15  C  1 YZ    0.007355   0.002749   0.005358  -0.018635   0.004898
   16  C  2  S   -0.013051   0.012119   0.051237  -0.015215  -0.018666
   17  C  2  S   -0.594448  -0.163952  -0.982131  -0.701970  -1.043435
   18  C  2  X    0.257723   0.152285   0.187104   0.009724  -0.030681
   19  C  2  Y   -0.110352  -0.843585   0.469005   0.121390  -0.049703
   20  C  2  Z    0.036853   0.038375  -0.025497  -0.015989  -0.000686
   21  C  2  S    1.405440   1.087891   2.993966   0.816289   1.359140
   22  C  2  X   -0.552103  -0.550299  -0.140188  -0.236393  -0.526594
   23  C  2  Y    0.155337   3.022875  -0.322911  -0.539512   0.361951
   24  C  2  Z    0.097962  -0.271425   0.017216  -0.016670  -0.003192
   25  C  2 XX    0.041078   0.074448   0.017564  -0.074152  -0.106453
   26  C  2 YY   -0.110447  -0.038871   0.087243   0.003982   0.049907
   27  C  2 ZZ    0.069369  -0.035577  -0.104807   0.070169   0.056545
   28  C  2 XY    0.029621   0.050557   0.111392   0.003323  -0.133227
   29  C  2 XZ   -0.033921  -0.003690  -0.014104   0.040466  -0.004221
   30  C  2 YZ    0.015761   0.007341  -0.008839  -0.018451   0.012755
   31  O  3  S    0.008185   0.014467   0.028972  -0.015899  -0.047534
   32  O  3  S   -0.043776   0.002946  -0.093451   0.032080   0.273222
   33  O  3  X   -0.107247  -0.144344  -0.350986   0.128192   0.536240
   34  O  3  Y    0.089826  -0.278583  -0.310872   0.077303   0.190979
   35  O  3  Z    0.095020  -0.004881   0.036242  -0.164301   0.039405
   36  O  3  S   -0.102855  -0.853394  -0.634938   0.204852  -0.046874
   37  O  3  X    0.177515   0.506066   0.788080  -0.347793  -0.939113
   38  O  3  Y    0.009584  -0.047702   0.480066  -0.141720  -0.524766
   39  O  3  Z   -0.093423   0.038340  -0.050561   0.179367  -0.019215
   40  O  3 XX   -0.045577  -0.110934  -0.012154   0.006232  -0.021790
   41  O  3 YY    0.015959   0.043119  -0.045646  -0.018391  -0.016979
   42  O  3 ZZ    0.029617   0.067814   0.057800   0.012159   0.038769
   43  O  3 XY    0.016590  -0.014277  -0.072739  -0.011903  -0.003269
   44  O  3 XZ    0.012767  -0.002378   0.005817  -0.006137   0.002163
   45  O  3 YZ   -0.008071   0.010573   0.007682   0.001459   0.006300
   46  H  4  S   -0.587457  -0.049954   0.719428  -0.054718   0.299367
   47  H  4  S    0.280055   1.695566  -1.545962  -0.523922  -0.374298
   48  H  5  S    0.252196  -0.096285   0.018203   0.026624   0.030213
   49  H  5  S   -0.795363  -0.931391  -0.166077   0.080198  -0.567121
   50  H  6  S    0.142037   0.000465  -0.057829   0.118303  -0.180887
   51  H  6  S   -0.871384   0.659557  -0.030879  -0.672571   0.565510
   52  H  7  S   -0.431007   0.062920  -0.145317   0.743276  -0.315239
   53  H  7  S    0.508193  -0.793711   0.005864  -1.734383   0.332475

                     31         32         33         34         35
                    0.9875     1.0825     1.1841     1.2917     1.4418
                     A          A          A          A          A   
    1  C  1  S   -0.001173  -0.008733  -0.059516  -0.075777  -0.038019
    2  C  1  S    0.201767  -0.151732  -1.142528  -1.263175  -0.522391
    3  C  1  X   -0.022950  -0.075770   0.100523  -0.022610  -0.015857
    4  C  1  Y    0.012231  -0.043476   0.279180   0.046747   0.050264
    5  C  1  Z    0.143614  -0.015111  -0.196940   0.017483   0.130305
    6  C  1  S   -0.454150  -0.541101   3.693677   3.989178   1.717763
    7  C  1  X    0.000633  -0.450613   0.171496   0.116065  -0.030472
    8  C  1  Y    0.038609  -0.067599  -1.539122  -1.356426  -0.676436
    9  C  1  Z   -0.122428   0.059894   0.517537   0.084974   0.174220
   10  C  1 XX    0.012878  -0.017772   0.109279  -0.073008  -0.102599
   11  C  1 YY    0.012582   0.012083   0.204011  -0.016945   0.037095
   12  C  1 ZZ   -0.025461   0.005689  -0.313290   0.089953   0.065504
   13  C  1 XY    0.005177   0.065515   0.110478  -0.166054  -0.181950
   14  C  1 XZ    0.013137  -0.006049  -0.071103   0.272646  -0.211336
   15  C  1 YZ    0.049314   0.001990  -0.023473  -0.160327   0.429899
   16  C  2  S    0.000426  -0.001561   0.027428   0.020922   0.008716
   17  C  2  S   -0.005418   0.005099   0.561788   0.397315   0.167996
   18  C  2  X    0.002874   0.119468  -0.042697   0.001631   0.010008
   19  C  2  Y   -0.006338  -0.292238  -0.026321  -0.044890  -0.033574
   20  C  2  Z    0.115003   0.009098  -0.008959   0.014932  -0.060161
   21  C  2  S    0.106059  -0.065586  -2.338108  -2.348114  -1.210933
   22  C  2  X   -0.072382  -0.831746   1.349539   1.226095   0.442502
   23  C  2  Y    0.040960   1.729091  -0.154735   0.105426   0.148914
   24  C  2  Z   -0.576830  -0.064607  -0.047833  -0.170695   0.016558
   25  C  2 XX    0.006012  -0.133236  -0.005184  -0.031578   0.026233
   26  C  2 YY   -0.003085   0.140867   0.086782   0.117044   0.034357
   27  C  2 ZZ   -0.002926  -0.007631  -0.081598  -0.085467  -0.060590
   28  C  2 XY   -0.007658   0.073555  -0.014161  -0.038461  -0.009397
   29  C  2 XZ   -0.044470   0.001318   0.017904  -0.264845   0.515708
   30  C  2 YZ    0.009375  -0.010434  -0.027093   0.146042  -0.055404
   31  O  3  S   -0.001118   0.001536   0.002530   0.016794   0.012957
   32  O  3  S    0.016504  -0.032963  -0.017182  -0.287412  -0.286292
   33  O  3  X   -0.020482  -0.376922   0.095411   0.167361   0.101495
   34  O  3  Y   -0.042641   0.715108  -0.103769   0.016568   0.025341
   35  O  3  Z   -0.922352  -0.025617   0.008613  -0.004600  -0.075929
   36  O  3  S   -0.029162  -0.000995  -0.072513   0.244890   0.380878
   37  O  3  X    0.037575   0.702468  -0.229363  -0.347348  -0.252601
   38  O  3  Y    0.052818  -1.364438   0.265633  -0.013854  -0.090437
   39  O  3  Z    1.258037   0.048521  -0.018219   0.122883  -0.086989
   40  O  3 XX   -0.003626   0.083176   0.019496   0.026019  -0.012848
   41  O  3 YY    0.002998  -0.089161   0.046079   0.047462   0.010506
   42  O  3 ZZ    0.000628   0.005985  -0.065575  -0.073481   0.002342
   43  O  3 XY    0.004103  -0.066906   0.012109  -0.038833  -0.051271
   44  O  3 XZ    0.030083   0.000338  -0.009250   0.037134  -0.187432
   45  O  3 YZ    0.019323   0.006848  -0.004168   0.111893  -0.243676
   46  H  4  S   -0.001607   0.230543   0.145499   0.316295   0.182663
   47  H  4  S    0.033224   0.811818   0.179083   0.135265   0.137246
   48  H  5  S    0.083895   0.080283   0.685385  -0.873334  -0.401741
   49  H  5  S   -0.176794  -0.314652  -2.830373   0.137064  -0.145717
   50  H  6  S   -0.011101  -0.157323  -1.031445   0.357610   0.264496
   51  H  6  S    0.031381   0.223825   2.172861  -0.915557  -0.244570
   52  H  7  S   -0.159288  -0.079816  -0.373602  -0.473042  -0.383594
   53  H  7  S    0.446690  -0.062057  -0.385396  -0.556710  -0.208823

                     36         37         38         39         40
                    1.5327     1.6259     1.6716     1.7884     1.8103
                     A          A          A          A          A   
    1  C  1  S    0.009041   0.040745   0.011781  -0.006404   0.001430
    2  C  1  S    0.115289   0.531185  -0.250622   0.409670   0.024069
    3  C  1  X    0.009503   0.004866  -0.202287   0.233595  -0.003881
    4  C  1  Y   -0.013088  -0.018394   0.032208  -0.064980   0.014748
    5  C  1  Z    0.030186  -0.011520   0.007401  -0.003296   0.082844
    6  C  1  S   -0.373042  -1.880974  -0.204494  -0.317542  -0.093519
    7  C  1  X    0.006482   0.103336  -0.180211  -0.304868  -0.071977
    8  C  1  Y    0.140078   0.902158   0.084103   0.040335  -0.024807
    9  C  1  Z   -0.381479  -0.110800   0.027311   0.060395  -0.314446
   10  C  1 XX    0.045040   0.121269   0.453654  -0.214920  -0.077420
   11  C  1 YY   -0.011544   0.052811  -0.425177   0.245222   0.027799
   12  C  1 ZZ   -0.033496  -0.174080  -0.028478  -0.030303   0.049620
   13  C  1 XY    0.083171   0.089264   0.043259   0.161209  -0.091233
   14  C  1 XZ    0.133462  -0.009265  -0.001558   0.021394  -0.321245
   15  C  1 YZ   -0.099776  -0.055174   0.015922  -0.010373   0.412569
   16  C  2  S   -0.001082  -0.026275  -0.005147  -0.023941  -0.002750
   17  C  2  S   -0.033121  -0.266764  -0.474934   0.037140  -0.021299
   18  C  2  X   -0.007202  -0.116861   0.130321   0.008145   0.023261
   19  C  2  Y   -0.001118   0.012251  -0.057707  -0.099376  -0.000956
   20  C  2  Z   -0.180629  -0.004564  -0.002455   0.000968   0.088669
   21  C  2  S    0.389087  -1.016498   1.468773   0.706844   0.188764
   22  C  2  X   -0.012497  -2.141489  -0.316962   0.410711   0.042417
   23  C  2  Y   -0.011529  -1.261478   0.128783  -0.328025   0.137098
   24  C  2  Z    0.220179   0.134591  -0.017029  -0.016739   0.194664
   25  C  2 XX   -0.002902  -0.090697   0.137435  -0.239144   0.017579
   26  C  2 YY    0.050106   0.147285   0.210076   0.404494   0.001427
   27  C  2 ZZ   -0.047204  -0.056588  -0.347511  -0.165349  -0.019006
   28  C  2 XY    0.041494  -0.290235  -0.264546   0.266080   0.002484
   29  C  2 XZ    0.112245  -0.017172   0.031158   0.005677  -0.136507
   30  C  2 YZ    0.710539   0.042151  -0.047144  -0.044356  -0.065808
   31  O  3  S   -0.005580   0.026315  -0.017735   0.004418   0.001101
   32  O  3  S    0.163049  -1.566439   0.464687   0.093900   0.045413
   33  O  3  X   -0.035746   0.015282  -0.183156   0.179275   0.020244
   34  O  3  Y   -0.021113   0.051565   0.007130  -0.179213   0.007131
   35  O  3  Z   -0.080249   0.000129  -0.001539   0.000638   0.069323
   36  O  3  S   -0.292184   3.972907  -0.797912  -0.477682  -0.186673
   37  O  3  X    0.118025  -1.083519   0.419729  -0.067826   0.045624
   38  O  3  Y    0.060244  -0.642015   0.070512   0.377567   0.012468
   39  O  3  Z   -0.118683   0.042255  -0.006224  -0.007994  -0.108933
   40  O  3 XX   -0.005308  -0.140775   0.042163   0.487894   0.036659
   41  O  3 YY   -0.008123   0.166286   0.460815  -0.106112   0.112109
   42  O  3 ZZ    0.013430  -0.025511  -0.502978  -0.381781  -0.148768
   43  O  3 XY   -0.002113  -0.183118  -0.112592  -0.435752  -0.047334
   44  O  3 XZ   -0.489557  -0.013127   0.001021   0.019482  -0.186820
   45  O  3 YZ    0.096442   0.034733  -0.092863  -0.065355   0.801351
   46  H  4  S   -0.058846  -0.192934  -0.247934  -0.523088   0.001858
   47  H  4  S   -0.039139  -0.361501  -0.172557  -0.081980   0.032826
   48  H  5  S    0.085688   0.198562  -0.113382  -0.156695   0.027417
   49  H  5  S    0.064845   0.026202   0.164932  -0.078532   0.024320
   50  H  6  S   -0.108975   0.050719   0.081802   0.120288  -0.015685
   51  H  6  S   -0.131339   0.302405  -0.246712   0.112180  -0.162693
   52  H  7  S    0.145451   0.269973  -0.023747  -0.008188  -0.009491
   53  H  7  S    0.204239   0.320126  -0.143036   0.022075   0.129788

                     41         42         43         44         45
                    1.9421     2.0062     2.0580     2.1258     2.2659
                     A          A          A          A          A   
    1  C  1  S   -0.055828   0.020182   0.017548   0.011620   0.012222
    2  C  1  S   -0.440532   0.026478   0.035342   0.039814   0.051409
    3  C  1  X    0.051492  -0.082504  -0.049894  -0.010188  -0.011645
    4  C  1  Y   -0.122177   0.024693   0.021657   0.025585   0.012392
    5  C  1  Z    0.021871   0.027537  -0.028618  -0.010839  -0.062014
    6  C  1  S    2.148637  -0.551705  -0.459301  -0.184334  -0.343539
    7  C  1  X    0.417649   0.025439  -0.040022   0.483105  -0.071132
    8  C  1  Y   -0.364060   0.099625   0.088076   0.215578   0.100895
    9  C  1  Z    0.041509   0.299203  -0.634035  -0.099990  -0.209579
   10  C  1 XX    0.425895   0.274119   0.093716   0.075374  -0.010049
   11  C  1 YY   -0.495678   0.439610   0.260067  -0.340021   0.039191
   12  C  1 ZZ    0.069783  -0.713729  -0.353783   0.264647  -0.029142
   13  C  1 XY    0.459977  -0.010668  -0.006288  -0.709833   0.049560
   14  C  1 XZ   -0.002426  -0.162728   0.160831  -0.012463   0.965324
   15  C  1 YZ    0.174285  -0.316835   0.704863  -0.095170   0.247875
   16  C  2  S    0.024714  -0.017347  -0.013130  -0.001791  -0.012817
   17  C  2  S    0.272158  -0.335588  -0.188597  -0.196587  -0.070568
   18  C  2  X   -0.144642   0.192694   0.084012   0.269768   0.000567
   19  C  2  Y   -0.081656  -0.062623  -0.018027  -0.139660   0.014506
   20  C  2  Z    0.017903  -0.003816   0.043434  -0.008458  -0.079967
   21  C  2  S   -1.594891   1.054248   0.661785   0.041305   0.337309
   22  C  2  X    0.467059   0.006725  -0.060293  -0.051855  -0.091086
   23  C  2  Y   -1.291346   0.295955   0.216478  -0.552198   0.099122
   24  C  2  Z    0.049458  -0.174545   0.360290   0.045092  -0.062977
   25  C  2 XX   -0.402554   0.257655   0.147436   0.155706   0.119731
   26  C  2 YY    0.378356   0.135441   0.102949   0.232580  -0.019435
   27  C  2 ZZ    0.024198  -0.393096  -0.250385  -0.388286  -0.100295
   28  C  2 XY   -0.096686   0.054790   0.015297  -0.053681   0.058513
   29  C  2 XZ    0.035789   0.109470  -0.284741  -0.046660   0.226385
   30  C  2 YZ   -0.058900  -0.221103   0.428528   0.003199  -0.459158
   31  O  3  S   -0.015516   0.008170   0.004935   0.007131   0.005166
   32  O  3  S   -0.068095   0.125691   0.050866  -0.138219  -0.048944
   33  O  3  X   -0.111891   0.090355   0.051763   0.121076   0.057666
   34  O  3  Y   -0.217565   0.090781   0.060140  -0.013548   0.044223
   35  O  3  Z    0.019129  -0.031333   0.065996  -0.005429  -0.024014
   36  O  3  S    0.841242  -0.709344  -0.354978   0.224832  -0.073896
   37  O  3  X   -0.373273   0.229920   0.119395  -0.175631   0.022495
   38  O  3  Y    0.245882   0.026585  -0.018085   0.166901  -0.033087
   39  O  3  Z   -0.014966   0.065166  -0.199066   0.004114   0.078793
   40  O  3 XX   -0.018629   0.029532   0.025924   0.246608  -0.020164
   41  O  3 YY   -0.402067  -0.255304  -0.118579  -0.520177   0.014085
   42  O  3 ZZ    0.420696   0.225772   0.092655   0.273570   0.006079
   43  O  3 XY    0.151938   0.146138   0.088197  -0.122488   0.028740
   44  O  3 XZ    0.002788  -0.154885   0.388272  -0.006466  -0.266456
   45  O  3 YZ    0.104380   0.144892  -0.182771   0.012734   0.172688
   46  H  4  S   -0.414331  -0.133513  -0.059840  -0.313952  -0.015668
   47  H  4  S   -0.294575  -0.014558  -0.005089  -0.171262   0.000585
   48  H  5  S   -0.459380  -0.487134  -0.233635   0.787993  -0.004063
   49  H  5  S   -0.043167   0.373652   0.336528  -0.155586   0.155461
   50  H  6  S   -0.018414   0.845994  -0.053112  -0.449595  -0.450542
   51  H  6  S   -0.115774  -0.270673  -0.348540   0.223245   0.015594
   52  H  7  S   -0.338054   0.090930   0.556635   0.092362   0.551876
   53  H  7  S   -0.166983  -0.082167   0.056914   0.192119  -0.106919

                     46         47         48         49         50
                    2.3404     2.5106     2.5783     2.8608     2.9457
                     A          A          A          A          A   
    1  C  1  S    0.032245   0.054996   0.003411   0.024492  -0.010946
    2  C  1  S    0.276901   0.121090   0.010037  -0.155113   0.087206
    3  C  1  X   -0.086899  -0.273685  -0.010699  -0.203328   0.102351
    4  C  1  Y    0.045097   0.081773   0.008770   0.167955  -0.058454
    5  C  1  Z    0.010839   0.001012   0.026321  -0.003204  -0.001695
    6  C  1  S   -1.386706  -1.642811  -0.099883  -0.026164   0.044587
    7  C  1  X   -0.697811  -0.864262  -0.048408  -0.243232   0.180609
    8  C  1  Y    0.318304   0.296664   0.016832   0.053421   0.061262
    9  C  1  Z    0.033260   0.002986   0.033614   0.044772  -0.002693
   10  C  1 XX   -0.341752  -0.773767  -0.042875  -0.175918   0.059551
   11  C  1 YY   -0.127131   0.478095   0.004225  -0.080290   0.020586
   12  C  1 ZZ    0.468883   0.295672   0.038651   0.256208  -0.080136
   13  C  1 XY    0.352480   0.129307   0.002598   0.562397  -0.232331
   14  C  1 XZ   -0.121775   0.013918   0.138285  -0.029552   0.007114
   15  C  1 YZ   -0.045927  -0.027318  -0.180492   0.014370  -0.010195
   16  C  2  S   -0.078782  -0.032072  -0.001909  -0.043052  -0.028554
   17  C  2  S   -0.211169  -0.070573   0.000957  -0.350378  -1.324118
   18  C  2  X   -0.177427  -0.227419  -0.000390  -0.425736  -1.085018
   19  C  2  Y    0.176925   0.059621   0.017050  -0.178179  -0.625576
   20  C  2  Z    0.000710  -0.012821   0.242433   0.017778   0.051820
   21  C  2  S    1.477638   1.777527   0.098658   0.007208  -1.714321
   22  C  2  X   -0.430133  -0.763446  -0.040043  -0.289904  -0.730051
   23  C  2  Y    0.640570   0.880846   0.057179  -0.481636  -0.501760
   24  C  2  Z   -0.024133  -0.040301   0.234670   0.018376   0.038254
   25  C  2 XX    0.447906  -0.148294   0.034615   0.829654  -0.730004
   26  C  2 YY    0.301059   0.459831   0.053303  -0.755857   0.281216
   27  C  2 ZZ   -0.748965  -0.311537  -0.087918  -0.073797   0.448788
   28  C  2 XY    0.474226  -0.856270   0.010237  -0.619005  -0.363138
   29  C  2 XZ   -0.077893  -0.008397   0.913511   0.006353   0.049829
   30  C  2 YZ   -0.026677  -0.048201   0.390111   0.048383   0.018304
   31  O  3  S    0.029124  -0.019875  -0.000486  -0.011980  -0.061077
   32  O  3  S   -0.376865   0.569441   0.023565  -0.343327  -0.680348
   33  O  3  X    0.352279  -0.342888  -0.012280  -0.015002  -0.250582
   34  O  3  Y    0.238283  -0.137172  -0.005088   0.036676  -0.160711
   35  O  3  Z   -0.018250   0.012548  -0.010605  -0.001310   0.012098
   36  O  3  S   -0.197696  -0.727775  -0.037634   1.042895   3.082525
   37  O  3  X    0.049323   0.506740   0.017222  -0.701281  -1.522217
   38  O  3  Y   -0.313089  -0.033273  -0.019998   0.074374  -0.934286
   39  O  3  Z    0.014289   0.017678  -0.452533   0.012998   0.072955
   40  O  3 XX   -0.287275  -0.161910   0.021179   0.854351   0.760311
   41  O  3 YY    0.253654  -0.001251   0.038608  -0.653644  -0.054265
   42  O  3 ZZ    0.033621   0.163161  -0.059788  -0.200707  -0.706046
   43  O  3 XY    0.376560   0.129077   0.049064  -0.117085   1.137931
   44  O  3 XZ    0.002315  -0.048055   0.851956  -0.019265  -0.083985
   45  O  3 YZ   -0.039613  -0.021438   0.516349   0.024297  -0.055656
   46  H  4  S   -0.159585  -0.264256  -0.014725   0.270590  -0.038470
   47  H  4  S    0.164746   0.337277   0.020088  -0.389459   0.026871
   48  H  5  S    0.143773   0.082675   0.046778  -0.141856   0.097208
   49  H  5  S   -0.110648  -0.031367  -0.057955  -0.083628  -0.121447
   50  H  6  S   -0.119762  -0.005502  -0.019942  -0.024000  -0.024094
   51  H  6  S    0.152692   0.000523   0.078372   0.061645   0.130330
   52  H  7  S   -0.164646   0.048024  -0.010132  -0.146473   0.039191
   53  H  7  S    0.107470  -0.015294  -0.022049  -0.029653   0.048869
 ...... END OF RHF CALCULATION ......
 STEP CPU TIME =     5.41 TOTAL CPU TIME =          5.5 (      0.1 MIN)
 TOTAL WALL CLOCK TIME=          5.6 SECONDS, CPU UTILIZATION IS    99.28%

     ---------------------------------------------------------------------
     PROPERTIES FOR THE B3LYP    DFT FUNCTIONAL (RHF  TYPE) DENSITY MATRIX
     ---------------------------------------------------------------------

          -----------------
          ENERGY COMPONENTS
          -----------------

         WAVEFUNCTION NORMALIZATION =       1.0000000000

                ONE ELECTRON ENERGY =    -345.7264975363
                TWO ELECTRON ENERGY =     122.2964189940
           NUCLEAR REPULSION ENERGY =      69.9991179002
                                      ------------------
                       TOTAL ENERGY =    -153.4309606421

 ELECTRON-ELECTRON POTENTIAL ENERGY =     122.2964189940
  NUCLEUS-ELECTRON POTENTIAL ENERGY =    -498.8880758104
   NUCLEUS-NUCLEUS POTENTIAL ENERGY =      69.9991179002
                                      ------------------
             TOTAL POTENTIAL ENERGY =    -306.5925389163
               TOTAL KINETIC ENERGY =     153.1615782742
                 VIRIAL RATIO (V/T) =       2.0017588116

          ---------------------------------------
          MULLIKEN AND LOWDIN POPULATION ANALYSES
          ---------------------------------------

     ATOMIC MULLIKEN POPULATION IN EACH MOLECULAR ORBITAL

                      1          2          3          4          5

                  2.000000   2.000000   2.000000   2.000000   2.000000

    1            -0.000026   0.001296   1.995379   0.021149   0.778485
    2             0.002259   2.000550   0.001807   0.523128   0.109322
    3             1.997739  -0.002797   0.000011   1.453134   0.025867
    4             0.000030   0.000921  -0.000006  -0.001573   0.000275
    5             0.000000  -0.000029   0.001046   0.001964   0.570794
    6            -0.000001   0.000042   0.000494   0.001817   0.463212
    7            -0.000001   0.000016   0.001269   0.000380   0.052045

                      6          7          8          9         10

                  2.000000   2.000000   2.000000   2.000000   2.000000

    1             0.445760   0.492443   0.568267   0.203412   0.085781
    2             0.903291   0.657005   0.451779   0.408847   0.609325
    3             0.230184   0.243446   0.439123   1.265981   1.188154
    4             0.172655   0.294342   0.114097   0.031858   0.000215
    5             0.109902   0.035557   0.008309   0.004346   0.004394
    6             0.121089   0.069986   0.053892   0.001682   0.016187
    7             0.017119   0.207221   0.364532   0.083873   0.095944

                     11         12

                  2.000000   2.000000

    1             0.377961   1.442113
    2             0.053662   0.119042
    3             1.338559   0.135981
    4             0.136139   0.161623
    5             0.061466   0.036333
    6             0.012386   0.100523
    7             0.019826   0.004386

               ----- POPULATIONS IN EACH AO -----
                             MULLIKEN      LOWDIN
              1  C  1  S      1.99685     1.98076
              2  C  1  S      0.70986     0.39975
              3  C  1  X      0.61185     0.54075
              4  C  1  Y      0.82773     0.79038
              5  C  1  Z      0.59420     0.52156
              6  C  1  S      0.71447     0.38669
              7  C  1  X      0.18875     0.33462
              8  C  1  Y      0.54821     0.71000
              9  C  1  Z      0.17434     0.38856
             10  C  1 XX      0.00478     0.17581
             11  C  1 YY      0.00280     0.12768
             12  C  1 ZZ      0.01528     0.18374
             13  C  1 XY      0.01291     0.02736
             14  C  1 XZ      0.00998     0.02953
             15  C  1 YZ      0.00000     0.01612
             16  C  2  S      1.99651     1.97450
             17  C  2  S      0.70344     0.36402
             18  C  2  X      0.74157     0.64571
             19  C  2  Y      0.74566     0.64586
             20  C  2  Z      0.46406     0.41756
             21  C  2  S      0.46276     0.31541
             22  C  2  X      0.11595     0.28277
             23  C  2  Y      0.22999     0.38307
             24  C  2  Z      0.29338     0.33311
             25  C  2 XX      0.00484     0.22297
             26  C  2 YY      0.04095     0.19125
             27  C  2 ZZ      0.02589     0.10365
             28  C  2 XY      0.01203     0.05281
             29  C  2 XZ      0.00297     0.02226
             30  C  2 YZ      0.00000     0.00509
             31  O  3  S      1.99731     1.97777
             32  O  3  S      0.93254     0.72435
             33  O  3  X      0.98857     0.92380
             34  O  3  Y      1.10412     1.05572
             35  O  3  Z      0.75561     0.70416
             36  O  3  S      0.93117     0.46917
             37  O  3  X      0.48205     0.56236
             38  O  3  Y      0.59830     0.66103
             39  O  3  Z      0.49755     0.53600
             40  O  3 XX      0.00227     0.18483
             41  O  3 YY      0.00746     0.17292
             42  O  3 ZZ      0.00714     0.17396
             43  O  3 XY      0.00851     0.01572
             44  O  3 XZ      0.00278     0.01134
             45  O  3 YZ      0.00000     0.00365
             46  H  4  S      0.53630     0.50757
             47  H  4  S      0.37427     0.39913
             48  H  5  S      0.65733     0.55275
             49  H  5  S      0.17675     0.22039
             50  H  6  S      0.63969     0.52733
             51  H  6  S      0.20162     0.22612
             52  H  7  S      0.51402     0.46651
             53  H  7  S      0.33259     0.35007

          ----- MULLIKEN ATOMIC OVERLAP POPULATIONS -----
          (OFF-DIAGONAL ELEMENTS NEED TO BE MULTIPLIED BY 2)

             1           2           3           4           5

    1    5.7916540
    2    0.3690990   4.5909763
    3   -0.0558347   0.5587326   7.8845880
    4   -0.1614149   0.3526681  -0.0750600   0.7835772
    5   -0.1737425  -0.0139256   0.0103356  -0.0140242   1.1569939
    6    0.2847771   0.0126989  -0.0080607   0.0158430  -0.1603528
    7    0.3574830  -0.0302334   0.0006816   0.0089869   0.0288007

             6           7

    6    0.7698249
    7   -0.0734203   0.5543112

          TOTAL MULLIKEN AND LOWDIN ATOMIC POPULATIONS
       ATOM         MULL.POP.    CHARGE          LOW.POP.     CHARGE
    1 C             6.412021   -0.412021         6.613313   -0.613313
    2 C             5.840016    0.159984         5.960049    0.039951
    3 O             8.315382   -0.315382         8.176769   -0.176769
    4 H             0.910576    0.089424         0.906699    0.093301
    5 H             0.834085    0.165915         0.773141    0.226859
    6 H             0.841310    0.158690         0.753452    0.246548
    7 H             0.846610    0.153390         0.816578    0.183422

          MULLIKEN SPHERICAL HARMONIC POPULATIONS
       ATOM           S       P       D      F      G      H      I    TOTAL
    1 C             3.42    2.95    0.05   0.00   0.00   0.00   0.00    6.41
    2 C             3.16    2.59    0.09   0.00   0.00   0.00   0.00    5.84
    3 O             3.86    4.43    0.03   0.00   0.00   0.00   0.00    8.32
    4 H             0.91    0.00    0.00   0.00   0.00   0.00   0.00    0.91
    5 H             0.83    0.00    0.00   0.00   0.00   0.00   0.00    0.83
    6 H             0.84    0.00    0.00   0.00   0.00   0.00   0.00    0.84
    7 H             0.85    0.00    0.00   0.00   0.00   0.00   0.00    0.85

          -------------------------------
          BOND ORDER AND VALENCE ANALYSIS     BOND ORDER THRESHOLD=0.050
          -------------------------------

                   BOND                       BOND                       BOND
  ATOM PAIR DIST  ORDER      ATOM PAIR DIST  ORDER      ATOM PAIR DIST  ORDER
    1   2  1.509  1.106        1   5  1.093  0.367        1   6  1.098  0.598
    1   7  1.098  0.909        2   3  1.211  2.029        2   4  1.115  0.879
    5   6  0.507  0.393

                       TOTAL       BONDED        FREE
      ATOM            VALENCE     VALENCE     VALENCE
    1 C                 2.998       2.998      -0.000
    2 C                 4.032       4.032       0.000
    3 O                 2.122       2.122       0.000
    4 H                 0.918       0.918       0.000
    5 H                 0.806       0.806      -0.000
    6 H                 1.010       1.010      -0.000
    7 H                 0.948       0.948       0.000

          ---------------------
          ELECTROSTATIC MOMENTS
          ---------------------

 POINT   1           X           Y           Z (BOHR)    CHARGE
                -0.000000    0.000000    0.000000        0.00 (A.U.)
         DX          DY          DZ         /D/  (DEBYE)
    -3.120197   -2.883613   -0.473994    4.274988
 ...... END OF PROPERTY EVALUATION ......
 STEP CPU TIME =     0.00 TOTAL CPU TIME =          5.5 (      0.1 MIN)
 TOTAL WALL CLOCK TIME=          5.6 SECONDS, CPU UTILIZATION IS    99.11%
                580000  WORDS OF DYNAMIC MEMORY USED
 EXECUTION OF GAMESS TERMINATED NORMALLY Thu Oct 17 12:47:18 2019
 DDI: 263640 bytes (0.3 MB / 0 MWords) used by master data server.

 ----------------------------------------
 CPU timing information for all processes
 ========================================
 0: 5.400 + 0.163 = 5.564
 ----------------------------------------
 ddikick.x: exited gracefully.
----- accounting info -----
Files used on the master node crcfe01.crc.nd.edu were:
-rw-r--r-- 1 cdrisko campus      490 Oct 17 12:47 /afs/crc.nd.edu/user/c/cdrisko/acetaldehyde.F05
-rw-r--r-- 1 cdrisko campus    45118 Oct 17 12:47 /afs/crc.nd.edu/user/c/cdrisko/acetaldehyde.F07
-rw-r--r-- 1 cdrisko campus 11881056 Oct 17 12:47 /afs/crc.nd.edu/user/c/cdrisko/acetaldehyde.F08
-rw-r--r-- 1 cdrisko campus  1799600 Oct 17 12:47 /afs/crc.nd.edu/user/c/cdrisko/acetaldehyde.F10
Thu Oct 17 12:47:21 EDT 2019
0.453u 0.512s 0:09.41 10.2%	0+0k 0+32io 0pf+0w
