   4   4   0   0
  0.2276607E+02  0.4499000E-09  0.4499000E-09  0.4499000E-09  0.5000000E-15
  1.000000000000000E-004
  CAR 
 unknown system                          
     30.94980858     -2.39483206  301      5.04595063      1.00000000
     -2.395  0.0000E+00  0.0000E+00
     -2.284  0.0000E+00  0.0000E+00
     -2.173  0.0000E+00  0.0000E+00
     -2.061  0.0000E+00  0.0000E+00
     -1.950  0.0000E+00  0.0000E+00
     -1.839  0.0000E+00  0.0000E+00
     -1.728 -0.3050E-32 -0.3390E-33
     -1.617 -0.1205E-24 -0.1340E-25
     -1.506 -0.3935E-18 -0.4373E-19
     -1.394 -0.1012E-12 -0.1125E-13
     -1.283 -0.2130E-08 -0.2368E-09
     -1.172 -0.3408E-05 -0.3791E-06
     -1.061 -0.3673E-03 -0.4120E-04
     -0.950 -0.1343E-02 -0.1904E-03
     -0.839  0.2551E-01  0.2644E-02
     -0.728  0.1600E+00  0.2043E-01
     -0.616  0.2999E+00  0.5377E-01
     -0.505  0.1991E+00  0.7589E-01
     -0.394  0.3818E+00  0.1183E+00
     -0.283  0.7416E+00  0.2008E+00
     -0.172  0.2356E+00  0.2270E+00
     -0.061  0.5601E+00  0.2892E+00
      0.050  0.7480E+00  0.3724E+00
      0.162  0.3178E+01  0.7256E+00
      0.273  0.1072E+02  0.1917E+01
      0.384  0.1669E+02  0.3772E+01
      0.495  0.2277E+02  0.6303E+01
      0.606  0.2005E+02  0.8531E+01
      0.717  0.1371E+02  0.1006E+02
      0.828  0.1656E+02  0.1190E+02
      0.940  0.1816E+02  0.1391E+02
      1.051  0.1785E+02  0.1590E+02
      1.162  0.2199E+02  0.1834E+02
      1.273  0.2609E+02  0.2124E+02
      1.384  0.2008E+02  0.2347E+02
      1.495  0.1802E+02  0.2548E+02
      1.607  0.2002E+02  0.2770E+02
      1.718  0.2373E+02  0.3034E+02
      1.829  0.1846E+02  0.3239E+02
      1.940  0.1901E+02  0.3450E+02
      2.051  0.2151E+02  0.3689E+02
      2.162  0.2570E+02  0.3975E+02
      2.273  0.1150E+02  0.4103E+02
      2.385  0.2249E+01  0.4128E+02
      2.496  0.5357E+00  0.4134E+02
      2.607  0.8295E+00  0.4143E+02
      2.718  0.3722E+00  0.4147E+02
      2.829  0.9191E+00  0.4157E+02
      2.940  0.1597E+01  0.4175E+02
      3.051  0.1223E+01  0.4189E+02
      3.163  0.1097E+01  0.4201E+02
      3.274  0.2799E+00  0.4204E+02
      3.385  0.6856E+00  0.4212E+02
      3.496  0.7064E+00  0.4219E+02
      3.607  0.1185E+01  0.4233E+02
      3.718  0.2027E+01  0.4255E+02
      3.830  0.1087E+01  0.4267E+02
      3.941  0.7198E+00  0.4275E+02
      4.052  0.1101E+01  0.4287E+02
      4.163  0.8563E+00  0.4297E+02
      4.274  0.8283E+00  0.4306E+02
      4.385  0.8010E+00  0.4315E+02
      4.496  0.1432E+01  0.4331E+02
      4.608  0.9832E+00  0.4342E+02
      4.719  0.1514E+01  0.4359E+02
      4.830  0.1299E+01  0.4373E+02
      4.941  0.1029E+01  0.4385E+02
      5.052  0.1477E+01  0.4401E+02
      5.163  0.1225E+01  0.4415E+02
      5.274  0.1752E+00  0.4417E+02
      5.386  0.1352E+01  0.4432E+02
      5.497  0.1766E+01  0.4451E+02
      5.608  0.2455E+01  0.4479E+02
      5.719  0.7157E+00  0.4487E+02
      5.830  0.1103E+01  0.4499E+02
      5.941  0.1111E+01  0.4511E+02
      6.052  0.8381E+00  0.4520E+02
      6.164  0.2025E+01  0.4543E+02
      6.275  0.7274E+00  0.4551E+02
      6.386  0.4532E+00  0.4556E+02
      6.497  0.2279E+01  0.4581E+02
      6.608  0.1016E+01  0.4593E+02
      6.719  0.1065E+01  0.4605E+02
      6.831  0.1301E+01  0.4619E+02
      6.942  0.2266E+01  0.4644E+02
      7.053  0.8037E+00  0.4653E+02
      7.164  0.5078E+00  0.4659E+02
      7.275  0.1025E+01  0.4670E+02
      7.386  0.8482E+00  0.4680E+02
      7.497  0.1332E+01  0.4694E+02
      7.609  0.2406E+01  0.4721E+02
      7.720  0.1937E+01  0.4743E+02
      7.831  0.1246E+01  0.4757E+02
      7.942  0.2073E+01  0.4780E+02
      8.053  0.1469E+01  0.4796E+02
      8.164  0.6613E+00  0.4803E+02
      8.275  0.1979E+01  0.4825E+02
      8.387  0.1634E+01  0.4843E+02
      8.498  0.7311E+00  0.4852E+02
      8.609  0.1440E+01  0.4868E+02
      8.720  0.2113E+01  0.4891E+02
      8.831  0.2372E+01  0.4917E+02
      8.942  0.6235E+00  0.4924E+02
      9.053  0.5391E-01  0.4925E+02
      9.165  0.1420E+01  0.4941E+02
      9.276  0.2374E+01  0.4967E+02
      9.387  0.2014E+01  0.4989E+02
      9.498  0.8024E+00  0.4998E+02
      9.609  0.1360E+01  0.5013E+02
      9.720  0.1481E+01  0.5030E+02
      9.832  0.1906E+01  0.5051E+02
      9.943  0.1739E+01  0.5070E+02
     10.054  0.1161E+01  0.5083E+02
     10.165  0.1587E+01  0.5101E+02
     10.276  0.2272E+01  0.5126E+02
     10.387  0.5951E+00  0.5133E+02
     10.498  0.7894E+00  0.5142E+02
     10.610  0.1951E+01  0.5163E+02
     10.721  0.2505E+01  0.5191E+02
     10.832  0.2568E+01  0.5220E+02
     10.943  0.3021E+01  0.5253E+02
     11.054  0.2404E+01  0.5280E+02
     11.165  0.9018E+00  0.5290E+02
     11.276  0.1312E+01  0.5305E+02
     11.388  0.8332E+00  0.5314E+02
     11.499  0.9382E+00  0.5324E+02
     11.610  0.1785E+01  0.5344E+02
     11.721  0.2028E+01  0.5367E+02
     11.832  0.2623E+01  0.5396E+02
     11.943  0.4366E+01  0.5444E+02
     12.055  0.2411E+01  0.5471E+02
     12.166  0.6250E+00  0.5478E+02
     12.277  0.4082E+00  0.5483E+02
     12.388  0.1830E+01  0.5503E+02
     12.499  0.1732E+01  0.5522E+02
     12.610  0.2297E+01  0.5548E+02
     12.721  0.2529E+01  0.5576E+02
     12.833  0.1574E+01  0.5593E+02
     12.944  0.2533E+01  0.5622E+02
     13.055  0.2904E+01  0.5654E+02
     13.166  0.1280E+01  0.5668E+02
     13.277  0.2750E+01  0.5699E+02
     13.388  0.1495E+01  0.5715E+02
     13.499  0.2604E+01  0.5744E+02
     13.611  0.1563E+01  0.5762E+02
     13.722  0.1986E+01  0.5784E+02
     13.833  0.3572E+01  0.5823E+02
     13.944  0.3056E+01  0.5857E+02
     14.055  0.1349E+01  0.5872E+02
     14.166  0.1177E+01  0.5885E+02
     14.277  0.2000E+01  0.5908E+02
     14.389  0.4120E+01  0.5953E+02
     14.500  0.3567E+01  0.5993E+02
     14.611  0.2828E+01  0.6024E+02
     14.722  0.1970E+01  0.6046E+02
     14.833  0.1248E+01  0.6060E+02
     14.944  0.2676E+01  0.6090E+02
     15.056  0.2006E+01  0.6112E+02
     15.167  0.8873E+00  0.6122E+02
     15.278  0.3182E+01  0.6158E+02
     15.389  0.3471E+01  0.6196E+02
     15.500  0.2349E+01  0.6222E+02
     15.611  0.3820E+01  0.6265E+02
     15.722  0.2446E+01  0.6292E+02
     15.834  0.1671E+01  0.6310E+02
     15.945  0.3836E+01  0.6353E+02
     16.056  0.1910E+01  0.6374E+02
     16.167  0.2455E+00  0.6377E+02
     16.278  0.1555E+01  0.6394E+02
     16.389  0.3425E+01  0.6432E+02
     16.500  0.2086E+01  0.6456E+02
     16.612  0.1863E+01  0.6476E+02
     16.723  0.1837E+01  0.6497E+02
     16.834  0.6901E+00  0.6504E+02
     16.945  0.3556E+01  0.6544E+02
     17.056  0.2042E+01  0.6567E+02
     17.167  0.1931E+01  0.6588E+02
     17.279  0.1678E+01  0.6607E+02
     17.390  0.2196E+01  0.6631E+02
     17.501  0.1613E+01  0.6649E+02
     17.612  0.1878E+01  0.6670E+02
     17.723  0.1788E+01  0.6690E+02
     17.834  0.1228E+01  0.6703E+02
     17.945  0.1413E+01  0.6719E+02
     18.057  0.3201E+01  0.6755E+02
     18.168  0.3228E+01  0.6791E+02
     18.279  0.6479E+00  0.6798E+02
     18.390  0.3733E+00  0.6802E+02
     18.501  0.2381E+01  0.6828E+02
     18.612  0.1909E+01  0.6850E+02
     18.723  0.1826E+01  0.6870E+02
     18.835  0.1553E+01  0.6887E+02
     18.946  0.1479E+01  0.6904E+02
     19.057  0.1772E+01  0.6923E+02
     19.168  0.3862E+01  0.6966E+02
     19.279  0.3189E+01  0.7002E+02
     19.390  0.2849E+01  0.7033E+02
     19.501  0.2793E+01  0.7064E+02
     19.613  0.4629E+01  0.7116E+02
     19.724  0.4690E+01  0.7168E+02
     19.835  0.3973E+01  0.7212E+02
     19.946  0.6953E+01  0.7289E+02
     20.057  0.5250E+01  0.7348E+02
     20.168  0.5249E+01  0.7406E+02
     20.280  0.4898E+01  0.7461E+02
     20.391  0.3327E+01  0.7498E+02
     20.502  0.2265E+01  0.7523E+02
     20.613  0.1575E+01  0.7540E+02
     20.724  0.3630E+01  0.7581E+02
     20.835  0.3129E+01  0.7615E+02
     20.946  0.2944E+01  0.7648E+02
     21.058  0.2834E+01  0.7680E+02
     21.169  0.4917E+01  0.7734E+02
     21.280  0.4832E+01  0.7788E+02
     21.391  0.2608E+01  0.7817E+02
     21.502  0.3932E+01  0.7861E+02
     21.613  0.1205E+01  0.7874E+02
     21.724  0.1732E+01  0.7893E+02
     21.836  0.2971E+01  0.7926E+02
     21.947  0.1208E+01  0.7940E+02
     22.058  0.1901E+01  0.7961E+02
     22.169  0.1792E+01  0.7981E+02
     22.280  0.5344E+00  0.7987E+02
     22.391  0.2619E+01  0.8016E+02
     22.502  0.2992E+01  0.8049E+02
     22.614  0.3054E+01  0.8083E+02
     22.725  0.3847E+01  0.8126E+02
     22.836  0.2218E+01  0.8150E+02
     22.947  0.2106E+01  0.8174E+02
     23.058  0.1851E+01  0.8194E+02
     23.169  0.3930E+00  0.8199E+02
     23.281  0.1445E+01  0.8215E+02
     23.392  0.1187E+01  0.8228E+02
     23.503  0.1203E+01  0.8241E+02
     23.614  0.1602E+01  0.8259E+02
     23.725  0.4881E+00  0.8265E+02
     23.836 -0.1216E-01  0.8265E+02
     23.947  0.7251E+00  0.8273E+02
     24.059  0.1795E+01  0.8293E+02
     24.170  0.1673E+01  0.8311E+02
     24.281  0.3935E+01  0.8355E+02
     24.392  0.5235E+01  0.8413E+02
     24.503  0.2979E+01  0.8446E+02
     24.614  0.5188E+01  0.8504E+02
     24.725  0.6357E+01  0.8574E+02
     24.837  0.3147E+01  0.8609E+02
     24.948  0.1686E+01  0.8628E+02
     25.059  0.2467E+01  0.8656E+02
     25.170  0.2509E+01  0.8683E+02
     25.281  0.2637E+01  0.8713E+02
     25.392  0.3533E+01  0.8752E+02
     25.504  0.2600E+01  0.8781E+02
     25.615  0.1547E+01  0.8798E+02
     25.726  0.2522E+01  0.8826E+02
     25.837  0.2633E+01  0.8855E+02
     25.948  0.1298E+01  0.8870E+02
     26.059  0.4725E+01  0.8922E+02
     26.170  0.6291E+01  0.8992E+02
     26.282  0.2187E+01  0.9017E+02
     26.393  0.3059E+01  0.9051E+02
     26.504  0.3978E+01  0.9095E+02
     26.615  0.2433E+01  0.9122E+02
     26.726  0.2068E+01  0.9145E+02
     26.837  0.2525E+01  0.9173E+02
     26.948  0.4694E+01  0.9225E+02
     27.060  0.5611E+01  0.9287E+02
     27.171  0.1745E+01  0.9307E+02
     27.282  0.4073E+01  0.9352E+02
     27.393  0.2993E+01  0.9385E+02
     27.504  0.3524E+01  0.9425E+02
     27.615  0.4036E+01  0.9469E+02
     27.726  0.2444E+01  0.9497E+02
     27.838  0.3126E+01  0.9531E+02
     27.949  0.8631E+00  0.9541E+02
     28.060  0.6298E+00  0.9548E+02
     28.171  0.4134E+00  0.9553E+02
     28.282  0.3660E+00  0.9557E+02
     28.393  0.4633E+00  0.9562E+02
     28.505  0.4612E+00  0.9567E+02
     28.616  0.4578E-01  0.9567E+02
     28.727  0.6484E+00  0.9575E+02
     28.838  0.8696E+00  0.9584E+02
     28.949  0.1712E+00  0.9586E+02
     29.060  0.5406E-01  0.9587E+02
     29.171  0.1997E-02  0.9587E+02
     29.283 -0.2594E-01  0.9587E+02
     29.394  0.5057E+00  0.9592E+02
     29.505  0.7066E+00  0.9600E+02
     29.616  0.1070E-01  0.9600E+02
     29.727 -0.9275E-02  0.9600E+02
     29.838 -0.8425E-04  0.9600E+02
     29.949 -0.5162E-07  0.9600E+02
     30.061 -0.2437E-11  0.9600E+02
     30.172  0.0000E+00  0.9600E+02
     30.283  0.0000E+00  0.9600E+02
     30.394  0.0000E+00  0.9600E+02
     30.505  0.0000E+00  0.9600E+02
     30.616  0.0000E+00  0.9600E+02
     30.728  0.0000E+00  0.9600E+02
     30.839  0.0000E+00  0.9600E+02
     30.950  0.0000E+00  0.9600E+02
