    4    4    1    1
  0.2276607E+02  0.4499000E-09  0.4499000E-09  0.4499000E-09  0.5000000E-15
  1.000000000000000E-004
  CAR 
 unknown system                          
     44     35     48
 
  0.0000000E+00  0.0000000E+00  0.0000000E+00  0.1371742E-02
    1       -0.879167   1.000000
    2        0.094006   1.000000
    3        0.094006   1.000000
    4        0.094006   1.000000
    5        0.146494   1.000000
    6        0.146494   1.000000
    7        0.146494   1.000000
    8        1.037458   1.000000
    9        1.037458   1.000000
   10        1.037458   1.000000
   11        1.649083   1.000000
   12        1.649083   1.000000
   13        2.103773   1.000000
   14        2.103773   1.000000
   15        2.103773   1.000000
   16        2.248368   1.000000
   17        2.248368   1.000000
   18        2.248368   1.000000
   19        2.248368   1.000000
   20        2.248368   1.000000
   21        2.248368   1.000000
   22        6.870240  -0.000000
   23        6.870240  -0.000000
   24        6.870240  -0.000000
   25        9.796969   0.000000
   26        9.796969   0.000000
   27        9.796969   0.000000
   28       14.257047   0.000000
   29       14.257047   0.000000
   30       14.257047   0.000000
   31       14.257047   0.000000
   32       14.257047   0.000000
   33       14.257047   0.000000
   34       18.893059   0.000000
   35       18.893059   0.000000
   36       18.893059   0.000000
   37       19.151325   0.000000
   38       19.151325   0.000000
   39       19.151325   0.000000
   40       20.162324   0.000000
   41       22.038728   0.000000
   42       22.038728   0.000000
   43       22.038728   0.000000
   44       26.145183   0.000000
   45       26.145183   0.000000
   46       26.145183   0.000000
   47       26.327956   0.000000
   48       29.050132   0.000000
 
  0.1111111E+00  0.0000000E+00  0.0000000E+00  0.8230453E-02
    1       -0.776469   1.000000
    2        0.128120   1.000000
    3        0.137811   1.000000
    4        0.137811   1.000000
    5        0.171295   1.000000
    6        0.185966   1.000000
    7        0.185966   1.000000
    8        1.008511   1.000000
    9        1.066665   1.000000
   10        1.066665   1.000000
   11        1.620869   1.000000
   12        1.662296   1.000000
   13        2.066005   1.000000
   14        2.066005   1.000000
   15        2.089202   1.000000
   16        2.130447   1.000000
   17        2.130447   1.000000
   18        2.201630   1.000000
   19        2.201630   1.000000
   20        2.248251   1.000000
   21        2.248251   1.000000
   22        6.043565  -0.000000
   23        7.081902  -0.000000
   24        7.081902  -0.000000
   25        9.822414   0.000000
   26        9.822414   0.000000
   27       10.801934   0.000000
   28       13.838191   0.000000
   29       13.838191   0.000000
   30       13.849455   0.000000
   31       13.849455   0.000000
   32       14.421494   0.000000
   33       14.421494   0.000000
   34       18.902025   0.000000
   35       19.165158   0.000000
   36       19.545067   0.000000
   37       19.545067   0.000000
   38       19.635687   0.000000
   39       19.635687   0.000000
   40       20.096669   0.000000
   41       21.549813   0.000000
   42       21.549813   0.000000
   43       21.646636   0.000000
   44       26.384300   0.000000
   45       26.384300   0.000000
   46       26.409261   0.000000
   47       26.607823   0.000000
   48       28.154785   0.000000
 
  0.2222222E+00  0.0000000E+00  0.0000000E+00  0.8230453E-02
    1       -0.478030   1.000000
    2        0.223274   1.000000
    3        0.243809   1.000000
    4        0.258852   1.000000
    5        0.258852   1.000000
    6        0.303774   1.000000
    7        0.303774   1.000000
    8        0.925902   1.000000
    9        1.152536   1.000000
   10        1.152536   1.000000
   11        1.549258   1.000000
   12        1.700503   1.000000
   13        1.834417   1.000000
   14        1.834417   1.000000
   15        1.961012   1.000000
   16        1.961012   1.000000
   17        2.048411   1.000000
   18        2.072274   1.000000
   19        2.072274   1.000000
   20        2.248398   1.000000
   21        2.248398   1.000000
   22        4.677153   1.000001
   23        7.657636  -0.000000
   24        7.657636  -0.000000
   25        9.899107   0.000000
   26        9.899107   0.000000
   27       12.704878   0.000000
   28       12.880985   0.000000
   29       12.880985   0.000000
   30       13.049961   0.000000
   31       13.049961   0.000000
   32       14.901914   0.000000
   33       14.901914   0.000000
   34       18.942040   0.000000
   35       19.208204   0.000000
   36       19.932898   0.000000
   37       20.436146   0.000000
   38       20.436146   0.000000
   39       20.795199   0.000000
   40       20.795199   0.000000
   41       20.880686   0.000000
   42       21.070698   0.000000
   43       21.070698   0.000000
   44       24.952719   0.000000
   45       26.939220   0.000000
   46       26.939220   0.000000
   47       27.162418   0.000000
   48       28.929575   0.000000
 
  0.3333333E+00  0.0000000E+00  0.0000000E+00  0.8230453E-02
    1       -0.031714   1.000000
    2        0.354613   1.000000
    3        0.356609   1.000000
    4        0.420894   1.000000
    5        0.420894   1.000000
    6        0.498159   1.000000
    7        0.498159   1.000000
    8        0.801588   1.000000
    9        1.290164   1.000000
   10        1.290164   1.000000
   11        1.463603   1.000000
   12        1.463603   1.000000
   13        1.491115   1.000000
   14        1.759495   1.000000
   15        1.816790   1.000000
   16        1.816790   1.000000
   17        1.886254   1.000000
   18        1.886254   1.000000
   19        1.986483   1.000000
   20        2.248576   1.000000
   21        2.248576   1.000000
   22        3.386418   1.000000
   23        8.487323   0.000000
   24        8.487323   0.000000
   25       10.019248   0.000000
   26       10.019248   0.000000
   27       11.744231   0.000000
   28       11.744231   0.000000
   29       12.316679   0.000000
   30       12.316679   0.000000
   31       14.897903   0.000000
   32       15.663949   0.000000
   33       15.663949   0.000000
   34       19.048855   0.000000
   35       19.130569   0.000000
   36       19.130569   0.000000
   37       19.283868   0.000000
   38       19.734533   0.000000
   39       20.150764   0.000000
   40       22.287381   0.000000
   41       22.287381   0.000000
   42       22.405608   0.000000
   43       22.979739   0.000000
   44       22.979739   0.000000
   45       27.709796   0.000000
   46       27.709796   0.000000
   47       27.748822   0.000000
   48       27.748822   0.000000
 
  0.4444444E+00  0.0000000E+00  0.0000000E+00  0.8230453E-02
    1        0.375301   1.000000
    2        0.461154   1.000000
    3        0.498286   1.000000
    4        0.550150   1.000000
    5        0.550150   1.000000
    6        0.652720   1.000000
    7        0.764756   1.000000
    8        0.764756   1.000000
    9        1.093438   1.000000
   10        1.093438   1.000000
   11        1.469641   1.000000
   12        1.469641   1.000000
   13        1.647991   1.000000
   14        1.675726   1.000000
   15        1.675726   1.000000
   16        1.699005   1.000000
   17        1.699005   1.000000
   18        1.832625   1.000000
   19        1.911453   1.000000
   20        2.248636   1.000000
   21        2.248636   1.000000
   22        2.318751   1.000000
   23        9.483902   0.000000
   24        9.483902   0.000000
   25       10.133313   0.000000
   26       10.133313   0.000000
   27       10.587177   0.000000
   28       10.587177   0.000000
   29       11.868650   0.000000
   30       11.868650   0.000000
   31       16.660836   0.000000
   32       16.660836   0.000000
   33       17.261597   0.000000
   34       17.838440   0.000000
   35       17.838440   0.000000
   36       19.274828   0.000000
   37       19.396633   0.000000
   38       19.473673   0.000000
   39       19.548579   0.000000
   40       19.939862   0.000000
   41       23.976158   0.000000
   42       23.976158   0.000000
   43       24.853833   0.000000
   44       24.853833   0.000000
   45       25.810956   0.000000
   46       25.810956   0.000000
   47       28.687079   0.000000
   48       28.693332   0.000000
 
  0.1111111E+00  0.1111111E+00  0.0000000E+00  0.1646091E-01
    1       -0.676271   1.000000
    2        0.161456   1.000000
    3        0.172496   1.000000
    4        0.172496   1.000000
    5        0.209961   1.000000
    6        0.209961   1.000000
    7        0.242595   1.000000
    8        1.000116   1.000000
    9        1.076527   1.000000
   10        1.092735   1.000000
   11        1.613969   1.000000
   12        1.659000   1.000000
   13        2.014520   1.000000
   14        2.014520   1.000000
   15        2.030933   1.000000
   16        2.054933   1.000000
   17        2.121399   1.000000
   18        2.121399   1.000000
   19        2.201423   1.000000
   20        2.201423   1.000000
   21        2.215119   1.000000
   22        6.232659  -0.000000
   23        6.232659  -0.000000
   24        7.284969  -0.000000
   25        9.844224   0.000000
   26       10.843930   0.000000
   27       10.843930   0.000000
   28       12.701580   0.000000
   29       13.993389   0.000000
   30       13.993389   0.000000
   31       14.003301   0.000000
   32       14.003301   0.000000
   33       14.572732   0.000000
   34       19.045558   0.000000
   35       19.566632   0.000000
   36       19.566632   0.000000
   37       19.660388   0.000000
   38       19.660388   0.000000
   39       19.803602   0.000000
   40       20.423956   0.000000
   41       20.862707   0.000000
   42       21.479816   0.000000
   43       22.378581   0.000000
   44       25.366057   0.000000
   45       26.166947   0.000000
   46       26.914845   0.000000
   47       27.736460   0.000000
   48       28.091837   0.000000
 
  0.2222222E+00  0.1111111E+00  0.0000000E+00  0.3292181E-01
    1       -0.386166   1.000000
    2        0.250546   1.000000
    3        0.269133   1.000000
    4        0.279823   1.000000
    5        0.294793   1.000000
    6        0.324988   1.000000
    7        0.383541   1.000000
    8        0.930615   1.000000
    9        1.153156   1.000000
   10        1.166410   1.000000
   11        1.557061   1.000000
   12        1.700961   1.000000
   13        1.749458   1.000000
   14        1.794213   1.000000
   15        1.883947   1.000000
   16        1.932462   1.000000
   17        1.990511   1.000000
   18        2.071393   1.000000
   19        2.080722   1.000000
   20        2.199121   1.000000
   21        2.200860   1.000000
   22        4.862367   1.013092
   23        6.734358  -0.000000
   24        7.842399   0.000000
   25        9.891701   0.000000
   26       10.959023   0.000000
   27       11.562531   0.000000
   28       12.722022   0.000000
   29       13.025357   0.000000
   30       13.212641   0.000000
   31       14.418164   0.000000
   32       14.444244   0.000000
   33       14.461734   0.000000
   34       19.083633   0.000000
   35       19.204892   0.000000
   36       19.647435   0.000000
   37       19.674755   0.000000
   38       19.737264   0.000000
   39       20.835443   0.000000
   40       21.096867   0.000000
   41       21.186225   0.000000
   42       22.133452   0.000000
   43       22.487808   0.000000
   44       24.575925   0.000000
   45       26.466432   0.000000
   46       26.492538   0.000000
   47       27.608461   0.000000
   48       29.379620   0.000000
 
  0.3333333E+00  0.1111111E+00  0.0000000E+00  0.3292181E-01
    1        0.044092   1.000000
    2        0.388260   1.000000
    3        0.401944   1.000000
    4        0.403830   1.000000
    5        0.458645   1.000000
    6        0.514340   1.000000
    7        0.574260   1.000000
    8        0.813720   1.000000
    9        1.248584   1.000000
   10        1.288654   1.000000
   11        1.399633   1.000000
   12        1.445430   1.000000
   13        1.544935   1.000000
   14        1.699140   1.000000
   15        1.780619   1.000000
   16        1.796950   1.000000
   17        1.837259   1.000000
   18        1.884735   1.000000
   19        2.009097   1.000000
   20        2.196736   1.000000
   21        2.199775   1.000000
   22        3.585038   1.000000
   23        7.431813  -0.000000
   24        8.654250   0.000000
   25        9.778557   0.000000
   26       10.750740   0.000000
   27       11.068956   0.000000
   28       11.885511   0.000000
   29       12.595397   0.000000
   30       13.731481   0.000000
   31       14.687364   0.000000
   32       15.150423   0.000000
   33       15.351068   0.000000
   34       18.028157   0.000000
   35       18.129269   0.000000
   36       19.832481   0.000000
   37       19.874132   0.000000
   38       20.764678   0.000000
   39       21.108353   0.000000
   40       21.243628   0.000000
   41       22.338576   0.000000
   42       22.531641   0.000000
   43       22.944378   0.000000
   44       24.328040   0.000000
   45       26.838303   0.000000
   46       27.317221   0.000000
   47       27.439491   0.000000
   48       27.819683   0.000000
 
  0.4444444E+00  0.1111111E+00  0.0000000E+00  0.3292181E-01
    1        0.435855   1.000000
    2        0.516112   1.000000
    3        0.523913   1.000000
    4        0.561580   1.000000
    5        0.586151   1.000000
    6        0.671724   1.000000
    7        0.773263   1.000000
    8        0.788647   1.000000
    9        1.061481   1.000000
   10        1.090931   1.000000
   11        1.305693   1.000000
   12        1.467482   1.000000
   13        1.483607   1.000000
   14        1.673712   1.000000
   15        1.690213   1.000000
   16        1.706141   1.000000
   17        1.745854   1.000000
   18        1.911633   1.000000
   19        1.940578   1.000000
   20        2.197307   1.000000
   21        2.198487   1.000000
   22        2.549119   1.000000
   23        8.239253   0.000000
   24        9.092992   0.000000
   25        9.637273   0.000000
   26       10.706117   0.000000
   27       10.731867   0.000000
   28       10.958664   0.000000
   29       12.536059   0.000000
   30       13.013211   0.000000
   31       15.867526   0.000000
   32       16.053422   0.000000
   33       16.913132   0.000000
   34       17.078582   0.000000
   35       17.372543   0.000000
   36       19.689104   0.000000
   37       20.083513   0.000000
   38       20.189071   0.000000
   39       20.379453   0.000000
   40       20.846026   0.000000
   41       22.817546   0.000000
   42       24.035356   0.000000
   43       24.110649   0.000000
   44       25.877090   0.000000
   45       26.168188   0.000000
   46       26.307196   0.000000
   47       27.758552   0.000000
   48       28.440602   0.000000
 
  0.2222222E+00  0.2222222E+00  0.0000000E+00  0.1646091E-01
    1       -0.124566   1.000000
    2        0.299430   1.000000
    3        0.386314   1.000000
    4        0.386314   1.000000
    5        0.395899   1.000000
    6        0.395899   1.000000
    7        0.539463   1.000000
    8        0.912599   1.000000
    9        1.188452   1.000000
   10        1.206085   1.000000
   11        1.530219   1.000000
   12        1.585463   1.000000
   13        1.585463   1.000000
   14        1.642344   1.000000
   15        1.767240   1.000000
   16        1.850873   1.000000
   17        1.994834   1.000000
   18        1.994834   1.000000
   19        2.068916   1.000000
   20        2.068916   1.000000
   21        2.118186   1.000000
   22        5.341028  -0.000123
   23        5.341028  -0.000123
   24        8.358971   0.000000
   25        9.624339   0.000000
   26       10.617134   0.000000
   27       12.629600   0.000000
   28       12.629600   0.000000
   29       13.443474   0.000000
   30       13.443474   0.000000
   31       13.824542   0.000000
   32       13.824542   0.000000
   33       15.476188   0.000000
   34       17.877562   0.000000
   35       18.006635   0.000000
   36       19.117616   0.000000
   37       20.957622   0.000000
   38       20.957622   0.000000
   39       21.192511   0.000000
   40       21.192511   0.000000
   41       21.846259   0.000000
   42       23.348220   0.000000
   43       23.598276   0.000000
   44       24.218322   0.000000
   45       25.429124   0.000000
   46       26.251527   0.000000
   47       28.248150   0.000000
   48       28.685850   0.000000
 
  0.3333333E+00  0.2222222E+00  0.0000000E+00  0.3292181E-01
    1        0.249690   1.000000
    2        0.416411   1.000000
    3        0.481128   1.000000
    4        0.540401   1.000000
    5        0.560659   1.000000
    6        0.566321   1.000000
    7        0.724286   1.000000
    8        0.836838   1.000000
    9        1.220315   1.000000
   10        1.258826   1.000000
   11        1.298500   1.000000
   12        1.379338   1.000000
   13        1.392890   1.000000
   14        1.527349   1.000000
   15        1.737004   1.000000
   16        1.850543   1.000000
   17        1.880872   1.000000
   18        1.942327   1.000000
   19        1.947876   1.000000
   20        2.065782   1.000000
   21        2.077210   1.000000
   22        4.067446   1.000000
   23        6.000651  -0.000000
   24        8.689403   0.000000
   25        9.128552   0.000000
   26       10.594344   0.000000
   27       12.096361   0.000000
   28       12.294548   0.000000
   29       13.764288   0.000000
   30       13.813686   0.000000
   31       14.095860   0.000000
   32       15.421522   0.000000
   33       15.473341   0.000000
   34       16.671613   0.000000
   35       16.930853   0.000000
   36       19.894645   0.000000
   37       21.163984   0.000000
   38       21.403347   0.000000
   39       21.998709   0.000000
   40       22.005817   0.000000
   41       22.490920   0.000000
   42       22.849972   0.000000
   43       23.305220   0.000000
   44       25.191910   0.000000
   45       26.091450   0.000000
   46       26.698788   0.000000
   47       26.870430   0.000000
   48       27.841775   0.000000
 
  0.4444444E+00  0.2222222E+00  0.0000000E+00  0.3292181E-01
    1        0.584507   1.000000
    2        0.590719   1.000000
    3        0.598470   1.000000
    4        0.668395   1.000000
    5        0.684354   1.000000
    6        0.723445   1.000000
    7        0.796142   1.000000
    8        0.872738   1.000000
    9        0.993605   1.000000
   10        1.078524   1.000000
   11        1.153537   1.000000
   12        1.207728   1.000000
   13        1.467224   1.000000
   14        1.655723   1.000000
   15        1.669772   1.000000
   16        1.670039   1.000000
   17        1.704190   1.000000
   18        1.832189   1.000000
   19        2.063327   1.000000
   20        2.064672   1.000000
   21        2.319405   1.000000
   22        3.029551   1.000000
   23        6.786577  -0.000000
   24        7.686413  -0.000000
   25       10.077716   0.000000
   26       10.925618   0.000000
   27       11.149884   0.000000
   28       11.444571   0.000000
   29       14.246834   0.000000
   30       14.636844   0.000000
   31       14.868152   0.000000
   32       14.930211   0.000000
   33       15.593225   0.000000
   34       15.891846   0.000000
   35       17.594063   0.000000
   36       19.879876   0.000000
   37       21.448608   0.000000
   38       21.494428   0.000000
   39       21.772165   0.000000
   40       21.789589   0.000000
   41       22.412810   0.000000
   42       23.044130   0.000000
   43       24.209357   0.000000
   44       26.059484   0.000000
   45       26.071607   0.000000
   46       26.791044   0.000000
   47       26.957671   0.000000
   48       27.775991   0.000000
 
  0.3333333E+00  0.3333333E+00  0.0000000E+00  0.1646091E-01
    1        0.487610   1.000000
    2        0.512071   1.000000
    3        0.630345   1.000000
    4        0.630345   1.000000
    5        0.727167   1.000000
    6        0.727167   1.000000
    7        0.835244   1.000000
    8        0.898245   1.000000
    9        1.098725   1.000000
   10        1.098725   1.000000
   11        1.237454   1.000000
   12        1.242198   1.000000
   13        1.357763   1.000000
   14        1.448883   1.000000
   15        1.645643   1.000000
   16        1.807934   1.000000
   17        1.807934   1.000000
   18        1.877669   1.000000
   19        1.877669   1.000000
   20        1.965766   1.000000
   21        2.287851   1.000000
   22        4.712625   1.000013
   23        4.712625   1.000013
   24        7.480183  -0.000000
   25        9.850519   0.000000
   26       10.848620   0.000000
   27       12.769044   0.000000
   28       12.769044   0.000000
   29       12.933724   0.000000
   30       12.933724   0.000000
   31       15.455372   0.000000
   32       15.773580   0.000000
   33       15.773580   0.000000
   34       15.786162   0.000000
   35       16.866325   0.000000
   36       19.319704   0.000000
   37       21.895513   0.000000
   38       22.727066   0.000000
   39       22.727066   0.000000
   40       22.735778   0.000000
   41       22.735778   0.000000
   42       22.931841   0.000000
   43       22.955590   0.000000
   44       25.007443   0.000000
   45       26.375407   0.000000
   46       26.375407   0.000000
   47       26.450741   0.000000
   48       27.951523   0.000000
 
  0.4444444E+00  0.3333333E+00  0.0000000E+00  0.3292181E-01
    1        0.617369   1.000000
    2        0.711940   1.000000
    3        0.735896   1.000000
    4        0.788069   1.000000
    5        0.789060   1.000000
    6        0.824946   1.000000
    7        0.870963   1.000000
    8        0.970474   1.000000
    9        0.985743   1.000000
   10        1.014691   1.000000
   11        1.042173   1.000000
   12        1.136583   1.000000
   13        1.488775   1.000000
   14        1.533008   1.000000
   15        1.581634   1.000000
   16        1.654617   1.000000
   17        1.673150   1.000000
   18        1.695267   1.000000
   19        1.881400   1.000000
   20        1.904013   1.000000
   21        2.831920   1.000000
   22        3.641710   1.000000
   23        5.489826  -0.000000
   24        6.407935  -0.000000
   25       10.758600   0.000000
   26       11.296128   0.000000
   27       11.801623   0.000000
   28       11.934883   0.000000
   29       13.511526   0.000000
   30       13.756625   0.000000
   31       14.402467   0.000000
   32       14.719303   0.000000
   33       16.290026   0.000000
   34       16.868084   0.000000
   35       17.957310   0.000000
   36       20.184154   0.000000
   37       20.377679   0.000000
   38       22.072659   0.000000
   39       22.551611   0.000000
   40       22.612709   0.000000
   41       23.034675   0.000000
   42       23.240218   0.000000
   43       24.477253   0.000000
   44       25.681417   0.000000
   45       26.020518   0.000000
   46       26.361856   0.000000
   47       27.086618   0.000000
   48       27.161547   0.000000
 
  0.4444444E+00  0.4444444E+00  0.0000000E+00  0.1646091E-01
    1        0.680936   1.000000
    2        0.776001   1.000000
    3        0.792304   1.000000
    4        0.792304   1.000000
    5        0.835134   1.000000
    6        0.844510   1.000000
    7        0.844510   1.000000
    8        0.964042   1.000000
    9        1.100340   1.000000
   10        1.100340   1.000000
   11        1.152371   1.000000
   12        1.225356   1.000000
   13        1.424093   1.000000
   14        1.489774   1.000000
   15        1.539446   1.000000
   16        1.539446   1.000000
   17        1.561496   1.000000
   18        1.699682   1.000000
   19        1.699682   1.000000
   20        1.772914   1.000000
   21        3.509975   1.000000
   22        4.392351   1.000000
   23        4.392351   1.000000
   24        5.308480  -0.000650
   25       11.628042   0.000000
   26       11.840162   0.000000
   27       12.575433   0.000000
   28       12.575433   0.000000
   29       12.640529   0.000000
   30       12.640529   0.000000
   31       13.394913   0.000000
   32       13.624667   0.000000
   33       18.461213   0.000000
   34       18.461213   0.000000
   35       18.634626   0.000000
   36       19.774886   0.000000
   37       20.607327   0.000000
   38       20.688714   0.000000
   39       21.266491   0.000000
   40       21.266492   0.000000
   41       24.458000   0.000000
   42       24.733044   0.000000
   43       24.733044   0.000000
   44       26.272598   0.000000
   45       26.833792   0.000000
   46       26.992239   0.000000
   47       27.422472   0.000000
   48       27.446063   0.000000
 
  0.1111111E+00  0.1111111E+00  0.1111111E+00  0.1097394E-01
    1       -0.579677   1.000000
    2        0.191444   1.000000
    3        0.191444   1.000000
    4        0.191444   1.000000
    5        0.270449   1.000000
    6        0.270449   1.000000
    7        0.270449   1.000000
    8        1.001731   1.000000
    9        1.097511   1.000000
   10        1.097511   1.000000
   11        1.633659   1.000000
   12        1.633659   1.000000
   13        1.989342   1.000000
   14        1.989342   1.000000
   15        1.989342   1.000000
   16        2.004478   1.000000
   17        2.004478   1.000000
   18        2.004478   1.000000
   19        2.201471   1.000000
   20        2.201471   1.000000
   21        2.201471   1.000000
   22        6.411501  -0.000000
   23        6.411501  -0.000000
   24        6.411501  -0.000000
   25       10.870538   0.000000
   26       10.870538   0.000000
   27       10.870538   0.000000
   28       12.866521   0.000000
   29       12.866521   0.000000
   30       12.866521   0.000000
   31       14.730346   0.000000
   32       14.730346   0.000000
   33       14.730346   0.000000
   34       18.940509   0.000000
   35       19.055740   0.000000
   36       19.055740   0.000000
   37       19.055740   0.000000
   38       20.655326   0.000000
   39       20.901133   0.000000
   40       20.901133   0.000000
   41       20.901133   0.000000
   42       21.850942   0.000000
   43       21.850942   0.000000
   44       25.395707   0.000000
   45       26.287039   0.000000
   46       26.287039   0.000000
   47       28.314766   0.000000
   48       28.314766   0.000000
 
  0.2222222E+00  0.1111111E+00  0.1111111E+00  0.3292181E-01
    1       -0.302439   1.000000
    2        0.270315   1.000000
    3        0.276400   1.000000
    4        0.276400   1.000000
    5        0.355802   1.000000
    6        0.412705   1.000000
    7        0.412705   1.000000
    8        0.951974   1.000000
    9        1.159914   1.000000
   10        1.162738   1.000000
   11        1.579206   1.000000
   12        1.689837   1.000000
   13        1.725261   1.000000
   14        1.725261   1.000000
   15        1.862832   1.000000
   16        1.878792   1.000000
   17        1.918265   1.000000
   18        1.918265   1.000000
   19        2.156997   1.000000
   20        2.184315   1.000000
   21        2.184315   1.000000
   22        5.032420   0.613348
   23        6.892235  -0.000000
   24        6.892235  -0.000000
   25       10.835178   0.000000
   26       10.835178   0.000000
   27       11.872509   0.000000
   28       11.872509   0.000000
   29       12.586503   0.000000
   30       13.469542   0.000000
   31       14.558095   0.000000
   32       14.558095   0.000000
   33       15.192580   0.000000
   34       17.766972   0.000000
   35       19.094698   0.000000
   36       19.694051   0.000000
   37       19.694051   0.000000
   38       20.365315   0.000000
   39       20.686359   0.000000
   40       21.024664   0.000000
   41       22.482389   0.000000
   42       22.530950   0.000000
   43       22.530950   0.000000
   44       24.310842   0.000000
   45       26.635730   0.000000
   46       26.648408   0.000000
   47       26.998167   0.000000
   48       29.434143   0.000000
 
  0.3333333E+00  0.1111111E+00  0.1111111E+00  0.3292181E-01
    1        0.098828   1.000000
    2        0.374829   1.000000
    3        0.426339   1.000000
    4        0.426339   1.000000
    5        0.491553   1.000000
    6        0.597991   1.000000
    7        0.597991   1.000000
    8        0.853905   1.000000
    9        1.231944   1.000000
   10        1.261804   1.000000
   11        1.392142   1.000000
   12        1.392142   1.000000
   13        1.619480   1.000000
   14        1.655187   1.000000
   15        1.726250   1.000000
   16        1.774812   1.000000
   17        1.794716   1.000000
   18        1.794716   1.000000
   19        2.081713   1.000000
   20        2.170327   1.000000
   21        2.170327   1.000000
   22        3.753294   1.000000
   23        7.571186  -0.000000
   24        7.571186  -0.000000
   25       10.199662   0.000000
   26       10.199662   0.000000
   27       11.688896   0.000000
   28       11.688896   0.000000
   29       13.688910   0.000000
   30       13.864030   0.000000
   31       13.864030   0.000000
   32       15.176088   0.000000
   33       15.930740   0.000000
   34       16.622712   0.000000
   35       19.185202   0.000000
   36       19.358152   0.000000
   37       19.952664   0.000000
   38       21.122610   0.000000
   39       21.122610   0.000000
   40       21.254097   0.000000
   41       22.080726   0.000000
   42       22.715835   0.000000
   43       24.330408   0.000000
   44       24.330408   0.000000
   45       26.573514   0.000000
   46       27.236312   0.000000
   47       27.511689   0.000000
   48       27.511689   0.000000
 
  0.4444444E+00  0.1111111E+00  0.1111111E+00  0.3292181E-01
    1        0.439084   1.000000
    2        0.474669   1.000000