       N       E                     dE             d eps       ncg     rms          rms(c)
DAV:   1     0.188160286612E+03    0.18816E+03   -0.18307E+04  3384   0.701E+02
DAV:   2    -0.769787006003E+01   -0.19586E+03   -0.18237E+03  4272   0.173E+02
DAV:   3    -0.105942443653E+02   -0.28964E+01   -0.28942E+01  4008   0.228E+01
DAV:   4    -0.106037458088E+02   -0.95014E-02   -0.95013E-02  4824   0.142E+00
DAV:   5    -0.106038482889E+02   -0.10248E-03   -0.10248E-03  3816   0.150E-01    0.524E+00
DAV:   6    -0.999478819567E+01    0.60906E+00   -0.18723E+00  4488   0.719E+00    0.387E+00
DAV:   7    -0.999019439428E+01    0.45938E-02   -0.95847E-03  4128   0.485E-01    0.238E+00
DAV:   8    -0.998775651488E+01    0.24379E-02   -0.32859E-03  4272   0.271E-01    0.731E-02
DAV:   9    -0.998783679314E+01   -0.80278E-04   -0.42334E-05  3480   0.257E-02
   1 F= -.99878368E+01 E0= -.99873475E+01  d E =-.146798E-02
