 vasp.5.4.1 05Feb16 (build Feb 08 2018 09:21:51) complex                        
  
 executed on             LinuxIFC date 2019.11.21  15:55:02
 running on   24 total cores
 distrk:  each k-point on   24 cores,    1 groups
 distr:  one band on NCORES_PER_BAND=   1 cores,   24 groups


--------------------------------------------------------------------------------------------------------


 INCAR:
 POTCAR:    PAW_PBE Ag 02Apr2005                  

 ----------------------------------------------------------------------------- 
|                                                                             |
|           W    W    AA    RRRRR   N    N  II  N    N   GGGG   !!!           |
|           W    W   A  A   R    R  NN   N  II  NN   N  G    G  !!!           |
|           W    W  A    A  R    R  N N  N  II  N N  N  G       !!!           |
|           W WW W  AAAAAA  RRRRR   N  N N  II  N  N N  G  GGG   !            |
|           WW  WW  A    A  R   R   N   NN  II  N   NN  G    G                |
|           W    W  A    A  R    R  N    N  II  N    N   GGGG   !!!           |
|                                                                             |
|      For optimal performance we recommend to set                            |
|        NCORE= 4 - approx SQRT( number of cores)                             |
|      NCORE specifies how many cores store one orbital (NPAR=cpu/NCORE).     |
|      This setting can  greatly improve the performance of VASP for DFT.     |
|      The default, NPAR=number of cores might be grossly inefficient         |
|      on modern multi-core architectures or massively parallel machines.     |
|      Do your own testing !!!!                                               |
|      Unfortunately you need to use the default for GW and RPA calculations. |
|      (for HF NCORE is supported but not extensively tested yet)             |
|                                                                             |
 ----------------------------------------------------------------------------- 

 POTCAR:    PAW_PBE Ag 02Apr2005                  
   VRHFIN =Ag : s1 d10                                                          
   LEXCH  = PE                                                                  
   EATOM  =  1037.2675 eV,   76.2370 Ry                                         
                                                                                
   TITEL  = PAW_PBE Ag 02Apr2005                                                
   LULTRA =        F    use ultrasoft PP ?                                      
   IUNSCR =        1    unscreen: 0-lin 1-nonlin 2-no                           
   RPACOR =    2.000    partial core radius                                     
   POMASS =  107.868; ZVAL   =   11.000    mass and valenz                      
   RCORE  =    2.500    outmost cutoff radius                                   
   RWIGS  =    2.840; RWIGS  =    1.503    wigner-seitz radius (au A)           
   ENMAX  =  249.844; ENMIN  =  187.383 eV                                      
   ICORE  =        3    local potential                                         
   LCOR   =        T    correct aug charges                                     
   LPAW   =        T    paw PP                                                  
   EAUG   =  412.496                                                            
   DEXC   =    0.000                                                            
   RMAX   =    2.560    core radius for proj-oper                               
   RAUG   =    1.300    factor for augmentation sphere                          
   RDEP   =    2.576    radius for radial grids                                 
   RDEPT  =    2.072    core radius for aug-charge                              
                                                                                
   Atomic configuration                                                         
   12 entries                                                                   
     n  l   j            E        occ.                                          
     1  0  0.50    -25324.9161   2.0000                                         
     2  0  0.50     -3728.5341   2.0000                                         
     2  1  1.50     -3344.0404   6.0000                                         
     3  0  0.50      -683.5581   2.0000                                         
     3  1  1.50      -557.3225   6.0000                                         
     3  2  2.50      -358.3853  10.0000                                         
     4  0  0.50       -95.0341   2.0000                                         
     4  1  1.50       -58.5511   6.0000                                         
     4  2  2.50        -7.4440  10.0000                                         
     5  0  0.50        -4.4045   1.0000                                         
     5  1  0.50        -1.3606   0.0000                                         
     4  3  2.50        -1.3606   0.0000                                         
   Description                                                                  
     l       E           TYP  RCUT    TYP  RCUT                                 
     2     -7.4439781     23  2.400                                             
     2     -8.8045607     23  2.400                                             
     0     -4.4044681     23  2.400                                             
     0      1.9520038     23  2.400                                             
     1     -1.3605826     23  2.500                                             
     1     27.2116520     23  2.500                                             
     3     -4.0817478     23  2.400                                             
  local pseudopotential read in
  partial core-charges read in
  partial kinetic energy density read in
  atomic valenz-charges read in
  non local Contribution for L=           2  read in
    real space projection operators read in
  non local Contribution for L=           2  read in
    real space projection operators read in
  non local Contribution for L=           0  read in
    real space projection operators read in
  non local Contribution for L=           0  read in
    real space projection operators read in
  non local Contribution for L=           1  read in
    real space projection operators read in
  non local Contribution for L=           1  read in
    real space projection operators read in
    PAW grid and wavefunctions read in
 
   number of l-projection  operators is LMAX  =           6
   number of lm-projection operators is LMMAX =          18
 
  PAW_PBE Ag 02Apr2005                  :
 energy of atom  1       EATOM=-1037.2675
 kinetic energy error for atom=    0.0091 (will be added to EATOM!!)
 
 
 POSCAR: Ag                                      
  positions in cartesian coordinates
  No initial velocities read in
 exchange correlation table for  LEXCH =        8
   RHO(1)=    0.500       N(1)  =     2000
   RHO(2)=  100.500       N(2)  =     4000
 


--------------------------------------------------------------------------------------------------------


 ion  position               nearest neighbor table
   1  0.000  0.000  0.000-   2 3.18   3 3.18   4 3.18   2 3.18   3 3.18   2 3.18   4 3.18   2 3.18
                             3 3.18   4 3.18   3 3.18   4 3.18
   2  0.000  0.500  0.500-   1 3.18   3 3.18   4 3.18   1 3.18   4 3.18   1 3.18   3 3.18   1 3.18
                             3 3.18   4 3.18   4 3.18   3 3.18
   3  0.500  0.000  0.500-   1 3.18   2 3.18   4 3.18   1 3.18   4 3.18   2 3.18   4 3.18   4 3.18
                             1 3.18   2 3.18   1 3.18   2 3.18
   4  0.500  0.500  0.000-   1 3.18   2 3.18   3 3.18   2 3.18   3 3.18   1 3.18   3 3.18   3 3.18
                             1 3.18   2 3.18   2 3.18   1 3.18
 
  LATTYP: Found a simple cubic cell.
 ALAT       =     4.4990000000
  
  Lattice vectors:
  
 A1 = (   4.4990000000,   0.0000000000,   0.0000000000)
 A2 = (   0.0000000000,   4.4990000000,   0.0000000000)
 A3 = (   0.0000000000,   0.0000000000,   4.4990000000)


Analysis of symmetry for initial positions (statically):
=====================================================================
 Subroutine PRICEL returns following result:
 
  LATTYP: Found a face centered cubic cell.
 ALAT       =     4.4990000000
  
  Lattice vectors:
  
 A1 = (   2.2495000000,   2.2495000000,   0.0000000000)
 A2 = (   2.2495000000,   0.0000000000,  -2.2495000000)
 A3 = (   0.0000000000,   2.2495000000,  -2.2495000000)
 
   4 primitive cells build up your supercell.
 

 Routine SETGRP: Setting up the symmetry group for a 
 simple cubic supercell.


 Subroutine GETGRP returns: Found 48 space group operations
 (whereof 48 operations were pure point group operations)
 out of a pool of 48 trial point group operations.


The static configuration has the point symmetry O_h .


Analysis of symmetry for dynamics (positions and initial velocities):
=====================================================================
 Subroutine PRICEL returns following result:
 
  LATTYP: Found a face centered cubic cell.
 ALAT       =     4.4990000000
  
  Lattice vectors:
  
 A1 = (   2.2495000000,   2.2495000000,   0.0000000000)
 A2 = (   2.2495000000,   0.0000000000,  -2.2495000000)
 A3 = (   0.0000000000,   2.2495000000,  -2.2495000000)
 
   4 primitive cells build up your supercell.
 

 Routine SETGRP: Setting up the symmetry group for a 
 simple cubic supercell.


 Subroutine GETGRP returns: Found 48 space group operations
 (whereof 48 operations were pure point group operations)
 out of a pool of 48 trial point group operations.


The dynamic configuration has the point symmetry O_h .


 Subroutine INISYM returns: Found 48 space group operations
 (whereof 48 operations are pure point group operations),
 and found     4 'primitive' translations

 
 
 KPOINTS: KPOINTS created by Atomic Simulation Env

Automatic generation of k-mesh.
Space group operators:
 irot       det(A)        alpha          n_x          n_y          n_z        tau_x        tau_y        tau_z
    1     1.000000     0.000001     1.000000     0.000000     0.000000     0.000000     0.000000     0.000000
    2    -1.000000     0.000001     1.000000     0.000000     0.000000     0.000000     0.000000     0.000000
    3     1.000000   120.000000    -0.577350    -0.577350    -0.577350     0.000000     0.000000     0.000000
    4    -1.000000   120.000000    -0.577350    -0.577350    -0.577350     0.000000     0.000000     0.000000
    5     1.000000   120.000000     0.577350     0.577350     0.577350     0.000000     0.000000     0.000000
    6    -1.000000   120.000000     0.577350     0.577350     0.577350     0.000000     0.000000     0.000000
    7     1.000000    90.000000     0.000000     0.000000    -1.000000     0.000000     0.000000     0.000000
    8    -1.000000    90.000000     0.000000     0.000000    -1.000000     0.000000     0.000000     0.000000
    9     1.000000   179.999999     0.000000     0.707107     0.707107     0.000000     0.000000     0.000000
   10    -1.000000   179.999999     0.000000     0.707107     0.707107     0.000000     0.000000     0.000000
   11     1.000000    90.000000     0.000000     1.000000     0.000000     0.000000     0.000000     0.000000
   12    -1.000000    90.000000     0.000000     1.000000     0.000000     0.000000     0.000000     0.000000
   13     1.000000   179.999999     0.000000     0.000000     1.000000     0.000000     0.000000     0.000000
   14    -1.000000   179.999999     0.000000     0.000000     1.000000     0.000000     0.000000     0.000000
   15     1.000000   120.000000    -0.577350     0.577350     0.577350     0.000000     0.000000     0.000000
   16    -1.000000   120.000000    -0.577350     0.577350     0.577350     0.000000     0.000000     0.000000
   17     1.000000   120.000000    -0.577350     0.577350    -0.577350     0.000000     0.000000     0.000000
   18    -1.000000   120.000000    -0.577350     0.577350    -0.577350     0.000000     0.000000     0.000000
   19     1.000000    90.000000     0.000000     0.000000     1.000000     0.000000     0.000000     0.000000
   20    -1.000000    90.000000     0.000000     0.000000     1.000000     0.000000     0.000000     0.000000
   21     1.000000    90.000000    -1.000000     0.000000     0.000000     0.000000     0.000000     0.000000
   22    -1.000000    90.000000    -1.000000     0.000000     0.000000     0.000000     0.000000     0.000000
   23     1.000000   179.999999     0.707107     0.000000     0.707107     0.000000     0.000000     0.000000
   24    -1.000000   179.999999     0.707107     0.000000     0.707107     0.000000     0.000000     0.000000
   25     1.000000   120.000000     0.577350    -0.577350     0.577350     0.000000     0.000000     0.000000
   26    -1.000000   120.000000     0.577350    -0.577350     0.577350     0.000000     0.000000     0.000000
   27     1.000000   120.000000    -0.577350    -0.577350     0.577350     0.000000     0.000000     0.000000
   28    -1.000000   120.000000    -0.577350    -0.577350     0.577350     0.000000     0.000000     0.000000
   29     1.000000   179.999999     1.000000     0.000000     0.000000     0.000000     0.000000     0.000000
   30    -1.000000   179.999999     1.000000     0.000000     0.000000     0.000000     0.000000     0.000000
   31     1.000000    90.000000     0.000000    -1.000000     0.000000     0.000000     0.000000     0.000000
   32    -1.000000    90.000000     0.000000    -1.000000     0.000000     0.000000     0.000000     0.000000
   33     1.000000   179.999999     0.707107     0.707107     0.000000     0.000000     0.000000     0.000000
   34    -1.000000   179.999999     0.707107     0.707107     0.000000     0.000000     0.000000     0.000000
   35     1.000000    90.000000     1.000000     0.000000     0.000000     0.000000     0.000000     0.000000
   36    -1.000000    90.000000     1.000000     0.000000     0.000000     0.000000     0.000000     0.000000
   37     1.000000   120.000000     0.577350    -0.577350    -0.577350     0.000000     0.000000     0.000000
   38    -1.000000   120.000000     0.577350    -0.577350    -0.577350     0.000000     0.000000     0.000000
   39     1.000000   179.999999     0.000000     1.000000     0.000000     0.000000     0.000000     0.000000
   40    -1.000000   179.999999     0.000000     1.000000     0.000000     0.000000     0.000000     0.000000
   41     1.000000   120.000000     0.577350     0.577350    -0.577350     0.000000     0.000000     0.000000
   42    -1.000000   120.000000     0.577350     0.577350    -0.577350     0.000000     0.000000     0.000000
   43     1.000000   179.999999     0.000000    -0.707107     0.707107     0.000000     0.000000     0.000000
   44    -1.000000   179.999999     0.000000    -0.707107     0.707107     0.000000     0.000000     0.000000
   45     1.000000   179.999999     0.707107    -0.707107     0.000000     0.000000     0.000000     0.000000
   46    -1.000000   179.999999     0.707107    -0.707107     0.000000     0.000000     0.000000     0.000000
   47     1.000000   179.999999     0.707107     0.000000    -0.707107     0.000000     0.000000     0.000000
   48    -1.000000   179.999999     0.707107     0.000000    -0.707107     0.000000     0.000000     0.000000
 
 Subroutine IBZKPT returns following result:
 ===========================================
 
 Found     35 irreducible k-points:
 
 Following reciprocal coordinates:
            Coordinates               Weight
  0.000000  0.000000  0.000000      1.000000
  0.111111  0.000000  0.000000      6.000000
  0.222222  0.000000  0.000000      6.000000
  0.333333  0.000000  0.000000      6.000000
  0.444444  0.000000  0.000000      6.000000
  0.111111  0.111111  0.000000     12.000000
  0.222222  0.111111  0.000000     24.000000
  0.333333  0.111111  0.000000     24.000000
  0.444444  0.111111  0.000000     24.000000
  0.222222  0.222222  0.000000     12.000000
  0.333333  0.222222  0.000000     24.000000
  0.444444  0.222222  0.000000     24.000000
  0.333333  0.333333  0.000000     12.000000
  0.444444  0.333333  0.000000     24.000000
  0.444444  0.444444  0.000000     12.000000
  0.111111  0.111111  0.111111      8.000000
  0.222222  0.111111  0.111111     24.000000
  0.333333  0.111111  0.111111     24.000000
  0.444444  0.111111  0.111111     24.000000
  0.222222  0.222222  0.111111     24.000000
  0.333333  0.222222  0.111111     48.000000
  0.444444  0.222222  0.111111     48.000000
  0.333333  0.333333  0.111111     24.000000
  0.444444  0.333333  0.111111     48.000000
  0.444444  0.444444  0.111111     24.000000
  0.222222  0.222222  0.222222      8.000000
  0.333333  0.222222  0.222222     24.000000
  0.444444  0.222222  0.222222     24.000000
  0.333333  0.333333  0.222222     24.000000
  0.444444  0.333333  0.222222     48.000000
  0.444444  0.444444  0.222222     24.000000
  0.333333  0.333333  0.333333      8.000000
  0.444444  0.333333  0.333333     24.000000
  0.444444  0.444444  0.333333     24.000000
  0.444444  0.444444  0.444444      8.000000
 
 Following cartesian coordinates:
            Coordinates               Weight
  0.000000  0.000000  0.000000      1.000000
  0.024697  0.000000  0.000000      6.000000
  0.049394  0.000000  0.000000      6.000000
  0.074091  0.000000  0.000000      6.000000
  0.098787  0.000000  0.000000      6.000000
  0.024697  0.024697  0.000000     12.000000
  0.049394  0.024697  0.000000     24.000000
  0.074091  0.024697  0.000000     24.000000
  0.098787  0.024697  0.000000     24.000000
  0.049394  0.049394  0.000000     12.000000
  0.074091  0.049394  0.000000     24.000000
  0.098787  0.049394  0.000000     24.000000
  0.074091  0.074091  0.000000     12.000000
  0.098787  0.074091  0.000000     24.000000
  0.098787  0.098787  0.000000     12.000000
  0.024697  0.024697  0.024697      8.000000
  0.049394  0.024697  0.024697     24.000000
  0.074091  0.024697  0.024697     24.000000
  0.098787  0.024697  0.024697     24.000000
  0.049394  0.049394  0.024697     24.000000
  0.074091  0.049394  0.024697     48.000000
  0.098787  0.049394  0.024697     48.000000
  0.074091  0.074091  0.024697     24.000000
  0.098787  0.074091  0.024697     48.000000
  0.098787  0.098787  0.024697     24.000000
  0.049394  0.049394  0.049394      8.000000
  0.074091  0.049394  0.049394     24.000000
  0.098787  0.049394  0.049394     24.000000
  0.074091  0.074091  0.049394     24.000000
  0.098787  0.074091  0.049394     48.000000
  0.098787  0.098787  0.049394     24.000000
  0.074091  0.074091  0.074091      8.000000
  0.098787  0.074091  0.074091     24.000000
  0.098787  0.098787  0.074091     24.000000
  0.098787  0.098787  0.098787      8.000000
 


--------------------------------------------------------------------------------------------------------




 Dimension of arrays:
   k-points           NKPTS =     35   k-points in BZ     NKDIM =     35   number of bands    NBANDS=     48
   number of dos      NEDOS =    301   number of ions     NIONS =      4
   non local maximal  LDIM  =      6   non local SUM 2l+1 LMDIM =     18
   total plane-waves  NPLWV =  13824
   max r-space proj   IRMAX =      1   max aug-charges    IRDMAX=   7663
   dimension x,y,z NGX =    24 NGY =   24 NGZ =   24
   dimension x,y,z NGXF=    48 NGYF=   48 NGZF=   48
   support grid    NGXF=    48 NGYF=   48 NGZF=   48
   ions per type =               4
 NGX,Y,Z   is equivalent  to a cutoff of   8.87,  8.87,  8.87 a.u.
 NGXF,Y,Z  is equivalent  to a cutoff of  17.74, 17.74, 17.74 a.u.


 I would recommend the setting:
   dimension x,y,z NGX =    22 NGY =   22 NGZ =   22
 SYSTEM =  unknown system                          
 POSCAR =  Ag                                      

 Startparameter for this run:
   NWRITE =      2    write-flag & timer
   PREC   = normal    normal or accurate (medium, high low for compatibility)
   ISTART =      0    job   : 0-new  1-cont  2-samecut
   ICHARG =      2    charge: 1-file 2-atom 10-const
   ISPIN  =      1    spin polarized calculation?
   LNONCOLLINEAR =      F non collinear calculations
   LSORBIT =      F    spin-orbit coupling
   INIWAV =      1    electr: 0-lowe 1-rand  2-diag
   LASPH  =      F    aspherical Exc in radial PAW
   METAGGA=      F    non-selfconsistent MetaGGA calc.

 Electronic Relaxation 1
   ENCUT  =  400.0 eV  29.40 Ry    5.42 a.u.   7.34  7.34  7.34*2*pi/ulx,y,z
   ENINI  =  400.0     initial cutoff
   ENAUG  =  412.5 eV  augmentation charge cutoff
   NELM   =     60;   NELMIN=  2; NELMDL= -5     # of ELM steps 
   EDIFF  = 0.1E-03   stopping-criterion for ELM
   LREAL  =      F    real-space projection
   NLSPLINE    = F    spline interpolate recip. space projectors
   LCOMPAT=      F    compatible to vasp.4.4
   GGA_COMPAT  = T    GGA compatible to vasp.4.4-vasp.4.6
   LMAXPAW     = -100 max onsite density
   LMAXMIX     =    2 max onsite mixed and CHGCAR
   VOSKOWN=      0    Vosko Wilk Nusair interpolation
   ROPT   =    0.00000
 Ionic relaxation
   EDIFFG = 0.1E-02   stopping-criterion for IOM
   NSW    =      0    number of steps for IOM
   NBLOCK =      1;   KBLOCK =      1    inner block; outer block 
   IBRION =     -1    ionic relax: 0-MD 1-quasi-New 2-CG
   NFREE  =      0    steps in history (QN), initial steepest desc. (CG)
   ISIF   =      2    stress and relaxation
   IWAVPR =     10    prediction:  0-non 1-charg 2-wave 3-comb
   ISYM   =      2    0-nonsym 1-usesym 2-fastsym
   LCORR  =      T    Harris-Foulkes like correction to forces

   POTIM  = 0.5000    time-step for ionic-motion
   TEIN   =    0.0    initial temperature
   TEBEG  =    0.0;   TEEND  =   0.0 temperature during run
   SMASS  =  -3.00    Nose mass-parameter (am)
   estimated Nose-frequenzy (Omega)   =  0.10E-29 period in steps =****** mass=  -0.463E-27a.u.
   SCALEE = 1.0000    scale energy and forces
   NPACO  =    256;   APACO  = 16.0  distance and # of slots for P.C.
   PSTRESS=    0.0 pullay stress

  Mass of Ions in am
   POMASS = 107.87
  Ionic Valenz
   ZVAL   =  11.00
  Atomic Wigner-Seitz radii
   RWIGS  =  -1.00
  virtual crystal weights 
   VCA    =   1.00
   NELECT =      44.0000    total number of electrons
   NUPDOWN=      -1.0000    fix difference up-down

 DOS related values:
   EMIN   =  10.00;   EMAX   =-10.00  energy-range for DOS
   EFERMI =   0.00
   ISMEAR =     1;   SIGMA  =   0.10  broadening in eV -4-tet -1-fermi 0-gaus

 Electronic relaxation 2 (details)
   IALGO  =     38    algorithm
   LDIAG  =      T    sub-space diagonalisation (order eigenvalues)
   LSUBROT=      F    optimize rotation matrix (better conditioning)
   TURBO    =      0    0=normal 1=particle mesh
   IRESTART =      0    0=no restart 2=restart with 2 vectors
   NREBOOT  =      0    no. of reboots
   NMIN     =      0    reboot dimension
   EREF     =   0.00    reference energy to select bands
   IMIX   =      4    mixing-type and parameters
     AMIX     =   0.40;   BMIX     =  1.00
     AMIX_MAG =   1.60;   BMIX_MAG =  1.00
     AMIN     =   0.10
     WC   =   100.;   INIMIX=   1;  MIXPRE=   1;  MAXMIX= -45

 Intra band minimization:
   WEIMIN = 0.0000     energy-eigenvalue tresh-hold
   EBREAK =  0.52E-06  absolut break condition
   DEPER  =   0.30     relativ break condition  

   TIME   =   0.40     timestep for ELM

  volume/ion in A,a.u.               =      22.77       153.63
  Fermi-wavevector in a.u.,A,eV,Ry     =   1.284625  2.427589 22.453172  1.650262
  Thomas-Fermi vector in A             =   2.416808
 
 Write flags
   LWAVE  =      F    write WAVECAR
   LCHARG =      F    write CHGCAR
   LVTOT  =      F    write LOCPOT, total local potential
   LVHAR  =      F    write LOCPOT, Hartree potential only
   LELF   =      F    write electronic localiz. function (ELF)
   LORBIT =      0    0 simple, 1 ext, 2 COOP (PROOUT)


 Dipole corrections
   LMONO  =      F    monopole corrections only (constant potential shift)
   LDIPOL =      F    correct potential (dipole corrections)
   IDIPOL =      0    1-x, 2-y, 3-z, 4-all directions 
   EPSILON=  1.0000000 bulk dielectric constant

 Exchange correlation treatment:
   GGA     =    --    GGA type
   LEXCH   =     8    internal setting for exchange type
   VOSKOWN=      0    Vosko Wilk Nusair interpolation
   LHFCALC =     F    Hartree Fock is set to
   LHFONE  =     F    Hartree Fock one center treatment
   AEXX    =    0.0000 exact exchange contribution

 Linear response parameters
   LEPSILON=     F    determine dielectric tensor
   LRPA    =     F    only Hartree local field effects (RPA)
   LNABLA  =     F    use nabla operator in PAW spheres
   LVEL    =     F    velocity operator in full k-point grid
   LINTERFAST=   F  fast interpolation
   KINTER  =     0    interpolate to denser k-point grid
   CSHIFT  =0.1000    complex shift for real part using Kramers Kronig
   OMEGAMAX=  -1.0    maximum frequency
   DEG_THRESHOLD= 0.2000000E-02 threshold for treating states as degnerate
   RTIME   =    0.100 relaxation time in fs

 Orbital magnetization related:
   ORBITALMAG=     F  switch on orbital magnetization
   LCHIMAG   =     F  perturbation theory with respect to B field
   DQ        =  0.001000  dq finite difference perturbation B field



--------------------------------------------------------------------------------------------------------


 Static calculation
 charge density and potential will be updated during run
 non-spin polarized calculation
 Variant of blocked Davidson
 Davidson routine will perform the subspace rotation
 perform sub-space diagonalisation
    after iterative eigenvector-optimisation
 modified Broyden-mixing scheme, WC =      100.0
 initial mixing is a Kerker type mixing with AMIX =  0.4000 and BMIX =      1.0000
 Hartree-type preconditioning will be used
 using additional bands           26
 reciprocal scheme for non local part
 use partial core corrections
 calculate Harris-corrections to forces 
   (improved forces if not selfconsistent)
 use gradient corrections 
 use of overlap-Matrix (Vanderbilt PP)
 Methfessel and Paxton  Order N= 1 SIGMA  =   0.10


--------------------------------------------------------------------------------------------------------


  energy-cutoff  :      400.00
  volume of cell :       91.06
      direct lattice vectors                 reciprocal lattice vectors
     4.499000000  0.000000000  0.000000000     0.222271616  0.000000000  0.000000000
     0.000000000  4.499000000  0.000000000     0.000000000  0.222271616  0.000000000
     0.000000000  0.000000000  4.499000000     0.000000000  0.000000000  0.222271616

  length of vectors
     4.499000000  4.499000000  4.499000000     0.222271616  0.222271616  0.222271616


 
 k-points in units of 2pi/SCALE and weight: KPOINTS created by Atomic Simulation Env
   0.00000000  0.00000000  0.00000000       0.001
   0.02469685  0.00000000  0.00000000       0.008
   0.04939369  0.00000000  0.00000000       0.008
   0.07409054  0.00000000  0.00000000       0.008
   0.09878738  0.00000000  0.00000000       0.008
   0.02469685  0.02469685  0.00000000       0.016
   0.04939369  0.02469685  0.00000000       0.033
   0.07409054  0.02469685  0.00000000       0.033
   0.09878738  0.02469685  0.00000000       0.033
   0.04939369  0.04939369  0.00000000       0.016
   0.07409054  0.04939369  0.00000000       0.033
   0.09878738  0.04939369  0.00000000       0.033
   0.07409054  0.07409054  0.00000000       0.016
   0.09878738  0.07409054  0.00000000       0.033
   0.09878738  0.09878738  0.00000000       0.016
   0.02469685  0.02469685  0.02469685       0.011
   0.04939369  0.02469685  0.02469685       0.033
   0.07409054  0.02469685  0.02469685       0.033
   0.09878738  0.02469685  0.02469685       0.033
   0.04939369  0.04939369  0.02469685       0.033
   0.07409054  0.04939369  0.02469685       0.066
   0.09878738  0.04939369  0.02469685       0.066
   0.07409054  0.07409054  0.02469685       0.033
   0.09878738  0.07409054  0.02469685       0.066
   0.09878738  0.09878738  0.02469685       0.033
   0.04939369  0.04939369  0.04939369       0.011
   0.07409054  0.04939369  0.04939369       0.033
   0.09878738  0.04939369  0.04939369       0.033
   0.07409054  0.07409054  0.04939369       0.033
   0.09878738  0.07409054  0.04939369       0.066
   0.09878738  0.09878738  0.04939369       0.033
   0.07409054  0.07409054  0.07409054       0.011
   0.09878738  0.07409054  0.07409054       0.033
   0.09878738  0.09878738  0.07409054       0.033
   0.09878738  0.09878738  0.09878738       0.011
 
 k-points in reciprocal lattice and weights: KPOINTS created by Atomic Simulation Env
   0.00000000  0.00000000  0.00000000       0.001
   0.11111111  0.00000000  0.00000000       0.008
   0.22222222  0.00000000  0.00000000       0.008
   0.33333333  0.00000000  0.00000000       0.008
   0.44444444  0.00000000  0.00000000       0.008
   0.11111111  0.11111111  0.00000000       0.016
   0.22222222  0.11111111  0.00000000       0.033
   0.33333333  0.11111111  0.00000000       0.033
   0.44444444  0.11111111  0.00000000       0.033
   0.22222222  0.22222222  0.00000000       0.016
   0.33333333  0.22222222  0.00000000       0.033
   0.44444444  0.22222222  0.00000000       0.033
   0.33333333  0.33333333  0.00000000       0.016
   0.44444444  0.33333333  0.00000000       0.033
   0.44444444  0.44444444  0.00000000       0.016
   0.11111111  0.11111111  0.11111111       0.011
   0.22222222  0.11111111  0.11111111       0.033
   0.33333333  0.11111111  0.11111111       0.033
   0.44444444  0.11111111  0.11111111       0.033
   0.22222222  0.22222222  0.11111111       0.033
   0.33333333  0.22222222  0.11111111       0.066
   0.44444444  0.22222222  0.11111111       0.066
   0.33333333  0.33333333  0.11111111       0.033
   0.44444444  0.33333333  0.11111111       0.066
   0.44444444  0.44444444  0.11111111       0.033
   0.22222222  0.22222222  0.22222222       0.011
   0.33333333  0.22222222  0.22222222       0.033
   0.44444444  0.22222222  0.22222222       0.033
   0.33333333  0.33333333  0.22222222       0.033
   0.44444444  0.33333333  0.22222222       0.066
   0.44444444  0.44444444  0.22222222       0.033
   0.33333333  0.33333333  0.33333333       0.011
   0.44444444  0.33333333  0.33333333       0.033
   0.44444444  0.44444444  0.33333333       0.033
   0.44444444  0.44444444  0.44444444       0.011
 
 position of ions in fractional coordinates (direct lattice) 
   0.00000000  0.00000000  0.00000000
   0.00000000  0.50000000  0.50000000
   0.50000000  0.00000000  0.50000000
   0.50000000  0.50000000  0.00000000
 
 position of ions in cartesian coordinates  (Angst):
   0.00000000  0.00000000  0.00000000
   0.00000000  2.24950000  2.24950000
   2.24950000  0.00000000  2.24950000
   2.24950000  2.24950000  0.00000000
 


--------------------------------------------------------------------------------------------------------


 k-point  1 :   0.0000 0.0000 0.0000  plane waves:    1647
 k-point  2 :   0.1111 0.0000 0.0000  plane waves:    1675
 k-point  3 :   0.2222 0.0000 0.0000  plane waves:    1671
 k-point  4 :   0.3333 0.0000 0.0000  plane waves:    1675
 k-point  5 :   0.4444 0.0000 0.0000  plane waves:    1662
 k-point  6 :   0.1111 0.1111 0.0000  plane waves:    1669
 k-point  7 :   0.2222 0.1111 0.0000  plane waves:    1655
 k-point  8 :   0.3333 0.1111 0.0000  plane waves:    1661
 k-point  9 :   0.4444 0.1111 0.0000  plane waves:    1660
 k-point 10 :   0.2222 0.2222 0.0000  plane waves:    1658
 k-point 11 :   0.3333 0.2222 0.0000  plane waves:    1646
 k-point 12 :   0.4444 0.2222 0.0000  plane waves:    1651
 k-point 13 :   0.3333 0.3333 0.0000  plane waves:    1634
 k-point 14 :   0.4444 0.3333 0.0000  plane waves:    1655
 k-point 15 :   0.4444 0.4444 0.0000  plane waves:    1648
 k-point 16 :   0.1111 0.1111 0.1111  plane waves:    1668
 k-point 17 :   0.2222 0.1111 0.1111  plane waves:    1664
 k-point 18 :   0.3333 0.1111 0.1111  plane waves:    1657
 k-point 19 :   0.4444 0.1111 0.1111  plane waves:    1650
 k-point 20 :   0.2222 0.2222 0.1111  plane waves:    1656
 k-point 21 :   0.3333 0.2222 0.1111  plane waves:    1645
 k-point 22 :   0.4444 0.2222 0.1111  plane waves:    1653
 k-point 23 :   0.3333 0.3333 0.1111  plane waves:    1645
 k-point 24 :   0.4444 0.3333 0.1111  plane waves:    1651
 k-point 25 :   0.4444 0.4444 0.1111  plane waves:    1656
 k-point 26 :   0.2222 0.2222 0.2222  plane waves:    1653
 k-point 27 :   0.3333 0.2222 0.2222  plane waves:    1653
 k-point 28 :   0.4444 0.2222 0.2222  plane waves:    1656
 k-point 29 :   0.3333 0.3333 0.2222  plane waves:    1647
 k-point 30 :   0.4444 0.3333 0.2222  plane waves:    1658
 k-point 31 :   0.4444 0.4444 0.2222  plane waves:    1649
 k-point 32 :   0.3333 0.3333 0.3333  plane waves:    1646
 k-point 33 :   0.4444 0.3333 0.3333  plane waves:    1659
 k-point 34 :   0.4444 0.4444 0.3333  plane waves:    1645
 k-point 35 :   0.4444 0.4444 0.4444  plane waves:    1649

 maximum and minimum number of plane-waves per node :      1675     1634

 maximum number of plane-waves:      1675
 maximum index in each direction: 
   IXMAX=    7   IYMAX=    7   IZMAX=    7
   IXMIN=   -7   IYMIN=   -7   IZMIN=   -7

 WARNING: aliasing errors must be expected set NGX to  30 to avoid them
 WARNING: aliasing errors must be expected set NGY to  30 to avoid them
 WARNING: aliasing errors must be expected set NGZ to  30 to avoid them
 aliasing errors are usually negligible using standard VASP settings
 and one can safely disregard these warnings

 serial   3D FFT for wavefunctions
 parallel 3D FFT for charge:
    minimum data exchange during FFTs selected (reduces bandwidth)


 total amount of memory used by VASP on root node    41608. kBytes
========================================================================

   base      :      30000. kBytes
   nonl-proj :       8574. kBytes
   fftplans  :        221. kBytes
   grid      :        789. kBytes
   one-center:         62. kBytes
   wavefun   :       1962. kBytes
 
     INWAV:  cpu time    0.0000: real time    0.0000
 Broyden mixing: mesh for mixing (old mesh)
   NGX = 15   NGY = 15   NGZ = 15
  (NGX  = 48   NGY  = 48   NGZ  = 48)
  gives a total of   3375 points

 initial charge density was supplied:
 charge density of overlapping atoms calculated
 number of electron      44.0000000 magnetization 
 keeping initial charge density in first step


--------------------------------------------------------------------------------------------------------


 Maximum index for augmentation-charges          441 (set IRDMAX)


--------------------------------------------------------------------------------------------------------


 First call to EWALD:  gamma=   0.394
 Maximum number of real-space cells 3x 3x 3
 Maximum number of reciprocal cells 3x 3x 3

 FEWALD executed in parallel
    FEWALD:  cpu time    0.0015: real time    0.0015


----------------------------------------- Iteration    1(   1)  ---------------------------------------


    POTLOK:  cpu time    0.0764: real time    0.0765
    SETDIJ:  cpu time    0.0034: real time    0.0034
     EDDAV:  cpu time    0.5677: real time    0.5678
       DOS:  cpu time    0.0009: real time    0.0009
    --------------------------------------------
      LOOP:  cpu time    0.6506: real time    0.6520

 eigenvalue-minimisations  :  3384
 total energy-change (2. order) : 0.1881603E+03  (-0.1830749E+04)
 number of electron      44.0000000 magnetization 
 augmentation part       44.0000000 magnetization 

 Free energy of the ion-electron system (eV)
  ---------------------------------------------------
  alpha Z        PSCENC =       149.44664988
  Ewald energy   TEWEN  =     -3551.25391848
  -Hartree energ DENC   =      -992.91955970
  -exchange      EXHF   =         0.00000000
  -V(xc)+E(xc)   XCENC  =       -44.32278687
  PAW double counting   =      4013.84859731    -3829.39709692
  entropy T*S    EENTRO =         0.00036694
  eigenvalues    EBANDS =       293.72432094
  atomic energy  EATOM  =      4149.03371350
  Solvation  Ediel_sol  =         0.00000000
  ---------------------------------------------------
  free energy    TOTEN  =       188.16028661 eV

  energy without entropy =      188.15991967  energy(sigma->0) =      188.16016430


--------------------------------------------------------------------------------------------------------




----------------------------------------- Iteration    1(   2)  ---------------------------------------


     EDDAV:  cpu time    0.7705: real time    0.7729
       DOS:  cpu time    0.0007: real time    0.0007
    --------------------------------------------
      LOOP:  cpu time    0.7724: real time    0.7873

 eigenvalue-minimisations  :  4272
 total energy-change (2. order) :-0.1958582E+03  (-0.1823701E+03)
 number of electron      44.0000000 magnetization 
 augmentation part       44.0000000 magnetization 

 Free energy of the ion-electron system (eV)
  ---------------------------------------------------
  alpha Z        PSCENC =       149.44664988
  Ewald energy   TEWEN  =     -3551.25391848
  -Hartree energ DENC   =      -992.91955970
  -exchange      EXHF   =         0.00000000
  -V(xc)+E(xc)   XCENC  =       -44.32278687
  PAW double counting   =      4013.84859731    -3829.39709692
  entropy T*S    EENTRO =         0.00148555
  eigenvalues    EBANDS =        97.86504566
  atomic energy  EATOM  =      4149.03371350
  Solvation  Ediel_sol  =         0.00000000
  ---------------------------------------------------
  free energy    TOTEN  =        -7.69787006 eV

  energy without entropy =       -7.69935561  energy(sigma->0) =       -7.69836524


--------------------------------------------------------------------------------------------------------




----------------------------------------- Iteration    1(   3)  ---------------------------------------


     EDDAV:  cpu time    0.6704: real time    0.6706
       DOS:  cpu time    0.0007: real time    0.0007
    --------------------------------------------
      LOOP:  cpu time    0.6720: real time    0.6738

 eigenvalue-minimisations  :  4008
 total energy-change (2. order) :-0.2896374E+01  (-0.2894163E+01)
 number of electron      44.0000000 magnetization 
 augmentation part       44.0000000 magnetization 

 Free energy of the ion-electron system (eV)
  ---------------------------------------------------
  alpha Z        PSCENC =       149.44664988
  Ewald energy   TEWEN  =     -3551.25391848
  -Hartree energ DENC   =      -992.91955970
  -exchange      EXHF   =         0.00000000
  -V(xc)+E(xc)   XCENC  =       -44.32278687
  PAW double counting   =      4013.84859731    -3829.39709692
  entropy T*S    EENTRO =         0.00152557
  eigenvalues    EBANDS =        94.96863134
  atomic energy  EATOM  =      4149.03371350
  Solvation  Ediel_sol  =         0.00000000
  ---------------------------------------------------
  free energy    TOTEN  =       -10.59424437 eV

  energy without entropy =      -10.59576993  energy(sigma->0) =      -10.59475289


--------------------------------------------------------------------------------------------------------




----------------------------------------- Iteration    1(   4)  ---------------------------------------


     EDDAV:  cpu time    0.8954: real time    0.8955
       DOS:  cpu time    0.0007: real time    0.0007
    --------------------------------------------
      LOOP:  cpu time    0.8971: real time    0.9101

 eigenvalue-minimisations  :  4824
 total energy-change (2. order) :-0.9501443E-02  (-0.9501254E-02)
 number of electron      44.0000000 magnetization 
 augmentation part       44.0000000 magnetization 

 Free energy of the ion-electron system (eV)
  ---------------------------------------------------
  alpha Z        PSCENC =       149.44664988
  Ewald energy   TEWEN  =     -3551.25391848
  -Hartree energ DENC   =      -992.91955970
  -exchange      EXHF   =         0.00000000
  -V(xc)+E(xc)   XCENC  =       -44.32278687
  PAW double counting   =      4013.84859731    -3829.39709692
  entropy T*S    EENTRO =         0.00152590
  eigenvalues    EBANDS =        94.95912956
  atomic energy  EATOM  =      4149.03371350
  Solvation  Ediel_sol  =         0.00000000
  ---------------------------------------------------
  free energy    TOTEN  =       -10.60374581 eV

  energy without entropy =      -10.60527171  energy(sigma->0) =      -10.60425444


--------------------------------------------------------------------------------------------------------




----------------------------------------- Iteration    1(   5)  ---------------------------------------


     EDDAV:  cpu time    0.6394: real time    0.6395
       DOS:  cpu time    0.0007: real time    0.0007
    CHARGE:  cpu time    0.0161: real time    0.0162
    MIXING:  cpu time    0.0006: real time    0.0006
    --------------------------------------------
      LOOP:  cpu time    0.6579: real time    0.6592

 eigenvalue-minimisations  :  3816
 total energy-change (2. order) :-0.1024801E-03  (-0.1024798E-03)
 number of electron      43.9999965 magnetization 
 augmentation part       20.6122157 magnetization 

 Broyden mixing:
  rms(total) = 0.52439E+00    rms(broyden)= 0.52439E+00
  rms(prec ) = 0.11189E+01
  weight for this iteration     100.00

 Free energy of the ion-electron system (eV)
  ---------------------------------------------------
  alpha Z        PSCENC =       149.44664988
  Ewald energy   TEWEN  =     -3551.25391848
  -Hartree energ DENC   =      -992.91955970
  -exchange      EXHF   =         0.00000000
  -V(xc)+E(xc)   XCENC  =       -44.32278687
  PAW double counting   =      4013.84859731    -3829.39709692
  entropy T*S    EENTRO =         0.00152591
  eigenvalues    EBANDS =        94.95902707
  atomic energy  EATOM  =      4149.03371350
  Solvation  Ediel_sol  =         0.00000000
  ---------------------------------------------------
  free energy    TOTEN  =       -10.60384829 eV

  energy without entropy =      -10.60537420  energy(sigma->0) =      -10.60435693


--------------------------------------------------------------------------------------------------------




----------------------------------------- Iteration    1(   6)  ---------------------------------------


    POTLOK:  cpu time    0.0045: real time    0.0045
    SETDIJ:  cpu time    0.0025: real time    0.0025
     EDDAV:  cpu time    0.8210: real time    0.8211
       DOS:  cpu time    0.0007: real time    0.0007
    CHARGE:  cpu time    0.0129: real time    0.0129
    MIXING:  cpu time    0.0005: real time    0.0005
    --------------------------------------------
      LOOP:  cpu time    0.8433: real time    0.8455

 eigenvalue-minimisations  :  4488
 total energy-change (2. order) : 0.6090601E+00  (-0.1872328E+00)
 number of electron      43.9999964 magnetization 
 augmentation part       21.1867964 magnetization 

 Broyden mixing:
  rms(total) = 0.38662E+00    rms(broyden)= 0.38661E+00
  rms(prec ) = 0.41038E+00
  weight for this iteration     100.00

 eigenvalues of (default mixing * dielectric matrix)
  average eigenvalue GAMMA=   0.7284
  0.7284

 Free energy of the ion-electron system (eV)
  ---------------------------------------------------
  alpha Z        PSCENC =       149.44664988
  Ewald energy   TEWEN  =     -3551.25391848
  -Hartree energ DENC   =      -959.35383954
  -exchange      EXHF   =         0.00000000
  -V(xc)+E(xc)   XCENC  =       -45.55972773
  PAW double counting   =      4053.78274820    -3871.14255421
  entropy T*S    EENTRO =        -0.00137330
  eigenvalues    EBANDS =        65.05351348
  atomic energy  EATOM  =      4149.03371350
  Solvation  Ediel_sol  =         0.00000000
  ---------------------------------------------------
  free energy    TOTEN  =        -9.99478820 eV

  energy without entropy =       -9.99341489  energy(sigma->0) =       -9.99433043


--------------------------------------------------------------------------------------------------------




----------------------------------------- Iteration    1(   7)  ---------------------------------------


    POTLOK:  cpu time    0.0042: real time    0.0042
    SETDIJ:  cpu time    0.0022: real time    0.0022
     EDDAV:  cpu time    0.7118: real time    0.7130
       DOS:  cpu time    0.0007: real time    0.0007
    CHARGE:  cpu time    0.0127: real time    0.0127
    MIXING:  cpu time    0.0003: real time    0.0003
    --------------------------------------------
      LOOP:  cpu time    0.7330: real time    0.7357

 eigenvalue-minimisations  :  4128
 total energy-change (2. order) : 0.4593801E-02  (-0.9584748E-03)
 number of electron      43.9999964 magnetization 
 augmentation part       21.2018817 magnetization 

 Broyden mixing:
  rms(total) = 0.23783E+00    rms(broyden)= 0.23783E+00
  rms(prec ) = 0.25167E+00
  weight for this iteration     100.00

 eigenvalues of (default mixing * dielectric matrix)
  average eigenvalue GAMMA=   1.7871
  1.0211  2.5531

 Free energy of the ion-electron system (eV)
  ---------------------------------------------------
  alpha Z        PSCENC =       149.44664988
  Ewald energy   TEWEN  =     -3551.25391848
  -Hartree energ DENC   =      -956.22395869
  -exchange      EXHF   =         0.00000000
  -V(xc)+E(xc)   XCENC  =       -45.69485103
  PAW double counting   =      4097.55400376    -3916.23600597
  entropy T*S    EENTRO =        -0.00144093
  eigenvalues    EBANDS =        63.38561356
  atomic energy  EATOM  =      4149.03371350
  Solvation  Ediel_sol  =         0.00000000
  ---------------------------------------------------
  free energy    TOTEN  =        -9.99019439 eV

  energy without entropy =       -9.98875346  energy(sigma->0) =       -9.98971408


--------------------------------------------------------------------------------------------------------




----------------------------------------- Iteration    1(   8)  ---------------------------------------


    POTLOK:  cpu time    0.0033: real time    0.0033
    SETDIJ:  cpu time    0.0021: real time    0.0021
     EDDAV:  cpu time    0.7495: real time    0.7506
       DOS:  cpu time    0.0006: real time    0.0006
    CHARGE:  cpu time    0.0133: real time    0.0133
    MIXING:  cpu time    0.0003: real time    0.0003
    --------------------------------------------
      LOOP:  cpu time    0.7703: real time    0.7783

 eigenvalue-minimisations  :  4272
 total energy-change (2. order) : 0.2437879E-02  (-0.3285936E-03)
 number of electron      43.9999964 magnetization 
 augmentation part       21.2110670 magnetization 

 Broyden mixing:
  rms(total) = 0.73082E-02    rms(broyden)= 0.73069E-02
  rms(prec ) = 0.90507E-02
  weight for this iteration     100.00

 eigenvalues of (default mixing * dielectric matrix)
  average eigenvalue GAMMA=   1.7189
  2.4257  1.0161  1.7148

 Free energy of the ion-electron system (eV)
  ---------------------------------------------------
  alpha Z        PSCENC =       149.44664988
  Ewald energy   TEWEN  =     -3551.25391848
  -Hartree energ DENC   =      -952.15333444
  -exchange      EXHF   =         0.00000000
  -V(xc)+E(xc)   XCENC  =       -45.87513068
  PAW double counting   =      4165.55702536    -3986.23865053
  entropy T*S    EENTRO =        -0.00147557
  eigenvalues    EBANDS =        61.49736444
  atomic energy  EATOM  =      4149.03371350
  Solvation  Ediel_sol  =         0.00000000
  ---------------------------------------------------
  free energy    TOTEN  =        -9.98775651 eV

  energy without entropy =       -9.98628094  energy(sigma->0) =       -9.98726466


--------------------------------------------------------------------------------------------------------




----------------------------------------- Iteration    1(   9)  ---------------------------------------


    POTLOK:  cpu time    0.0042: real time    0.0042
    SETDIJ:  cpu time    0.0023: real time    0.0023
     EDDAV:  cpu time    0.6480: real time    0.6491
       DOS:  cpu time    0.0007: real time    0.0007
    --------------------------------------------
      LOOP:  cpu time    0.6562: real time    0.6589

 eigenvalue-minimisations  :  3480
 total energy-change (2. order) :-0.8027826E-04  (-0.4233386E-05)
 number of electron      43.9999964 magnetization 
 augmentation part       21.2110670 magnetization 

 Free energy of the ion-electron system (eV)
  ---------------------------------------------------
  alpha Z        PSCENC =       149.44664988
  Ewald energy   TEWEN  =     -3551.25391848
  -Hartree energ DENC   =      -952.25609758
  -exchange      EXHF   =         0.00000000
  -V(xc)+E(xc)   XCENC  =       -45.87250387
  PAW double counting   =      4164.74289495    -3985.30798793
  entropy T*S    EENTRO =        -0.00146798
  eigenvalues    EBANDS =        61.48088071
  atomic energy  EATOM  =      4149.03371350
  Solvation  Ediel_sol  =         0.00000000
  ---------------------------------------------------
  free energy    TOTEN  =        -9.98783679 eV

  energy without entropy =       -9.98636882  energy(sigma->0) =       -9.98734747


--------------------------------------------------------------------------------------------------------




 average (electrostatic) potential at core
  the test charge radii are     1.1249
  (the norm of the test charge is              1.0000)
       1 -73.5842       2 -73.5842       3 -73.5842       4 -73.5842
 
 
 
 E-fermi :   5.0460     XC(G=0): -10.5699     alpha+bet :-10.0823


 k-point     1 :       0.0000    0.0000    0.0000
  band No.  band energies     occupation 
      1      -0.8792      2.00000
      2       0.0940      2.00000
      3       0.0940      2.00000
      4       0.0940      2.00000
      5       0.1465      2.00000
      6       0.1465      2.00000
      7       0.1465      2.00000
      8       1.0375      2.00000
      9       1.0375      2.00000
     10       1.0375      2.00000
     11       1.6491      2.00000
     12       1.6491      2.00000
     13       2.1038      2.00000
     14       2.1038      2.00000
     15       2.1038      2.00000
     16       2.2484      2.00000
     17       2.2484      2.00000
     18       2.2484      2.00000
     19       2.2484      2.00000
     20       2.2484      2.00000
     21       2.2484      2.00000
     22       6.8702     -0.00000
     23       6.8702     -0.00000
     24       6.8702     -0.00000
     25       9.7970      0.00000
     26       9.7970      0.00000
     27       9.7970      0.00000
     28      14.2570      0.00000
     29      14.2570      0.00000
     30      14.2570      0.00000
     31      14.2570      0.00000
     32      14.2570      0.00000
     33      14.2570      0.00000
     34      18.8931      0.00000
     35      18.8931      0.00000
     36      18.8931      0.00000
     37      19.1513      0.00000
     38      19.1513      0.00000
     39      19.1513      0.00000
     40      20.1623      0.00000
     41      22.0387      0.00000
     42      22.0387      0.00000
     43      22.0387      0.00000
     44      26.1452      0.00000
     45      26.1452      0.00000
     46      26.1452      0.00000
     47      26.3280      0.00000
     48      29.0501      0.00000

 k-point     2 :       0.1111    0.0000    0.0000
  band No.  band energies     occupation 
      1      -0.7765      2.00000
      2       0.1281      2.00000
      3       0.1378      2.00000
      4       0.1378      2.00000
      5       0.1713      2.00000
      6       0.1860      2.00000
      7       0.1860      2.00000
      8       1.0085      2.00000
      9       1.0667      2.00000
     10       1.0667      2.00000
     11       1.6209      2.00000
     12       1.6623      2.00000
     13       2.0660      2.00000
     14       2.0660      2.00000
     15       2.0892      2.00000
     16       2.1304      2.00000
     17       2.1304      2.00000
     18       2.2016      2.00000
     19       2.2016      2.00000
     20       2.2483      2.00000
     21       2.2483      2.00000
     22       6.0436     -0.00000
     23       7.0819     -0.00000
     24       7.0819     -0.00000
     25       9.8224      0.00000
     26       9.8224      0.00000
     27      10.8019      0.00000
     28      13.8382      0.00000
     29      13.8382      0.00000
     30      13.8495      0.00000
     31      13.8495      0.00000
     32      14.4215      0.00000
     33      14.4215      0.00000
     34      18.9020      0.00000
     35      19.1652      0.00000
     36      19.5451      0.00000
     37      19.5451      0.00000
     38      19.6357      0.00000
     39      19.6357      0.00000
     40      20.0967      0.00000
     41      21.5498      0.00000
     42      21.5498      0.00000
     43      21.6466      0.00000
     44      26.3843      0.00000
     45      26.3843      0.00000
     46      26.4093      0.00000
     47      26.6078      0.00000
     48      28.1548      0.00000

 k-point     3 :       0.2222    0.0000    0.0000
  band No.  band energies     occupation 
      1      -0.4780      2.00000
      2       0.2233      2.00000
      3       0.2438      2.00000
      4       0.2589      2.00000
      5       0.2589      2.00000
      6       0.3038      2.00000
      7       0.3038      2.00000
      8       0.9259      2.00000
      9       1.1525      2.00000
     10       1.1525      2.00000
     11       1.5493      2.00000
     12       1.7005      2.00000
     13       1.8344      2.00000
     14       1.8344      2.00000
     15       1.9610      2.00000
     16       1.9610      2.00000
     17       2.0484      2.00000
     18       2.0723      2.00000
     19       2.0723      2.00000
     20       2.2484      2.00000
     21       2.2484      2.00000
     22       4.6772      2.00000
     23       7.6576     -0.00000
     24       7.6576     -0.00000
     25       9.8991      0.00000
     26       9.8991      0.00000
     27      12.7049      0.00000
     28      12.8810      0.00000
     29      12.8810      0.00000
     30      13.0500      0.00000
     31      13.0500      0.00000
     32      14.9019      0.00000
     33      14.9019      0.00000
     34      18.9420      0.00000
     35      19.2082      0.00000
     36      19.9329      0.00000
     37      20.4361      0.00000
     38      20.4361      0.00000
     39      20.7952      0.00000
     40      20.7952      0.00000
     41      20.8807      0.00000
     42      21.0707      0.00000
     43      21.0707      0.00000
     44      24.9527      0.00000
     45      26.9392      0.00000
     46      26.9392      0.00000
     47      27.1624      0.00000
     48      28.9296      0.00000

 k-point     4 :       0.3333    0.0000    0.0000
  band No.  band energies     occupation 
      1      -0.0317      2.00000
      2       0.3546      2.00000
      3       0.3566      2.00000
      4       0.4209      2.00000
      5       0.4209      2.00000
      6       0.4982      2.00000
      7       0.4982      2.00000
      8       0.8016      2.00000
      9       1.2902      2.00000
     10       1.2902      2.00000
     11       1.4636      2.00000
     12       1.4636      2.00000
     13       1.4911      2.00000
     14       1.7595      2.00000
     15       1.8168      2.00000
     16       1.8168      2.00000
     17       1.8863      2.00000
     18       1.8863      2.00000
     19       1.9865      2.00000
     20       2.2486      2.00000
     21       2.2486      2.00000
     22       3.3864      2.00000
     23       8.4873      0.00000
     24       8.4873      0.00000
     25      10.0192      0.00000
     26      10.0192      0.00000
     27      11.7442      0.00000
     28      11.7442      0.00000
     29      12.3167      0.00000
     30      12.3167      0.00000
     31      14.8979      0.00000
     32      15.6639      0.00000
     33      15.6639      0.00000
     34      19.0489      0.00000
     35      19.1306      0.00000
     36      19.1306      0.00000
     37      19.2839      0.00000
     38      19.7345      0.00000
     39      20.1508      0.00000
     40      22.2874      0.00000
     41      22.2874      0.00000
     42      22.4056      0.00000
     43      22.9797      0.00000
     44      22.9797      0.00000
     45      27.7098      0.00000
     46      27.7098      0.00000
     47      27.7488      0.00000
     48      27.7488      0.00000

 k-point     5 :       0.4444    0.0000    0.0000
  band No.  band energies     occupation 
      1       0.3753      2.00000
      2       0.4612      2.00000
      3       0.4983      2.00000
      4       0.5501      2.00000
      5       0.5501      2.00000
      6       0.6527      2.00000
      7       0.7648      2.00000
      8       0.7648      2.00000
      9       1.0934      2.00000
     10       1.0934      2.00000
     11       1.4696      2.00000
     12       1.4696      2.00000
     13       1.6480      2.00000
     14       1.6757      2.00000
     15       1.6757      2.00000
     16       1.6990      2.00000
     17       1.6990      2.00000
     18       1.8326      2.00000
     19       1.9115      2.00000
     20       2.2486      2.00000
     21       2.2486      2.00000
     22       2.3188      2.00000
     23       9.4839      0.00000
     24       9.4839      0.00000
     25      10.1333      0.00000
     26      10.1333      0.00000
     27      10.5872      0.00000
     28      10.5872      0.00000
     29      11.8686      0.00000
     30      11.8686      0.00000
     31      16.6608      0.00000
     32      16.6608      0.00000
     33      17.2616      0.00000
     34      17.8384      0.00000
     35      17.8384      0.00000
     36      19.2748      0.00000
     37      19.3966      0.00000
     38      19.4737      0.00000
     39      19.5486      0.00000
     40      19.9399      0.00000
     41      23.9762      0.00000
     42      23.9762      0.00000
     43      24.8538      0.00000
     44      24.8538      0.00000
     45      25.8110      0.00000
     46      25.8110      0.00000
     47      28.6871      0.00000
     48      28.6933      0.00000

 k-point     6 :       0.1111    0.1111    0.0000
  band No.  band energies     occupation 
      1      -0.6763      2.00000
      2       0.1615      2.00000
      3       0.1725      2.00000
      4       0.1725      2.00000
      5       0.2100      2.00000
      6       0.2100      2.00000
      7       0.2426      2.00000
      8       1.0001      2.00000
      9       1.0765      2.00000
     10       1.0927      2.00000
     11       1.6140      2.00000
     12       1.6590      2.00000
     13       2.0145      2.00000
     14       2.0145      2.00000
     15       2.0309      2.00000
     16       2.0549      2.00000
     17       2.1214      2.00000
     18       2.1214      2.00000
     19       2.2014      2.00000
     20       2.2014      2.00000
     21       2.2151      2.00000
     22       6.2327     -0.00000
     23       6.2327     -0.00000
     24       7.2850     -0.00000
     25       9.8442      0.00000
     26      10.8439      0.00000
     27      10.8439      0.00000
     28      12.7016      0.00000
     29      13.9934      0.00000
     30      13.9934      0.00000
     31      14.0033      0.00000
     32      14.0033      0.00000
     33      14.5727      0.00000
     34      19.0456      0.00000
     35      19.5666      0.00000
     36      19.5666      0.00000
     37      19.6604      0.00000
     38      19.6604      0.00000
     39      19.8036      0.00000
     40      20.4240      0.00000
     41      20.8627      0.00000
     42      21.4798      0.00000
     43      22.3786      0.00000
     44      25.3661      0.00000
     45      26.1669      0.00000
     46      26.9148      0.00000
     47      27.7365      0.00000
     48      28.0918      0.00000

 k-point     7 :       0.2222    0.1111    0.0000
  band No.  band energies     occupation 
      1      -0.3862      2.00000
      2       0.2505      2.00000
      3       0.2691      2.00000
      4       0.2798      2.00000
      5       0.2948      2.00000
      6       0.3250      2.00000
      7       0.3835      2.00000
      8       0.9306      2.00000
      9       1.1532      2.00000
     10       1.1664      2.00000
     11       1.5571      2.00000
     12       1.7010      2.00000
     13       1.7495      2.00000
     14       1.7942      2.00000
     15       1.8839      2.00000
     16       1.9325      2.00000
     17       1.9905      2.00000
     18       2.0714      2.00000
     19       2.0807      2.00000
     20       2.1991      2.00000
     21       2.2009      2.00000
     22       4.8624      2.02618
     23       6.7344     -0.00000
     24       7.8424      0.00000
     25       9.8917      0.00000
     26      10.9590      0.00000
     27      11.5625      0.00000
     28      12.7220      0.00000
     29      13.0254      0.00000
     30      13.2126      0.00000
     31      14.4182      0.00000
     32      14.4442      0.00000
     33      14.4617      0.00000
     34      19.0836      0.00000
     35      19.2049      0.00000
     36      19.6474      0.00000
     37      19.6748      0.00000
     38      19.7373      0.00000
     39      20.8354      0.00000
     40      21.0969      0.00000
     41      21.1862      0.00000
     42      22.1335      0.00000
     43      22.4878      0.00000
     44      24.5759      0.00000
     45      26.4664      0.00000
     46      26.4925      0.00000
     47      27.6085      0.00000
     48      29.3796      0.00000

 k-point     8 :       0.3333    0.1111    0.0000
  band No.  band energies     occupation 
      1       0.0441      2.00000
      2       0.3883      2.00000
      3       0.4019      2.00000
      4       0.4038      2.00000
      5       0.4586      2.00000
      6       0.5143      2.00000
      7       0.5743      2.00000
      8       0.8137      2.00000
      9       1.2486      2.00000
     10       1.2887      2.00000
     11       1.3996      2.00000
     12       1.4454      2.00000
     13       1.5449      2.00000
     14       1.6991      2.00000
     15       1.7806      2.00000
     16       1.7970      2.00000
     17       1.8373      2.00000
     18       1.8847      2.00000
     19       2.0091      2.00000
     20       2.1967      2.00000
     21       2.1998      2.00000
     22       3.5850      2.00000
     23       7.4318     -0.00000
     24       8.6542      0.00000
     25       9.7786      0.00000
     26      10.7507      0.00000
     27      11.0690      0.00000
     28      11.8855      0.00000
     29      12.5954      0.00000
     30      13.7315      0.00000
     31      14.6874      0.00000
     32      15.1504      0.00000
     33      15.3511      0.00000
     34      18.0282      0.00000
     35      18.1293      0.00000
     36      19.8325      0.00000
     37      19.8741      0.00000
     38      20.7647      0.00000
     39      21.1084      0.00000
     40      21.2436      0.00000
     41      22.3386      0.00000
     42      22.5316      0.00000
     43      22.9444      0.00000
     44      24.3280      0.00000
     45      26.8383      0.00000
     46      27.3172      0.00000
     47      27.4395      0.00000
     48      27.8197      0.00000

 k-point     9 :       0.4444    0.1111    0.0000
  band No.  band energies     occupation 
      1       0.4359      2.00000
      2       0.5161      2.00000
      3       0.5239      2.00000
      4       0.5616      2.00000
      5       0.5862      2.00000
      6       0.6717      2.00000
      7       0.7733      2.00000
      8       0.7886      2.00000
      9       1.0615      2.00000
     10       1.0909      2.00000
     11       1.3057      2.00000
     12       1.4675      2.00000
     13       1.4836      2.00000
     14       1.6737      2.00000
     15       1.6902      2.00000
     16       1.7061      2.00000
     17       1.7459      2.00000
     18       1.9116      2.00000
     19       1.9406      2.00000
     20       2.1973      2.00000
     21       2.1985      2.00000
     22       2.5491      2.00000
     23       8.2393      0.00000
     24       9.0930      0.00000
     25       9.6373      0.00000
     26      10.7061      0.00000
     27      10.7319      0.00000
     28      10.9587      0.00000
     29      12.5361      0.00000
     30      13.0132      0.00000
     31      15.8675      0.00000
     32      16.0534      0.00000
     33      16.9131      0.00000
     34      17.0786      0.00000
     35      17.3725      0.00000
     36      19.6891      0.00000
     37      20.0835      0.00000
     38      20.1891      0.00000
     39      20.3795      0.00000
     40      20.8460      0.00000
     41      22.8175      0.00000
     42      24.0354      0.00000
     43      24.1106      0.00000
     44      25.8771      0.00000
     45      26.1682      0.00000
     46      26.3072      0.00000
     47      27.7586      0.00000
     48      28.4406      0.00000

 k-point    10 :       0.2222    0.2222    0.0000
  band No.  band energies     occupation 
      1      -0.1246      2.00000
      2       0.2994      2.00000
      3       0.3863      2.00000
      4       0.3863      2.00000
      5       0.3959      2.00000
      6       0.3959      2.00000
      7       0.5395      2.00000
      8       0.9126      2.00000
      9       1.1885      2.00000
     10       1.2061      2.00000
     11       1.5302      2.00000
     12       1.5855      2.00000
     13       1.5855      2.00000
     14       1.6423      2.00000
     15       1.7672      2.00000
     16       1.8509      2.00000
     17       1.9948      2.00000
     18       1.9948      2.00000
     19       2.0689      2.00000
     20       2.0689      2.00000
     21       2.1182      2.00000
     22       5.3410     -0.00025
     23       5.3410     -0.00025
     24       8.3590      0.00000
     25       9.6243      0.00000
     26      10.6171      0.00000
     27      12.6296      0.00000
     28      12.6296      0.00000
     29      13.4435      0.00000
     30      13.4435      0.00000
     31      13.8245      0.00000
     32      13.8245      0.00000
     33      15.4762      0.00000
     34      17.8776      0.00000
     35      18.0066      0.00000
     36      19.1176      0.00000
     37      20.9576      0.00000
     38      20.9576      0.00000
     39      21.1925      0.00000
     40      21.1925      0.00000
     41      21.8463      0.00000
     42      23.3482      0.00000
     43      23.5983      0.00000
     44      24.2183      0.00000
     45      25.4291      0.00000
     46      26.2515      0.00000
     47      28.2481      0.00000
     48      28.6858      0.00000

 k-point    11 :       0.3333    0.2222    0.0000
  band No.  band energies     occupation 
      1       0.2497      2.00000
      2       0.4164      2.00000
      3       0.4811      2.00000
      4       0.5404      2.00000
      5       0.5607      2.00000
      6       0.5663      2.00000
      7       0.7243      2.00000
      8       0.8368      2.00000
      9       1.2203      2.00000
     10       1.2588      2.00000
     11       1.2985      2.00000
     12       1.3793      2.00000
     13       1.3929      2.00000
     14       1.5273      2.00000
     15       1.7370      2.00000
     16       1.8505      2.00000
     17       1.8809      2.00000
     18       1.9423      2.00000
     19       1.9479      2.00000
     20       2.0658      2.00000
     21       2.0772      2.00000
     22       4.0674      2.00000
     23       6.0007     -0.00000
     24       8.6894      0.00000
     25       9.1286      0.00000
     26      10.5943      0.00000
     27      12.0964      0.00000
     28      12.2945      0.00000
     29      13.7643      0.00000
     30      13.8137      0.00000
     31      14.0959      0.00000
     32      15.4215      0.00000
     33      15.4733      0.00000
     34      16.6716      0.00000
     35      16.9309      0.00000
     36      19.8946      0.00000
     37      21.1640      0.00000
     38      21.4033      0.00000
     39      21.9987      0.00000
     40      22.0058      0.00000
     41      22.4909      0.00000
     42      22.8500      0.00000
     43      23.3052      0.00000
     44      25.1919      0.00000
     45      26.0914      0.00000
     46      26.6988      0.00000
     47      26.8704      0.00000
     48      27.8418      0.00000

 k-point    12 :       0.4444    0.2222    0.0000
  band No.  band energies     occupation 
      1       0.5845      2.00000
      2       0.5907      2.00000
      3       0.5985      2.00000
      4       0.6684      2.00000
      5       0.6844      2.00000
      6       0.7234      2.00000
      7       0.7961      2.00000
      8       0.8727      2.00000
      9       0.9936      2.00000
     10       1.0785      2.00000
     11       1.1535      2.00000
     12       1.2077      2.00000
     13       1.4672      2.00000
     14       1.6557      2.00000
     15       1.6698      2.00000
     16       1.6700      2.00000
     17       1.7042      2.00000
     18       1.8322      2.00000
     19       2.0633      2.00000
     20       2.0647      2.00000
     21       2.3194      2.00000
     22       3.0296      2.00000
     23       6.7866     -0.00000
     24       7.6864     -0.00000
     25      10.0777      0.00000
     26      10.9256      0.00000
     27      11.1499      0.00000
     28      11.4446      0.00000
     29      14.2468      0.00000
     30      14.6368      0.00000
     31      14.8682      0.00000
     32      14.9302      0.00000
     33      15.5932      0.00000
     34      15.8918      0.00000
     35      17.5941      0.00000
     36      19.8799      0.00000
     37      21.4486      0.00000
     38      21.4944      0.00000
     39      21.7722      0.00000
     40      21.7896      0.00000
     41      22.4128      0.00000
     42      23.0441      0.00000
     43      24.2094      0.00000
     44      26.0595      0.00000
     45      26.0716      0.00000
     46      26.7910      0.00000
     47      26.9577      0.00000
     48      27.7760      0.00000

 k-point    13 :       0.3333    0.3333    0.0000
  band No.  band energies     occupation 
      1       0.4876      2.00000
      2       0.5121      2.00000
      3       0.6303      2.00000
      4       0.6303      2.00000
      5       0.7272      2.00000
      6       0.7272      2.00000
      7       0.8352      2.00000
      8       0.8982      2.00000
      9       1.0987      2.00000
     10       1.0987      2.00000
     11       1.2375      2.00000
     12       1.2422      2.00000
     13       1.3578      2.00000
     14       1.4489      2.00000
     15       1.6456      2.00000
     16       1.8079      2.00000
     17       1.8079      2.00000
     18       1.8777      2.00000
     19       1.8777      2.00000
     20       1.9658      2.00000
     21       2.2879      2.00000
     22       4.7126      2.00003
     23       4.7126      2.00003
     24       7.4802     -0.00000
     25       9.8505      0.00000
     26      10.8486      0.00000
     27      12.7690      0.00000
     28      12.7690      0.00000
     29      12.9337      0.00000
     30      12.9337      0.00000
     31      15.4554      0.00000
     32      15.7736      0.00000
     33      15.7736      0.00000
     34      15.7862      0.00000
     35      16.8663      0.00000
     36      19.3197      0.00000
     37      21.8955      0.00000
     38      22.7271      0.00000
     39      22.7271      0.00000
     40      22.7358      0.00000
     41      22.7358      0.00000
     42      22.9318      0.00000
     43      22.9556      0.00000
     44      25.0074      0.00000
     45      26.3754      0.00000
     46      26.3754      0.00000
     47      26.4507      0.00000
     48      27.9515      0.00000

 k-point    14 :       0.4444    0.3333    0.0000
  band No.  band energies     occupation 
      1       0.6174      2.00000
      2       0.7119      2.00000
      3       0.7359      2.00000
      4       0.7881      2.00000
      5       0.7891      2.00000
      6       0.8249      2.00000
      7       0.8710      2.00000
      8       0.9705      2.00000
      9       0.9857      2.00000
     10       1.0147      2.00000
     11       1.0422      2.00000
     12       1.1366      2.00000
     13       1.4888      2.00000
     14       1.5330      2.00000
     15       1.5816      2.00000
     16       1.6546      2.00000
     17       1.6732      2.00000
     18       1.6953      2.00000
     19       1.8814      2.00000
     20       1.9040      2.00000
     21       2.8319      2.00000
     22       3.6417      2.00000
     23       5.4898     -0.00000
     24       6.4079     -0.00000
     25      10.7586      0.00000
     26      11.2961      0.00000
     27      11.8016      0.00000
     28      11.9349      0.00000
     29      13.5115      0.00000
     30      13.7566      0.00000
     31      14.4025      0.00000
     32      14.7193      0.00000
     33      16.2900      0.00000
     34      16.8681      0.00000
     35      17.9573      0.00000
     36      20.1842      0.00000
     37      20.3777      0.00000
     38      22.0727      0.00000
     39      22.5516      0.00000
     40      22.6127      0.00000
     41      23.0347      0.00000
     42      23.2402      0.00000
     43      24.4773      0.00000
     44      25.6814      0.00000
     45      26.0205      0.00000
     46      26.3619      0.00000
     47      27.0866      0.00000
     48      27.1615      0.00000

 k-point    15 :       0.4444    0.4444    0.0000
  band No.  band energies     occupation 
      1       0.6809      2.00000
      2       0.7760      2.00000
      3       0.7923      2.00000
      4       0.7923      2.00000
      5       0.8351      2.00000
      6       0.8445      2.00000
      7       0.8445      2.00000
      8       0.9640      2.00000
      9       1.1003      2.00000
     10       1.1003      2.00000
     11       1.1524      2.00000
     12       1.2254      2.00000
     13       1.4241      2.00000
     14       1.4898      2.00000
     15       1.5394      2.00000
     16       1.5394      2.00000
     17       1.5615      2.00000
     18       1.6997      2.00000
     19       1.6997      2.00000
     20       1.7729      2.00000
     21       3.5100      2.00000
     22       4.3924      2.00000
     23       4.3924      2.00000
     24       5.3085     -0.00130
     25      11.6280      0.00000
     26      11.8402      0.00000
     27      12.5754      0.00000
     28      12.5754      0.00000
     29      12.6405      0.00000
     30      12.6405      0.00000
     31      13.3949      0.00000
     32      13.6247      0.00000
     33      18.4612      0.00000
     34      18.4612      0.00000
     35      18.6346      0.00000
     36      19.7749      0.00000
     37      20.6073      0.00000
     38      20.6887      0.00000
     39      21.2665      0.00000
     40      21.2665      0.00000
     41      24.4580      0.00000
     42      24.7330      0.00000
     43      24.7330      0.00000
     44      26.2726      0.00000
     45      26.8338      0.00000
     46      26.9922      0.00000
     47      27.4225      0.00000
     48      27.4461      0.00000

 k-point    16 :       0.1111    0.1111    0.1111
  band No.  band energies     occupation 
      1      -0.5797      2.00000
      2       0.1914      2.00000
      3       0.1914      2.00000
      4       0.1914      2.00000
      5       0.2704      2.00000
      6       0.2704      2.00000
      7       0.2704      2.00000
      8       1.0017      2.00000
      9       1.0975      2.00000
     10       1.0975      2.00000
     11       1.6337      2.00000
     12       1.6337      2.00000
     13       1.9893      2.00000
     14       1.9893      2.00000
     15       1.9893      2.00000
     16       2.0045      2.00000
     17       2.0045      2.00000
     18       2.0045      2.00000
     19       2.2015      2.00000
     20       2.2015      2.00000
     21       2.2015      2.00000
     22       6.4115     -0.00000
     23       6.4115     -0.00000
     24       6.4115     -0.00000
     25      10.8705      0.00000
     26      10.8705      0.00000
     27      10.8705      0.00000
     28      12.8665      0.00000
     29      12.8665      0.00000
     30      12.8665      0.00000
     31      14.7303      0.00000
     32      14.7303      0.00000
     33      14.7303      0.00000
     34      18.9405      0.00000
     35      19.0557      0.00000
     36      19.0557      0.00000
     37      19.0557      0.00000
     38      20.6553      0.00000
     39      20.9011      0.00000
     40      20.9011      0.00000
     41      20.9011      0.00000
     42      21.8509      0.00000
     43      21.8509      0.00000
     44      25.3957      0.00000
     45      26.2870      0.00000
     46      26.2870      0.00000
     47      28.3148      0.00000
     48      28.3148      0.00000

 k-point    17 :       0.2222    0.1111    0.1111
  band No.  band energies     occupation 
      1      -0.3024      2.00000
      2       0.2703      2.00000
      3       0.2764      2.00000
      4       0.2764      2.00000
      5       0.3558      2.00000
      6       0.4127      2.00000
      7       0.4127      2.00000
      8       0.9520      2.00000
      9       1.1599      2.00000
     10       1.1627      2.00000
     11       1.5792      2.00000
     12       1.6898      2.00000
     13       1.7253      2.00000
     14       1.7253      2.00000
     15       1.8628      2.00000
     16       1.8788      2.00000
     17       1.9183      2.00000
     18       1.9183      2.00000
     19       2.1570      2.00000
     20       2.1843      2.00000
     21       2.1843      2.00000
     22       5.0324      1.22670
     23       6.8922     -0.00000
     24       6.8922     -0.00000
     25      10.8352      0.00000
     26      10.8352      0.00000
     27      11.8725      0.00000
     28      11.8725      0.00000
     29      12.5865      0.00000
     30      13.4695      0.00000
     31      14.5581      0.00000
     32      14.5581      0.00000
     33      15.1926      0.00000
     34      17.7670      0.00000
     35      19.0947      0.00000
     36      19.6941      0.00000
     37      19.6941      0.00000
     38      20.3653      0.00000
     39      20.6864      0.00000
     40      21.0247      0.00000
     41      22.4824      0.00000
     42      22.5309      0.00000
     43      22.5309      0.00000
     44      24.3108      0.00000
     45      26.6357      0.00000
     46      26.6484      0.00000
     47      26.9982      0.00000
     48      29.4341      0.00000

 k-point    18 :       0.3333    0.1111    0.1111
  band No.  band energies     occupation 
      1       0.0988      2.00000
      2       0.3748      2.00000
      3       0.4263      2.00000
      4       0.4263      2.00000
      5       0.4916      2.00000
      6       0.5980      2.00000
      7       0.5980      2.00000
      8       0.8539      2.00000
      9       1.2319      2.00000
     10       1.2618      2.00000
     11       1.3921      2.00000
     12       1.3921      2.00000
     13       1.6195      2.00000
     14       1.6552      2.00000
     15       1.7263      2.00000
     16       1.7748      2.00000
     17       1.7947      2.00000
     18       1.7947      2.00000
     19       2.0817      2.00000
     20       2.1703      2.00000
     21       2.1703      2.00000
     22       3.7533      2.00000
     23       7.5712     -0.00000
     24       7.5712     -0.00000
     25      10.1997      0.00000
     26      10.1997      0.00000
     27      11.6889      0.00000
[...]
  band No.  band energies     occupation 
      1       0.3048      2.00000
      2       0.3724      2.00000
      3       0.4610      2.00000
      4       0.4617      2.00000
      5       0.8613      2.00000
      6       0.8616      2.00000
      7       0.9901      2.00000
      8       1.0712      2.00000
      9       1.1887      2.00000
     10       1.2579      2.00000
     11       1.3255      2.00000
     12       1.3546      2.00000
     13       1.4326      2.00000
     14       1.4614      2.00000
     15       1.4678      2.00000
     16       1.5433      2.00000
     17       1.9212      2.00000
     18       2.0530      2.00000
     19       2.0592      2.00000
     20       2.0669      2.00000
     21       2.9534      2.00000
     22       3.9243      2.00000
     23       5.8282     -0.00000
     24       6.6828     -0.00000
     25       7.9031      0.00000
     26       8.7413      0.00000
     27      10.5724      0.00000
     28      11.5176      0.00000
     29      14.8547      0.00000
     30      15.5647      0.00000
     31      16.5941      0.00000
     32      17.1486      0.00000
     33      17.1863      0.00000
     34      18.0265      0.00000
     35      18.1543      0.00000
     36      20.0111      0.00000
     37      20.2343      0.00000
     38      20.2398      0.00000
     39      20.8298      0.00000
     40      20.9344      0.00000
     41      24.7236      0.00000
     42      24.7246      0.00000
     43      24.9380      0.00000
     44      25.2573      0.00000
     45      25.4555      0.00000
     46      26.4064      0.00000
     47      27.3390      0.00000
     48      27.5684      0.00000

 k-point    31 :       0.4444    0.4444    0.2222
  band No.  band energies     occupation 
      1       0.3142      2.00000
      2       0.3702      2.00000
      3       0.3702      2.00000
      4       0.3991      2.00000
      5       0.9213      2.00000
      6       0.9564      2.00000
      7       0.9564      2.00000
      8       1.0312      2.00000
      9       1.1733      2.00000
     10       1.2304      2.00000
     11       1.2304      2.00000
     12       1.2562      2.00000
     13       1.6046      2.00000
     14       1.6046      2.00000
     15       1.6075      2.00000
     16       1.7186      2.00000
     17       1.8609      2.00000
     18       1.9836      2.00000
     19       1.9836      2.00000
     20       1.9917      2.00000
     21       3.6864      2.00000
     22       4.6523      2.00000
     23       4.6523      2.00000
     24       5.5823     -0.00000
     25       8.5953      0.00000
     26       9.4947      0.00000
     27       9.4947      0.00000
     28      10.4224      0.00000
     29      15.4841      0.00000
     30      16.2664      0.00000
     31      16.2664      0.00000
     32      17.0849      0.00000
     33      18.6174      0.00000
     34      18.6174      0.00000
     35      18.8903      0.00000
     36      19.6180      0.00000
     37      20.1546      0.00000
     38      20.6049      0.00000
     39      20.6199      0.00000
     40      20.6199      0.00000
     41      24.6191      0.00000
     42      24.6191      0.00000
     43      24.6915      0.00000
     44      24.7491      0.00000
     45      25.7729      0.00000
     46      25.9427      0.00000
     47      26.2753      0.00000
     48      26.2753      0.00000

 k-point    32 :       0.3333    0.3333    0.3333
  band No.  band energies     occupation 
      1       0.1892      2.00000
      2       0.3537      2.00000
      3       0.3537      2.00000
      4       0.3537      2.00000
      5       0.9171      2.00000
      6       0.9171      2.00000
      7       0.9171      2.00000
      8       1.1103      2.00000
      9       1.1103      2.00000
     10       1.2824      2.00000
     11       1.2824      2.00000
     12       1.2824      2.00000
     13       1.5219      2.00000
     14       1.5219      2.00000
     15       1.5219      2.00000
     16       1.9083      2.00000
     17       1.9083      2.00000
     18       2.1413      2.00000
     19       2.1413      2.00000
     20       2.1413      2.00000
     21       2.5169      2.00000
     22       5.5678     -0.00000
     23       5.5678     -0.00000
     24       5.5678     -0.00000
     25       8.5531      0.00000
     26       8.5531      0.00000
     27       8.5531      0.00000
     28      11.3502      0.00000
     29      16.3559      0.00000
     30      16.3559      0.00000
     31      16.3559      0.00000
     32      17.8387      0.00000
     33      17.8387      0.00000
     34      17.8387      0.00000
     35      19.3139      0.00000
     36      19.3139      0.00000
     37      19.3139      0.00000
     38      19.9161      0.00000
     39      20.5996      0.00000
     40      20.5996      0.00000
     41      24.5727      0.00000
     42      24.5727      0.00000
     43      25.3482      0.00000
     44      26.4280      0.00000
     45      26.4280      0.00000
     46      26.4339      0.00000
     47      26.4737      0.00000
     48      26.4737      0.00000

 k-point    33 :       0.4444    0.3333    0.3333
  band No.  band energies     occupation 
      1       0.1976      2.00000
      2       0.2602      2.00000
      3       0.3189      2.00000
      4       0.3189      2.00000
      5       0.9189      2.00000
      6       0.9189      2.00000
      7       0.9934      2.00000
      8       1.0628      2.00000
      9       1.1157      2.00000
     10       1.1753      2.00000
     11       1.2199      2.00000
     12       1.2199      2.00000
     13       1.6716      2.00000
     14       1.6720      2.00000
     15       1.6720      2.00000
     16       1.8208      2.00000
     17       2.0384      2.00000
     18       2.1096      2.00000
     19       2.1096      2.00000
     20       2.1198      2.00000
     21       3.3147      2.00000
     22       4.3473      2.00000
     23       6.0982     -0.00000
     24       6.0982     -0.00000
     25       7.6302     -0.00000
     26       7.6302     -0.00000
     27       9.3097      0.00000
     28      10.2451      0.00000
     29      16.8739      0.00000
     30      16.8739      0.00000
     31      17.5870      0.00000
     32      17.5870      0.00000
     33      18.4209      0.00000
     34      18.5832      0.00000
     35      19.4561      0.00000
     36      19.5156      0.00000
     37      19.5486      0.00000
     38      20.1223      0.00000
     39      20.1223      0.00000
     40      20.3697      0.00000
     41      24.4375      0.00000
     42      24.9397      0.00000
     43      24.9397      0.00000
     44      25.0681      0.00000
     45      25.5181      0.00000
     46      25.7154      0.00000
     47      26.0491      0.00000
     48      26.7471      0.00000

 k-point    34 :       0.4444    0.4444    0.3333
  band No.  band energies     occupation 
      1       0.1697      2.00000
      2       0.2140      2.00000
      3       0.2140      2.00000
      4       0.2345      2.00000
      5       0.9681      2.00000
      6       0.9903      2.00000
      7       0.9903      2.00000
      8       1.0471      2.00000
      9       1.0806      2.00000
     10       1.1230      2.00000
     11       1.1230      2.00000
     12       1.1357      2.00000
     13       1.8537      2.00000
     14       1.8596      2.00000
     15       1.8596      2.00000
     16       1.9958      2.00000
     17       2.0042      2.00000
     18       2.0891      2.00000
     19       2.0939      2.00000
     20       2.0939      2.00000
     21       4.0217      2.00000
     22       4.9881      1.82000
     23       4.9881      1.82000
     24       5.7538     -0.00000
     25       7.5282     -0.00000
     26       8.2638      0.00000
     27       8.2638      0.00000
     28       9.1556      0.00000
     29      17.4325      0.00000
     30      18.1173      0.00000
     31      18.1173      0.00000
     32      18.7979      0.00000
     33      18.8238      0.00000
     34      18.8238      0.00000
     35      19.2010      0.00000
     36      19.5178      0.00000
     37      19.8508      0.00000
     38      20.0786      0.00000
     39      20.0786      0.00000
     40      20.4023      0.00000
     41      24.2236      0.00000
     42      24.5642      0.00000
     43      24.5642      0.00000
     44      24.6694      0.00000
     45      25.1166      0.00000
     46      25.2974      0.00000
     47      25.5048      0.00000
     48      25.5048      0.00000

 k-point    35 :       0.4444    0.4444    0.4444
  band No.  band energies     occupation 
      1       0.1096      2.00000
      2       0.1334      2.00000
      3       0.1334      2.00000
      4       0.1334      2.00000
      5       1.0137      2.00000
      6       1.0137      2.00000
      7       1.0137      2.00000
      8       1.0418      2.00000
      9       1.0418      2.00000
     10       1.0609      2.00000
     11       1.0609      2.00000
     12       1.0609      2.00000
     13       2.0322      2.00000
     14       2.0322      2.00000
     15       2.0322      2.00000
     16       2.0976      2.00000
     17       2.0976      2.00000
     18       2.1272      2.00000
     19       2.1272      2.00000
     20       2.1272      2.00000
     21       4.6175      2.00000
     22       5.3625     -0.00007
     23       5.3625     -0.00007
     24       5.3625     -0.00007
     25       7.4263     -0.00000
     26       7.4263     -0.00000
     27       7.4263     -0.00000
     28       8.1205      0.00000
     29      19.0889      0.00000
     30      19.0889      0.00000
     31      19.0889      0.00000
     32      19.4498      0.00000
     33      19.5946      0.00000
     34      19.5946      0.00000
     35      19.5946      0.00000
     36      19.6055      0.00000
     37      19.6055      0.00000
     38      19.6055      0.00000
     39      20.0413      0.00000
     40      20.0413      0.00000
     41      24.1622      0.00000
     42      24.1622      0.00000
     43      24.4954      0.00000
     44      24.4954      0.00000
     45      24.4954      0.00000
     46      24.5687      0.00000
     47      24.5687      0.00000
     48      24.5687      0.00000


--------------------------------------------------------------------------------------------------------


 soft charge-density along one line, spin component           1
         0         1         2         3         4         5         6         7         8         9
 total charge-density along one line
 
 pseudopotential strength for first ion, spin component:           1
 -5.631   0.000  -0.000   0.000  -0.000  -5.799   0.000  -0.000
  0.000  -5.631   0.000   0.000  -0.000   0.000  -5.799   0.000
 -0.000   0.000  -5.625   0.000   0.000  -0.000   0.000  -5.792
  0.000   0.000   0.000  -5.631   0.000   0.000   0.000   0.000
 -0.000  -0.000   0.000   0.000  -5.625  -0.000  -0.000  -0.000
 -5.799   0.000  -0.000   0.000  -0.000  -5.934   0.000  -0.000
  0.000  -5.799   0.000   0.000  -0.000   0.000  -5.934   0.000
 -0.000   0.000  -5.792   0.000  -0.000  -0.000   0.000  -5.928
  0.000   0.000   0.000  -5.799   0.000   0.000   0.000   0.000
 -0.000  -0.000  -0.000   0.000  -5.792  -0.000  -0.000   0.000
 -0.000  -0.000  -0.000  -0.000   0.000  -0.000  -0.000   0.000
 -0.000  -0.000  -0.000  -0.000   0.000  -0.000  -0.000  -0.000
  0.000  -0.000   0.000   0.000   0.000   0.000  -0.000   0.000
  0.000  -0.000  -0.000   0.000  -0.000   0.000  -0.000  -0.000
 -0.000   0.000  -0.000  -0.000   0.000  -0.000   0.000  -0.000
  0.000  -0.000   0.000   0.000   0.000   0.000  -0.000   0.000
  0.000  -0.000  -0.000   0.000  -0.000   0.000  -0.000  -0.000
 -0.000   0.000   0.000  -0.000  -0.000  -0.000   0.000  -0.000
 total augmentation occupancy for first ion, spin component:           1
  2.782   0.000   0.000   0.000   0.000  -0.712  -0.000  -0.000   0.000   0.000   0.000   0.000   0.000   0.000   0.000   0.000
  0.000   2.782   0.000   0.000   0.000  -0.000  -0.712  -0.000  -0.000  -0.000   0.000  -0.000   0.000  -0.000   0.000   0.000
  0.000  -0.000   2.815  -0.000  -0.000   0.000   0.000  -0.663   0.000   0.000  -0.000  -0.000  -0.000   0.000   0.000  -0.000
 -0.000   0.000  -0.000   2.782   0.000   0.000   0.000  -0.000  -0.712   0.000   0.000   0.000   0.000  -0.000   0.000   0.000
 -0.000  -0.000  -0.000   0.000   2.815  -0.000  -0.000  -0.000   0.000  -0.663   0.000  -0.000  -0.000  -0.000  -0.000  -0.000
 -0.712   0.000  -0.000   0.000  -0.000   0.597   0.000  -0.000   0.000  -0.000   0.000  -0.000  -0.000  -0.000   0.000  -0.000
  0.000  -0.712   0.000   0.000  -0.000   0.000   0.597  -0.000   0.000  -0.000   0.000   0.000   0.000  -0.000  -0.000   0.000
 -0.000  -0.000  -0.663  -0.000  -0.000  -0.000  -0.000   0.484  -0.000  -0.000   0.000  -0.000   0.000  -0.000   0.000   0.000
  0.000  -0.000   0.000  -0.712   0.000   0.000  -0.000  -0.000   0.597   0.000  -0.000  -0.000   0.000   0.000  -0.000  -0.000
  0.000  -0.000   0.000   0.000  -0.663  -0.000  -0.000   0.000   0.000   0.484  -0.000   0.000   0.000   0.000   0.000   0.000
  0.000   0.000   0.000   0.000  -0.000  -0.000   0.000   0.000   0.000  -0.000   1.591  -0.244   0.000  -0.000   0.000   0.000
  0.000  -0.000  -0.000   0.000  -0.000   0.000  -0.000  -0.000  -0.000   0.000  -0.244   0.049   0.000   0.000   0.000   0.000
 -0.000  -0.000  -0.000   0.000   0.000  -0.000  -0.000  -0.000   0.000  -0.000   0.000   0.000   0.092  -0.000  -0.000  -0.005
  0.000  -0.000   0.000  -0.000   0.000  -0.000  -0.000   0.000  -0.000   0.000   0.000   0.000   0.000   0.092  -0.000   0.000
  0.000  -0.000  -0.000   0.000   0.000   0.000  -0.000   0.000  -0.000  -0.000   0.000   0.000   0.000   0.000   0.092   0.000
  0.000   0.000   0.000   0.000   0.000   0.000   0.000  -0.000  -0.000   0.000   0.000   0.000  -0.005   0.000   0.000   0.000
  0.000  -0.000   0.000  -0.000  -0.000   0.000   0.000  -0.000   0.000  -0.000   0.000   0.000  -0.000  -0.005  -0.000   0.000
 -0.000   0.000  -0.000  -0.000  -0.000   0.000  -0.000   0.000  -0.000  -0.000   0.000  -0.000  -0.000   0.000  -0.005   0.000


------------------------ aborting loop because EDIFF is reached ----------------------------------------


    CHARGE:  cpu time    0.1379: real time    0.1385
    FORLOC:  cpu time    0.0002: real time    0.0002
    FORNL :  cpu time    0.1423: real time    0.1424
    STRESS:  cpu time    0.3580: real time    0.3581
    FORCOR:  cpu time    0.0055: real time    0.0059
    FORHAR:  cpu time    0.0009: real time    0.0009
    MIXING:  cpu time    0.0003: real time    0.0003
    OFIELD:  cpu time    0.0000: real time    0.0000

  FORCE on cell =-STRESS in cart. coord.  units (eV):
  Direction    XX          YY          ZZ          XY          YZ          ZX
  --------------------------------------------------------------------------------------
  Alpha Z   149.44665   149.44665   149.44665
  Ewald   -1183.75183 -1183.75183 -1183.75183    -0.00000    -0.00000    -0.00000
  Hartree   317.38217   317.38217   317.38217    -0.00000    -0.00000    -0.00000
  E(xc)    -230.89481  -230.89481  -230.89481     0.00000     0.00000     0.00000
  Local      78.42708    78.42708    78.42708     0.00000    -0.00000     0.00000
  n-local   -42.00739   -53.03553   -55.70667    -0.18908     3.28568     1.24279
  augment   368.93379   368.93379   368.93379    -0.00000     0.00000     0.00000
  Kinetic   551.05465   543.19173   538.61475    -2.92936     0.90742    -0.49498
  Fock        0.00000     0.00000     0.00000     0.00000     0.00000     0.00000
  -------------------------------------------------------------------------------------
  Total      -6.41977    -6.41977    -6.41977    -0.00000     0.00000     0.00000
  in kB    -112.94893  -112.94893  -112.94893    -0.00000     0.00000     0.00000
  external pressure =     -112.95 kB  Pullay stress =        0.00 kB


 VOLUME and BASIS-vectors are now :
 -----------------------------------------------------------------------------
  energy-cutoff  :      400.00
  volume of cell :       91.06
      direct lattice vectors                 reciprocal lattice vectors
     4.499000000  0.000000000  0.000000000     0.222271616  0.000000000  0.000000000
     0.000000000  4.499000000  0.000000000     0.000000000  0.222271616  0.000000000
     0.000000000  0.000000000  4.499000000     0.000000000  0.000000000  0.222271616

  length of vectors
     4.499000000  4.499000000  4.499000000     0.222271616  0.222271616  0.222271616


 FORCES acting on ions
    electron-ion (+dipol)            ewald-force                    non-local-force                 convergence-correction
 -----------------------------------------------------------------------------------------------
   -.261E-13 -.273E-13 -.494E-13   0.361E-14 -.127E-14 -.374E-14   -.165E-23 -.165E-23 0.000E+00   0.264E-13 -.226E-13 -.752E-13
   -.255E-13 0.427E-12 0.406E-12   0.341E-14 0.260E-14 0.437E-14   -.662E-23 0.165E-23 0.000E+00   0.232E-13 0.395E-13 -.568E-14
   0.430E-12 -.283E-13 -.367E-11   -.220E-14 -.245E-14 0.457E-14   0.000E+00 -.662E-23 0.331E-23   -.257E-13 -.405E-13 0.147E-12
   0.428E-12 -.235E-11 -.339E-11   -.240E-14 0.143E-14 -.187E-14   0.000E+00 -.331E-23 -.662E-23   -.175E-13 0.118E-12 0.440E-14
 -----------------------------------------------------------------------------------------------
   0.806E-12 -.198E-11 -.670E-11   0.242E-14 0.312E-15 0.333E-14   -.827E-23 -.993E-23 -.331E-23   0.644E-14 0.941E-13 0.705E-13
 
 
 POSITION                                       TOTAL-FORCE (eV/Angst)
 -----------------------------------------------------------------------------------
      0.00000      0.00000      0.00000         0.000000      0.000000     -0.000000
      0.00000      2.24950      2.24950        -0.000000      0.000000     -0.000000
      2.24950      0.00000      2.24950        -0.000000     -0.000000      0.000000
      2.24950      2.24950      0.00000         0.000000      0.000000     -0.000000
 -----------------------------------------------------------------------------------
    total drift:                                0.000000     -0.000000     -0.000000


--------------------------------------------------------------------------------------------------------



  FREE ENERGIE OF THE ION-ELECTRON SYSTEM (eV)
  ---------------------------------------------------
  free  energy   TOTEN  =        -9.98783679 eV

  energy  without entropy=       -9.98636882  energy(sigma->0) =       -9.98734747
 


--------------------------------------------------------------------------------------------------------


    POTLOK:  cpu time    0.0087: real time    0.0088


--------------------------------------------------------------------------------------------------------


     LOOP+:  cpu time    7.3215: real time    7.3948
    4ORBIT:  cpu time    0.0000: real time    0.0000

 total amount of memory used by VASP on root node    41608. kBytes
========================================================================

   base      :      30000. kBytes
   nonl-proj :       8574. kBytes
   fftplans  :        221. kBytes
   grid      :        789. kBytes
   one-center:         62. kBytes
   wavefun   :       1962. kBytes
 
  
  
 General timing and accounting informations for this job:
 ========================================================
  
                  Total CPU time used (sec):       26.083
                            User time (sec):       25.919
                          System time (sec):        0.164
                         Elapsed time (sec):       27.376
  
                   Maximum memory used (kb):       76308.
                   Average memory used (kb):           0.
  
                          Minor page faults:        17003
                          Major page faults:            8
                 Voluntary context switches:         1450
