<?xml version="1.0" encoding="ISO-8859-1"?>
<modeling>
 <generator>
  <i name="program" type="string">vasp </i>
  <i name="version" type="string">5.4.1  </i>
  <i name="subversion" type="string">05Feb16 (build Feb 08 2018 09:21:51) complex                          parallel </i>
  <i name="platform" type="string">LinuxIFC </i>
  <i name="date" type="string">2019 11 21 </i>
  <i name="time" type="string">15:55:02 </i>
 </generator>
 <incar>
  <i type="string" name="PREC">normal</i>
  <i name="ENCUT">    400.00000000</i>
  <i type="int" name="ISMEAR">     1</i>
  <i name="SIGMA">      0.10000000</i>
  <i type="logical" name="LWAVE"> F  </i>
  <i type="logical" name="LCHARG"> F  </i>
  <v type="int" name="KPOINT_BSE">    -1     0     0     0</v>
 </incar>
 <kpoints>
  <generation param="Monkhorst-Pack">
   <v type="int" name="divisions">       9        9        9 </v>
   <v name="usershift">      0.00000000       0.00000000       0.00000000 </v>
   <v name="genvec1">      0.11111111       0.00000000       0.00000000 </v>
   <v name="genvec2">      0.00000000       0.11111111       0.00000000 </v>
   <v name="genvec3">      0.00000000       0.00000000       0.11111111 </v>
   <v name="shift">      0.00000000       0.00000000       0.00000000 </v>
  </generation>
  <varray name="kpointlist" >
   <v>       0.00000000       0.00000000       0.00000000 </v>
   <v>       0.11111111       0.00000000       0.00000000 </v>
   <v>       0.22222222       0.00000000       0.00000000 </v>
   <v>       0.33333333       0.00000000       0.00000000 </v>
   <v>       0.44444444       0.00000000       0.00000000 </v>
   <v>       0.11111111       0.11111111       0.00000000 </v>
   <v>       0.22222222       0.11111111       0.00000000 </v>
   <v>       0.33333333       0.11111111       0.00000000 </v>
   <v>       0.44444444       0.11111111       0.00000000 </v>
   <v>       0.22222222       0.22222222       0.00000000 </v>
   <v>       0.33333333       0.22222222       0.00000000 </v>
   <v>       0.44444444       0.22222222       0.00000000 </v>
   <v>       0.33333333       0.33333333       0.00000000 </v>
   <v>       0.44444444       0.33333333       0.00000000 </v>
   <v>       0.44444444       0.44444444       0.00000000 </v>
   <v>       0.11111111       0.11111111       0.11111111 </v>
   <v>       0.22222222       0.11111111       0.11111111 </v>
   <v>       0.33333333       0.11111111       0.11111111 </v>
   <v>       0.44444444       0.11111111       0.11111111 </v>
   <v>       0.22222222       0.22222222       0.11111111 </v>
   <v>       0.33333333       0.22222222       0.11111111 </v>
   <v>       0.44444444       0.22222222       0.11111111 </v>
   <v>       0.33333333       0.33333333       0.11111111 </v>
   <v>       0.44444444       0.33333333       0.11111111 </v>
   <v>       0.44444444       0.44444444       0.11111111 </v>
   <v>       0.22222222       0.22222222       0.22222222 </v>
   <v>       0.33333333       0.22222222       0.22222222 </v>
   <v>       0.44444444       0.22222222       0.22222222 </v>
   <v>       0.33333333       0.33333333       0.22222222 </v>
   <v>       0.44444444       0.33333333       0.22222222 </v>
   <v>       0.44444444       0.44444444       0.22222222 </v>
   <v>       0.33333333       0.33333333       0.33333333 </v>
   <v>       0.44444444       0.33333333       0.33333333 </v>
   <v>       0.44444444       0.44444444       0.33333333 </v>
   <v>       0.44444444       0.44444444       0.44444444 </v>
  </varray>
  <varray name="weights" >
   <v>       0.00137174 </v>
   <v>       0.00823045 </v>
   <v>       0.00823045 </v>
   <v>       0.00823045 </v>
   <v>       0.00823045 </v>
   <v>       0.01646091 </v>
   <v>       0.03292181 </v>
   <v>       0.03292181 </v>
   <v>       0.03292181 </v>
   <v>       0.01646091 </v>
   <v>       0.03292181 </v>
   <v>       0.03292181 </v>
   <v>       0.01646091 </v>
   <v>       0.03292181 </v>
   <v>       0.01646091 </v>
   <v>       0.01097394 </v>
   <v>       0.03292181 </v>
   <v>       0.03292181 </v>
   <v>       0.03292181 </v>
   <v>       0.03292181 </v>
   <v>       0.06584362 </v>
   <v>       0.06584362 </v>
   <v>       0.03292181 </v>
   <v>       0.06584362 </v>
   <v>       0.03292181 </v>
   <v>       0.01097394 </v>
   <v>       0.03292181 </v>
   <v>       0.03292181 </v>
   <v>       0.03292181 </v>
   <v>       0.06584362 </v>
   <v>       0.03292181 </v>
   <v>       0.01097394 </v>
   <v>       0.03292181 </v>
   <v>       0.03292181 </v>
   <v>       0.01097394 </v>
  </varray>
 </kpoints>
 <parameters>
  <separator name="general" >
   <i type="string" name="SYSTEM">unknown system</i>
   <i type="logical" name="LCOMPAT"> F  </i>
  </separator>
  <separator name="electronic" >
   <i type="string" name="PREC">normal</i>
   <i name="ENMAX">    400.00000000</i>
   <i name="ENAUG">    412.49600000</i>
   <i name="EDIFF">      0.00010000</i>
   <i type="int" name="IALGO">    38</i>
   <i type="int" name="IWAVPR">    10</i>
   <i type="int" name="NBANDS">    48</i>
   <i name="NELECT">     44.00000000</i>
   <i type="int" name="TURBO">     0</i>
   <i type="int" name="IRESTART">     0</i>
   <i type="int" name="NREBOOT">     0</i>
   <i type="int" name="NMIN">     0</i>
   <i name="EREF">      0.00000000</i>
   <separator name="electronic smearing" >
    <i type="int" name="ISMEAR">     1</i>
    <i name="SIGMA">      0.10000000</i>
    <i name="KSPACING">      0.50000000</i>
    <i type="logical" name="KGAMMA"> T  </i>
   </separator>
   <separator name="electronic projectors" >
    <i type="logical" name="LREAL"> F  </i>
    <v name="ROPT">      0.00000000</v>
    <i type="int" name="LMAXPAW">  -100</i>
    <i type="int" name="LMAXMIX">     2</i>
    <i type="logical" name="NLSPLINE"> F  </i>
   </separator>
   <separator name="electronic startup" >
    <i type="int" name="ISTART">     0</i>
    <i type="int" name="ICHARG">     2</i>
    <i type="int" name="INIWAV">     1</i>
   </separator>
   <separator name="electronic spin" >
    <i type="int" name="ISPIN">     1</i>
    <i type="logical" name="LNONCOLLINEAR"> F  </i>
    <v name="MAGMOM">      1.00000000      1.00000000      1.00000000      1.00000000</v>
    <i name="NUPDOWN">     -1.00000000</i>
    <i type="logical" name="LSORBIT"> F  </i>
    <v name="SAXIS">      0.00000000      0.00000000      1.00000000</v>
    <i type="logical" name="LSPIRAL"> F  </i>
    <v name="QSPIRAL">      0.00000000      0.00000000      0.00000000</v>
    <i type="logical" name="LZEROZ"> F  </i>
   </separator>
   <separator name="electronic exchange-correlation" >
    <i type="logical" name="LASPH"> F  </i>
    <i type="logical" name="LMETAGGA"> F  </i>
   </separator>
   <separator name="electronic convergence" >
    <i type="int" name="NELM">    60</i>
    <i type="int" name="NELMDL">    -5</i>
    <i type="int" name="NELMIN">     2</i>
    <i name="ENINI">    400.00000000</i>
    <separator name="electronic convergence detail" >
     <i type="logical" name="LDIAG"> T  </i>
     <i type="logical" name="LSUBROT"> F  </i>
     <i name="WEIMIN">      0.00000000</i>
     <i name="EBREAK">      0.00000052</i>
     <i name="DEPER">      0.30000000</i>
     <i type="int" name="NRMM">     4</i>
     <i name="TIME">      0.40000000</i>
    </separator>
   </separator>
   <separator name="electronic mixer" >
    <i name="AMIX">      0.40000000</i>
    <i name="BMIX">      1.00000000</i>
    <i name="AMIN">      0.10000000</i>
    <i name="AMIX_MAG">      1.60000000</i>
    <i name="BMIX_MAG">      1.00000000</i>
    <separator name="electronic mixer details" >
     <i type="int" name="IMIX">     4</i>
     <i type="logical" name="MIXFIRST"> F  </i>
     <i type="int" name="MAXMIX">   -45</i>
     <i name="WC">    100.00000000</i>
     <i type="int" name="INIMIX">     1</i>
     <i type="int" name="MIXPRE">     1</i>
     <i type="int" name="MREMOVE">     5</i>
    </separator>
   </separator>
   <separator name="electronic dipolcorrection" >
    <i type="logical" name="LDIPOL"> F  </i>
    <i type="logical" name="LMONO"> F  </i>
    <i type="int" name="IDIPOL">     0</i>
    <i name="EPSILON">      1.00000000</i>
    <v name="DIPOL">   -100.00000000   -100.00000000   -100.00000000</v>
    <i name="EFIELD">      0.00000000</i>
   </separator>
  </separator>
  <separator name="grids" >
   <i type="int" name="NGX">    24</i>
   <i type="int" name="NGY">    24</i>
   <i type="int" name="NGZ">    24</i>
   <i type="int" name="NGXF">    48</i>
   <i type="int" name="NGYF">    48</i>
   <i type="int" name="NGZF">    48</i>
   <i type="logical" name="ADDGRID"> F  </i>
  </separator>
  <separator name="ionic" >
   <i type="int" name="NSW">     0</i>
   <i type="int" name="IBRION">    -1</i>
   <i type="int" name="ISIF">     2</i>
   <i name="PSTRESS">      0.00000000</i>
   <i name="EDIFFG">      0.00100000</i>
   <i type="int" name="NFREE">     0</i>
   <i name="POTIM">      0.50000000</i>
   <i name="SMASS">     -3.00000000</i>
   <i name="SCALEE">      1.00000000</i>
  </separator>
  <separator name="ionic md" >
   <i name="TEBEG">      0.00010000</i>
   <i name="TEEND">      0.00010000</i>
   <i type="int" name="NBLOCK">     1</i>
   <i type="int" name="KBLOCK">     1</i>
   <i type="int" name="NPACO">   256</i>
   <i name="APACO">     16.00000000</i>
  </separator>
  <separator name="symmetry" >
   <i type="int" name="ISYM">     2</i>
   <i name="SYMPREC">      0.00001000</i>
  </separator>
  <separator name="dos" >
   <i type="logical" name="LORBIT"> F  </i>
   <v name="RWIGS">     -1.00000000</v>
   <i type="int" name="NEDOS">   301</i>
   <i name="EMIN">     10.00000000</i>
   <i name="EMAX">    -10.00000000</i>
   <i name="EFERMI">      0.00000000</i>
  </separator>
  <separator name="writing" >
   <i type="int" name="NWRITE">     2</i>
   <i type="logical" name="LWAVE"> F  </i>
   <i type="logical" name="LCHARG"> F  </i>
   <i type="logical" name="LPARD"> F  </i>
   <i type="logical" name="LVTOT"> F  </i>
   <i type="logical" name="LVHAR"> F  </i>
   <i type="logical" name="LELF"> F  </i>
   <i type="logical" name="LOPTICS"> F  </i>
   <v name="STM">      0.00000000      0.00000000      0.00000000      0.00000000      0.00000000      0.00000000      0.00000000</v>
  </separator>
  <separator name="performance" >
   <i type="int" name="NPAR">    24</i>
   <i type="int" name="NSIM">     4</i>
   <i type="int" name="NBLK">    -1</i>
   <i type="logical" name="LPLANE"> T  </i>
   <i type="logical" name="LSCALAPACK"> F  </i>
   <i type="logical" name="LSCAAWARE"> F  </i>
   <i type="logical" name="LSCALU"> F  </i>
   <i type="logical" name="LASYNC"> F  </i>
   <i type="logical" name="LORBITALREAL"> F  </i>
  </separator>
  <separator name="miscellaneous" >
   <i type="int" name="IDIOT">     3</i>
   <i type="logical" name="LMUSIC"> F  </i>
   <v name="POMASS">    107.86800000</v>
   <v name="DARWINR">      0.00000000</v>
   <v name="DARWINV">      1.00000000</v>
   <i type="logical" name="LCORR"> T  </i>
  </separator>
  <i type="logical" name="GGA_COMPAT"> T  </i>
  <i type="logical" name="LBERRY"> F  </i>
  <i type="int" name="ICORELEVEL">     0</i>
  <i type="logical" name="LDAU"> F  </i>
  <i type="int" name="I_CONSTRAINED_M">     0</i>
  <separator name="electronic exchange-correlation" >
   <i type="string" name="GGA">--</i>
   <i type="int" name="VOSKOWN">     0</i>
   <i type="logical" name="LHFCALC"> F  </i>
   <i type="string" name="PRECFOCK"></i>
   <i type="logical" name="LSYMGRAD"> F  </i>
   <i type="logical" name="LHFONE"> F  </i>
   <i type="logical" name="LRHFCALC"> F  </i>
   <i type="logical" name="LTHOMAS"> F  </i>
   <i type="logical" name="LMODELHF"> F  </i>
   <i name="ENCUT4O">     -1.00000000</i>
   <i type="int" name="EXXOEP">     0</i>
   <i type="int" name="FOURORBIT">     0</i>
   <i name="AEXX">      0.00000000</i>
   <i name="HFALPHA">      0.00000000</i>
   <i name="MCALPHA">      0.00000000</i>
   <i name="ALDAX">      1.00000000</i>
   <i name="AGGAX">      1.00000000</i>
   <i name="ALDAC">      1.00000000</i>
   <i name="AGGAC">      1.00000000</i>
   <i type="int" name="NKREDX">     1</i>
   <i type="int" name="NKREDY">     1</i>
   <i type="int" name="NKREDZ">     1</i>
   <i type="logical" name="SHIFTRED"> F  </i>
   <i type="logical" name="ODDONLY"> F  </i>
   <i type="logical" name="EVENONLY"> F  </i>
   <i type="int" name="LMAXFOCK">     0</i>
   <i type="int" name="NMAXFOCKAE">     0</i>
   <i type="logical" name="LFOCKAEDFT"> F  </i>
   <i name="HFSCREEN">      0.00000000</i>
   <i name="HFSCREENC">      0.00000000</i>
   <i type="int" name="NBANDSGWLOW">     0</i>
  </separator>
  <separator name="vdW DFT" >
   <i type="logical" name="LUSE_VDW"> F  </i>
   <i name="Zab_VDW">     -0.84910000</i>
   <i name="PARAM1">      0.12340000</i>
   <i name="PARAM2">      1.00000000</i>
   <i name="PARAM3">      0.00000000</i>
  </separator>
  <separator name="model GW" >
   <i type="int" name="MODEL_GW">     0</i>
   <i name="MODEL_EPS0">     13.65963952</i>
   <i name="MODEL_ALPHA">      1.00000000</i>
  </separator>
  <separator name="linear response parameters" >
   <i type="logical" name="LEPSILON"> F  </i>
   <i type="logical" name="LRPA"> F  </i>
   <i type="logical" name="LNABLA"> F  </i>
   <i type="logical" name="LVEL"> F  </i>
   <i type="int" name="KINTER">     0</i>
   <i name="CSHIFT">      0.10000000</i>
   <i name="OMEGAMAX">     -1.00000000</i>
   <i name="DEG_THRESHOLD">      0.00200000</i>
  </separator>
  <separator name="orbital magnetization" >
   <i type="logical" name="NUCIND"> F  </i>
   <v name="MAGPOS">      0.00000000      0.00000000      0.00000000</v>
   <i type="logical" name="LNICSALL"> T  </i>
   <i type="logical" name="ORBITALMAG"> F  </i>
   <i type="logical" name="LMAGBLOCH"> F  </i>
   <i type="logical" name="LCHIMAG"> F  </i>
   <i type="logical" name="LGAUGE"> T  </i>
   <i type="int" name="MAGATOM">     0</i>
   <v name="MAGDIPOL">      0.00000000      0.00000000      0.00000000</v>
   <v name="AVECCONST">      0.00000000      0.00000000      0.00000000</v>
  </separator>
  <separator name="response functions" >
   <i type="logical" name="LADDER"> F  </i>
   <i type="logical" name="LFXC"> F  </i>
   <i type="logical" name="LHARTREE"> T  </i>
   <i type="int" name="IBSE">     0</i>
   <v type="int" name="KPOINT">    -1     0     0     0</v>
   <i type="logical" name="LTCTE"> F  </i>
   <i type="logical" name="LTETE"> F  </i>
   <i type="logical" name="LTRIPLET"> F  </i>
   <i type="logical" name="LFXCEPS"> F  </i>
   <i type="logical" name="LFXHEG"> F  </i>
   <i type="int" name="NATURALO">     0</i>
   <i type="logical" name="L2ORDER"> F  </i>
   <i type="logical" name="LUSEW"> F  </i>
   <i name="ENCUTGW">     -2.00000000</i>
   <i name="ENCUTGWSOFT">     -2.00000000</i>
   <i name="ENCUTLF">     -1.00000000</i>
   <i type="int" name="LMAXMP2">    -1</i>
   <i name="SCISSOR">      0.00000000</i>
   <i type="int" name="NOMEGA">     0</i>
   <i type="int" name="NOMEGAR">     0</i>
   <i type="int" name="NBANDSGW">    -1</i>
   <i type="int" name="NBANDSO">    -1</i>
   <i type="int" name="NBANDSV">    -1</i>
   <i type="int" name="NELM">     1</i>
   <i type="int" name="NELMHF">     1</i>
   <i type="int" name="DIM">     3</i>
   <i type="int" name="ANTIRES">     0</i>
   <i name="OMEGAMAX">    -30.00000000</i>
   <i name="OMEGAMIN">    -30.00000000</i>
   <i name="OMEGATL">   -200.00000000</i>
   <i type="int" name="OMEGAGRID">     0</i>
   <i name="CSHIFT">     -0.10000000</i>
   <i type="logical" name="SELFENERGY"> F  </i>
   <i type="logical" name="LSPECTRAL"> F  </i>
   <i type="logical" name="LSPECTRALGW"> F  </i>
   <i type="logical" name="LSINGLES"> F  </i>
   <i type="logical" name="LFERMIGW"> F  </i>
   <i type="logical" name="ODDONLYGW"> F  </i>
   <i type="logical" name="EVENONLYGW"> F  </i>
   <i type="int" name="NKREDLFX">     1</i>
   <i type="int" name="NKREDLFY">     1</i>
   <i type="int" name="NKREDLFZ">     1</i>
   <i type="int" name="MAXMEM">  1800</i>
   <i type="int" name="TELESCOPE">     0</i>
   <i type="int" name="TAUPAR">     1</i>
   <i type="int" name="OMEGAPAR">    -1</i>
   <i name="LAMBDA">      1.00000000</i>
  </separator>
  <separator name="External order field" >
   <i name="OFIELD_KAPPA">      0.00000000</i>
   <v name="OFIELD_K">      0.00000000      0.00000000      0.00000000</v>
   <i name="OFIELD_Q6_NEAR">      0.00000000</i>
   <i name="OFIELD_Q6_FAR">      0.00000000</i>
   <i name="OFIELD_A">      0.00000000</i>
  </separator>
 </parameters>
 <atominfo>
  <atoms>       4 </atoms>
  <types>       1 </types>
  <array name="atoms" >
   <dimension dim="1">ion</dimension>
   <field type="string">element</field>
   <field type="int">atomtype</field>
   <set>
    <rc><c>Ag</c><c>   1</c></rc>
    <rc><c>Ag</c><c>   1</c></rc>
    <rc><c>Ag</c><c>   1</c></rc>
    <rc><c>Ag</c><c>   1</c></rc>
   </set>
  </array>
  <array name="atomtypes" >
   <dimension dim="1">type</dimension>
   <field type="int">atomspertype</field>
   <field type="string">element</field>
   <field>mass</field>
   <field>valence</field>
   <field type="string">pseudopotential</field>
   <set>
    <rc><c>   4</c><c>Ag</c><c>    107.86800000</c><c>     11.00000000</c><c>  PAW_PBE Ag 02Apr2005                  </c></rc>
   </set>
  </array>
 </atominfo>
 <structure name="initialpos" >
  <crystal>
   <varray name="basis" >
    <v>       4.49900000       0.00000000       0.00000000 </v>
    <v>       0.00000000       4.49900000       0.00000000 </v>
    <v>       0.00000000       0.00000000       4.49900000 </v>
   </varray>
   <i name="volume">     91.06426350 </i>
   <varray name="rec_basis" >
    <v>       0.22227162       0.00000000       0.00000000 </v>
    <v>       0.00000000       0.22227162       0.00000000 </v>
    <v>       0.00000000       0.00000000       0.22227162 </v>
   </varray>
  </crystal>
  <varray name="positions" >
   <v>       0.00000000       0.00000000       0.00000000 </v>
   <v>       0.00000000       0.50000000       0.50000000 </v>
   <v>       0.50000000       0.00000000       0.50000000 </v>
   <v>       0.50000000       0.50000000       0.00000000 </v>
  </varray>
 </structure>
 <calculation>
  <scstep>
   <time name="dav">    0.57    0.57</time>
   <time name="total">    0.65    0.65</time>
   <energy>
    <i name="alphaZ">    149.44664988 </i>
    <i name="ewald">  -3551.25391848 </i>
    <i name="hartreedc">   -992.91955970 </i>
    <i name="XCdc">    -44.32278687 </i>
    <i name="pawpsdc">   4013.84859731 </i>
    <i name="pawaedc">  -3829.39709692 </i>
    <i name="eentropy">      0.00036694 </i>
    <i name="bandstr">    293.72432094 </i>
    <i name="atom">   4149.03371350 </i>
    <i name="e_fr_energy">    188.16028661 </i>
    <i name="e_wo_entrp">    188.15991967 </i>
    <i name="e_0_energy">    188.16016430 </i>
   </energy>
  </scstep>
  <scstep>
   <time name="dav">    0.77    0.77</time>
   <time name="total">    0.77    0.79</time>
   <energy>
    <i name="e_fr_energy">     -7.69787006 </i>
    <i name="e_wo_entrp">     -7.69935561 </i>
    <i name="e_0_energy">     -7.69836524 </i>
   </energy>
  </scstep>
  <scstep>
   <time name="dav">    0.67    0.67</time>
   <time name="total">    0.67    0.67</time>
   <energy>
    <i name="e_fr_energy">    -10.59424437 </i>
    <i name="e_wo_entrp">    -10.59576993 </i>
    <i name="e_0_energy">    -10.59475289 </i>
   </energy>
  </scstep>
  <scstep>
   <time name="dav">    0.90    0.90</time>
   <time name="total">    0.90    0.91</time>
   <energy>
    <i name="e_fr_energy">    -10.60374581 </i>
    <i name="e_wo_entrp">    -10.60527171 </i>
    <i name="e_0_energy">    -10.60425444 </i>
   </energy>
  </scstep>
  <scstep>
   <time name="dav">    0.64    0.64</time>
   <time name="total">    0.66    0.66</time>
   <energy>
    <i name="e_fr_energy">    -10.60384829 </i>
    <i name="e_wo_entrp">    -10.60537420 </i>
    <i name="e_0_energy">    -10.60435693 </i>
   </energy>
  </scstep>
  <scstep>
   <time name="dav">    0.82    0.82</time>
   <time name="total">    0.84    0.85</time>
   <energy>
    <i name="e_fr_energy">     -9.99478820 </i>
    <i name="e_wo_entrp">     -9.99341489 </i>
    <i name="e_0_energy">     -9.99433043 </i>
   </energy>
  </scstep>
  <scstep>
   <time name="dav">    0.71    0.71</time>
   <time name="total">    0.73    0.74</time>
   <energy>
    <i name="e_fr_energy">     -9.99019439 </i>
    <i name="e_wo_entrp">     -9.98875346 </i>
    <i name="e_0_energy">     -9.98971408 </i>
   </energy>
  </scstep>
  <scstep>
   <time name="dav">    0.75    0.75</time>
   <time name="total">    0.77    0.78</time>
   <energy>
    <i name="e_fr_energy">     -9.98775651 </i>
    <i name="e_wo_entrp">     -9.98628094 </i>
    <i name="e_0_energy">     -9.98726466 </i>
   </energy>
  </scstep>
  <scstep>
   <time name="dav">    0.65    0.65</time>
   <time name="total">    0.66    0.66</time>
   <energy>
    <i name="alphaZ">    149.44664988 </i>
    <i name="ewald">  -3551.25391848 </i>
    <i name="hartreedc">   -952.25609758 </i>
    <i name="XCdc">    -45.87250387 </i>
    <i name="pawpsdc">   4164.74289495 </i>
    <i name="pawaedc">  -3985.30798793 </i>
    <i name="eentropy">     -0.00146798 </i>
    <i name="bandstr">     61.48088071 </i>
    <i name="atom">   4149.03371350 </i>
    <i name="e_fr_energy">     -9.98783679 </i>
    <i name="e_wo_entrp">     -9.98636882 </i>
    <i name="e_0_energy">     -9.98734747 </i>
   </energy>
  </scstep>
  <structure>
   <crystal>
    <varray name="basis" >
     <v>       4.49900000       0.00000000       0.00000000 </v>
     <v>       0.00000000       4.49900000       0.00000000 </v>
     <v>       0.00000000       0.00000000       4.49900000 </v>
    </varray>
    <i name="volume">     91.06426350 </i>
    <varray name="rec_basis" >
     <v>       0.22227162       0.00000000       0.00000000 </v>
     <v>       0.00000000       0.22227162       0.00000000 </v>
     <v>       0.00000000       0.00000000       0.22227162 </v>
    </varray>
   </crystal>
   <varray name="positions" >
    <v>       0.00000000       0.00000000       0.00000000 </v>
    <v>       0.00000000       0.50000000       0.50000000 </v>
    <v>       0.50000000       0.00000000       0.50000000 </v>
    <v>       0.50000000       0.50000000       0.00000000 </v>
   </varray>
  </structure>
  <varray name="forces" >
   <v>       0.00000000       0.00000000      -0.00000000 </v>
   <v>      -0.00000000       0.00000000      -0.00000000 </v>
   <v>      -0.00000000      -0.00000000       0.00000000 </v>
   <v>       0.00000000       0.00000000      -0.00000000 </v>
  </varray>
  <varray name="stress" >
   <v>    -112.94892973      -0.00000000       0.00000000 </v>
   <v>      -0.00000000    -112.94892973       0.00000000 </v>
   <v>       0.00000000       0.00000000    -112.94892973 </v>
  </varray>
  <energy>
   <i name="e_fr_energy">     -9.98783679 </i>
   <i name="e_wo_entrp">     -9.98734747 </i>
   <i name="e_0_energy">     -0.00146798 </i>
  </energy>
  <time name="totalsc">    7.32    7.39</time>
  <eigenvalues>
   <array>
    <dimension dim="1">band</dimension>
    <dimension dim="2">kpoint</dimension>
    <dimension dim="3">spin</dimension>
    <field>eigene</field>
    <field>occ</field>
    <set>
     <set comment="spin 1">
      <set comment="kpoint 1">
       <r>   -0.8792    1.0000 </r>
       <r>    0.0940    1.0000 </r>
       <r>    0.0940    1.0000 </r>
       <r>    0.0940    1.0000 </r>
       <r>    0.1465    1.0000 </r>
       <r>    0.1465    1.0000 </r>
       <r>    0.1465    1.0000 </r>
       <r>    1.0375    1.0000 </r>
       <r>    1.0375    1.0000 </r>
       <r>    1.0375    1.0000 </r>
       <r>    1.6491    1.0000 </r>
       <r>    1.6491    1.0000 </r>
       <r>    2.1038    1.0000 </r>
       <r>    2.1038    1.0000 </r>
       <r>    2.1038    1.0000 </r>
       <r>    2.2484    1.0000 </r>
       <r>    2.2484    1.0000 </r>
       <r>    2.2484    1.0000 </r>
       <r>    2.2484    1.0000 </r>
       <r>    2.2484    1.0000 </r>
       <r>    2.2484    1.0000 </r>
       <r>    6.8702   -0.0000 </r>
       <r>    6.8702   -0.0000 </r>
       <r>    6.8702   -0.0000 </r>
       <r>    9.7970    0.0000 </r>
       <r>    9.7970    0.0000 </r>
       <r>    9.7970    0.0000 </r>
       <r>   14.2570    0.0000 </r>
       <r>   14.2570    0.0000 </r>
       <r>   14.2570    0.0000 </r>
       <r>   14.2570    0.0000 </r>
       <r>   14.2570    0.0000 </r>
       <r>   14.2570    0.0000 </r>
       <r>   18.8931    0.0000 </r>
       <r>   18.8931    0.0000 </r>
       <r>   18.8931    0.0000 </r>
       <r>   19.1513    0.0000 </r>
       <r>   19.1513    0.0000 </r>
       <r>   19.1513    0.0000 </r>
       <r>   20.1623    0.0000 </r>
       <r>   22.0387    0.0000 </r>
       <r>   22.0387    0.0000 </r>
       <r>   22.0387    0.0000 </r>
       <r>   26.1452    0.0000 </r>
       <r>   26.1452    0.0000 </r>
       <r>   26.1452    0.0000 </r>
       <r>   26.3280    0.0000 </r>
       <r>   29.0501    0.0000 </r>
      </set>
      <set comment="kpoint 2">
       <r>   -0.7765    1.0000 </r>
       <r>    0.1281    1.0000 </r>
       <r>    0.1378    1.0000 </r>
       <r>    0.1378    1.0000 </r>
       <r>    0.1713    1.0000 </r>
       <r>    0.1860    1.0000 </r>
       <r>    0.1860    1.0000 </r>
       <r>    1.0085    1.0000 </r>
       <r>    1.0667    1.0000 </r>
       <r>    1.0667    1.0000 </r>
       <r>    1.6209    1.0000 </r>
       <r>    1.6623    1.0000 </r>
       <r>    2.0660    1.0000 </r>
       <r>    2.0660    1.0000 </r>
       <r>    2.0892    1.0000 </r>
       <r>    2.1304    1.0000 </r>
       <r>    2.1304    1.0000 </r>
       <r>    2.2016    1.0000 </r>
       <r>    2.2016    1.0000 </r>
       <r>    2.2483    1.0000 </r>
       <r>    2.2483    1.0000 </r>
       <r>    6.0436   -0.0000 </r>
       <r>    7.0819   -0.0000 </r>
       <r>    7.0819   -0.0000 </r>
       <r>    9.8224    0.0000 </r>
       <r>    9.8224    0.0000 </r>
       <r>   10.8019    0.0000 </r>
       <r>   13.8382    0.0000 </r>
       <r>   13.8382    0.0000 </r>
       <r>   13.8495    0.0000 </r>
       <r>   13.8495    0.0000 </r>
       <r>   14.4215    0.0000 </r>
       <r>   14.4215    0.0000 </r>
       <r>   18.9020    0.0000 </r>
       <r>   19.1652    0.0000 </r>
       <r>   19.5451    0.0000 </r>
       <r>   19.5451    0.0000 </r>
       <r>   19.6357    0.0000 </r>
       <r>   19.6357    0.0000 </r>
       <r>   20.0967    0.0000 </r>
       <r>   21.5498    0.0000 </r>
       <r>   21.5498    0.0000 </r>
       <r>   21.6466    0.0000 </r>
       <r>   26.3843    0.0000 </r>
       <r>   26.3843    0.0000 </r>
       <r>   26.4093    0.0000 </r>
       <r>   26.6078    0.0000 </r>
       <r>   28.1548    0.0000 </r>
      </set>
      <set comment="kpoint 3">
       <r>   -0.4780    1.0000 </r>
       <r>    0.2233    1.0000 </r>
       <r>    0.2438    1.0000 </r>
       <r>    0.2589    1.0000 </r>
       <r>    0.2589    1.0000 </r>
       <r>    0.3038    1.0000 </r>
       <r>    0.3038    1.0000 </r>
       <r>    0.9259    1.0000 </r>
       <r>    1.1525    1.0000 </r>
       <r>    1.1525    1.0000 </r>
       <r>    1.5493    1.0000 </r>
       <r>    1.7005    1.0000 </r>
       <r>    1.8344    1.0000 </r>
       <r>    1.8344    1.0000 </r>
       <r>    1.9610    1.0000 </r>
       <r>    1.9610    1.0000 </r>
       <r>    2.0484    1.0000 </r>
       <r>    2.0723    1.0000 </r>
       <r>    2.0723    1.0000 </r>
       <r>    2.2484    1.0000 </r>
       <r>    2.2484    1.0000 </r>
       <r>    4.6772    1.0000 </r>
       <r>    7.6576   -0.0000 </r>
       <r>    7.6576   -0.0000 </r>
       <r>    9.8991    0.0000 </r>
       <r>    9.8991    0.0000 </r>
       <r>   12.7049    0.0000 </r>
       <r>   12.8810    0.0000 </r>
       <r>   12.8810    0.0000 </r>
       <r>   13.0500    0.0000 </r>
       <r>   13.0500    0.0000 </r>
       <r>   14.9019    0.0000 </r>
       <r>   14.9019    0.0000 </r>
       <r>   18.9420    0.0000 </r>
       <r>   19.2082    0.0000 </r>
       <r>   19.9329    0.0000 </r>
       <r>   20.4361    0.0000 </r>
       <r>   20.4361    0.0000 </r>
       <r>   20.7952    0.0000 </r>
       <r>   20.7952    0.0000 </r>
       <r>   20.8807    0.0000 </r>
       <r>   21.0707    0.0000 </r>
       <r>   21.0707    0.0000 </r>
       <r>   24.9527    0.0000 </r>
       <r>   26.9392    0.0000 </r>
       <r>   26.9392    0.0000 </r>
       <r>   27.1624    0.0000 </r>
       <r>   28.9296    0.0000 </r>
      </set>
      <set comment="kpoint 4">
       <r>   -0.0317    1.0000 </r>
       <r>    0.3546    1.0000 </r>
       <r>    0.3566    1.0000 </r>
       <r>    0.4209    1.0000 </r>
       <r>    0.4209    1.0000 </r>
       <r>    0.4982    1.0000 </r>
       <r>    0.4982    1.0000 </r>
       <r>    0.8016    1.0000 </r>
       <r>    1.2902    1.0000 </r>
       <r>    1.2902    1.0000 </r>
       <r>    1.4636    1.0000 </r>
       <r>    1.4636    1.0000 </r>
       <r>    1.4911    1.0000 </r>
       <r>    1.7595    1.0000 </r>
       <r>    1.8168    1.0000 </r>
       <r>    1.8168    1.0000 </r>
       <r>    1.8863    1.0000 </r>
       <r>    1.8863    1.0000 </r>
       <r>    1.9865    1.0000 </r>
       <r>    2.2486    1.0000 </r>
       <r>    2.2486    1.0000 </r>
       <r>    3.3864    1.0000 </r>
       <r>    8.4873    0.0000 </r>
       <r>    8.4873    0.0000 </r>
       <r>   10.0192    0.0000 </r>
       <r>   10.0192    0.0000 </r>
       <r>   11.7442    0.0000 </r>
       <r>   11.7442    0.0000 </r>
       <r>   12.3167    0.0000 </r>
       <r>   12.3167    0.0000 </r>
       <r>   14.8979    0.0000 </r>
       <r>   15.6639    0.0000 </r>
       <r>   15.6639    0.0000 </r>
       <r>   19.0489    0.0000 </r>
       <r>   19.1306    0.0000 </r>
       <r>   19.1306    0.0000 </r>
       <r>   19.2839    0.0000 </r>
       <r>   19.7345    0.0000 </r>
       <r>   20.1508    0.0000 </r>
       <r>   22.2874    0.0000 </r>
       <r>   22.2874    0.0000 </r>
       <r>   22.4056    0.0000 </r>
       <r>   22.9797    0.0000 </r>
       <r>   22.9797    0.0000 </r>
       <r>   27.7098    0.0000 </r>
       <r>   27.7098    0.0000 </r>
       <r>   27.7488    0.0000 </r>
       <r>   27.7488    0.0000 </r>
      </set>
      <set comment="kpoint 5">
       <r>    0.3753    1.0000 </r>
       <r>    0.4612    1.0000 </r>
       <r>    0.4983    1.0000 </r>
       <r>    0.5501    1.0000 </r>
       <r>    0.5501    1.0000 </r>
       <r>    0.6527    1.0000 </r>
       <r>    0.7648    1.0000 </r>
       <r>    0.7648    1.0000 </r>
       <r>    1.0934    1.0000 </r>
       <r>    1.0934    1.0000 </r>
       <r>    1.4696    1.0000 </r>
       <r>    1.4696    1.0000 </r>
       <r>    1.6480    1.0000 </r>
       <r>    1.6757    1.0000 </r>
       <r>    1.6757    1.0000 </r>
       <r>    1.6990    1.0000 </r>
       <r>    1.6990    1.0000 </r>
       <r>    1.8326    1.0000 </r>
       <r>    1.9115    1.0000 </r>
       <r>    2.2486    1.0000 </r>
       <r>    2.2486    1.0000 </r>
       <r>    2.3188    1.0000 </r>
       <r>    9.4839    0.0000 </r>
       <r>    9.4839    0.0000 </r>
       <r>   10.1333    0.0000 </r>
       <r>   10.1333    0.0000 </r>
       <r>   10.5872    0.0000 </r>
       <r>   10.5872    0.0000 </r>
       <r>   11.8686    0.0000 </r>
       <r>   11.8686    0.0000 </r>
       <r>   16.6608    0.0000 </r>
       <r>   16.6608    0.0000 </r>
       <r>   17.2616    0.0000 </r>
       <r>   17.8384    0.0000 </r>
       <r>   17.8384    0.0000 </r>
       <r>   19.2748    0.0000 </r>
       <r>   19.3966    0.0000 </r>
       <r>   19.4737    0.0000 </r>
       <r>   19.5486    0.0000 </r>
       <r>   19.9399    0.0000 </r>
       <r>   23.9762    0.0000 </r>
       <r>   23.9762    0.0000 </r>
       <r>   24.8538    0.0000 </r>
       <r>   24.8538    0.0000 </r>
       <r>   25.8110    0.0000 </r>
       <r>   25.8110    0.0000 </r>
       <r>   28.6871    0.0000 </r>
       <r>   28.6933    0.0000 </r>
      </set>
      <set comment="kpoint 6">
       <r>   -0.6763    1.0000 </r>
       <r>    0.1615    1.0000 </r>
       <r>    0.1725    1.0000 </r>
       <r>    0.1725    1.0000 </r>
       <r>    0.2100    1.0000 </r>
       <r>    0.2100    1.0000 </r>
       <r>    0.2426    1.0000 </r>
       <r>    1.0001    1.0000 </r>
       <r>    1.0765    1.0000 </r>
       <r>    1.0927    1.0000 </r>
       <r>    1.6140    1.0000 </r>
       <r>    1.6590    1.0000 </r>
       <r>    2.0145    1.0000 </r>
       <r>    2.0145    1.0000 </r>
       <r>    2.0309    1.0000 </r>
       <r>    2.0549    1.0000 </r>
       <r>    2.1214    1.0000 </r>
       <r>    2.1214    1.0000 </r>
       <r>    2.2014    1.0000 </r>
       <r>    2.2014    1.0000 </r>
       <r>    2.2151    1.0000 </r>
       <r>    6.2327   -0.0000 </r>
       <r>    6.2327   -0.0000 </r>
       <r>    7.2850   -0.0000 </r>
       <r>    9.8442    0.0000 </r>
       <r>   10.8439    0.0000 </r>
       <r>   10.8439    0.0000 </r>
       <r>   12.7016    0.0000 </r>
       <r>   13.9934    0.0000 </r>
       <r>   13.9934    0.0000 </r>
       <r>   14.0033    0.0000 </r>
       <r>   14.0033    0.0000 </r>
       <r>   14.5727    0.0000 </r>
       <r>   19.0456    0.0000 </r>
       <r>   19.5666    0.0000 </r>
       <r>   19.5666    0.0000 </r>
       <r>   19.6604    0.0000 </r>
       <r>   19.6604    0.0000 </r>
       <r>   19.8036    0.0000 </r>
       <r>   20.4240    0.0000 </r>
       <r>   20.8627    0.0000 </r>
       <r>   21.4798    0.0000 </r>
       <r>   22.3786    0.0000 </r>
       <r>   25.3661    0.0000 </r>
       <r>   26.1669    0.0000 </r>
       <r>   26.9148    0.0000 </r>
       <r>   27.7365    0.0000 </r>
       <r>   28.0918    0.0000 </r>
      </set>
      <set comment="kpoint 7">
       <r>   -0.3862    1.0000 </r>
       <r>    0.2505    1.0000 </r>
       <r>    0.2691    1.0000 </r>
       <r>    0.2798    1.0000 </r>
       <r>    0.2948    1.0000 </r>
       <r>    0.3250    1.0000 </r>
       <r>    0.3835    1.0000 </r>
       <r>    0.9306    1.0000 </r>
       <r>    1.1532    1.0000 </r>
       <r>    1.1664    1.0000 </r>
       <r>    1.5571    1.0000 </r>
       <r>    1.7010    1.0000 </r>
       <r>    1.7495    1.0000 </r>
       <r>    1.7942    1.0000 </r>
       <r>    1.8839    1.0000 </r>
       <r>    1.9325    1.0000 </r>
       <r>    1.9905    1.0000 </r>
       <r>    2.0714    1.0000 </r>
       <r>    2.0807    1.0000 </r>
       <r>    2.1991    1.0000 </r>
       <r>    2.2009    1.0000 </r>
       <r>    4.8624    1.0131 </r>
       <r>    6.7344   -0.0000 </r>
       <r>    7.8424    0.0000 </r>
       <r>    9.8917    0.0000 </r>
       <r>   10.9590    0.0000 </r>
       <r>   11.5625    0.0000 </r>
       <r>   12.7220    0.0000 </r>
       <r>   13.0254    0.0000 </r>
       <r>   13.2126    0.0000 </r>
       <r>   14.4182    0.0000 </r>
       <r>   14.4442    0.0000 </r>
       <r>   14.4617    0.0000 </r>
       <r>   19.0836    0.0000 </r>
       <r>   19.2049    0.0000 </r>
       <r>   19.6474    0.0000 </r>
       <r>   19.6748    0.0000 </r>
       <r>   19.7373    0.0000 </r>
       <r>   20.8354    0.0000 </r>
       <r>   21.0969    0.0000 </r>
       <r>   21.1862    0.0000 </r>
       <r>   22.1335    0.0000 </r>
       <r>   22.4878    0.0000 </r>
       <r>   24.5759    0.0000 </r>
       <r>   26.4664    0.0000 </r>
       <r>   26.4925    0.0000 </r>
       <r>   27.6085    0.0000 </r>
       <r>   29.3796    0.0000 </r>
      </set>
      <set comment="kpoint 8">
       <r>    0.0441    1.0000 </r>
       <r>    0.3883    1.0000 </r>
       <r>    0.4019    1.0000 </r>
       <r>    0.4038    1.0000 </r>
       <r>    0.4586    1.0000 </r>
       <r>    0.5143    1.0000 </r>
       <r>    0.5743    1.0000 </r>
       <r>    0.8137    1.0000 </r>
       <r>    1.2486    1.0000 </r>
       <r>    1.2887    1.0000 </r>
       <r>    1.3996    1.0000 </r>
       <r>    1.4454    1.0000 </r>
       <r>    1.5449    1.0000 </r>
       <r>    1.6991    1.0000 </r>
       <r>    1.7806    1.0000 </r>
       <r>    1.7970    1.0000 </r>
       <r>    1.8373    1.0000 </r>
       <r>    1.8847    1.0000 </r>
       <r>    2.0091    1.0000 </r>
       <r>    2.1967    1.0000 </r>
       <r>    2.1998    1.0000 </r>
       <r>    3.5850    1.0000 </r>
       <r>    7.4318   -0.0000 </r>
       <r>    8.6542    0.0000 </r>
       <r>    9.7786    0.0000 </r>
       <r>   10.7507    0.0000 </r>
       <r>   11.0690    0.0000 </r>
       <r>   11.8855    0.0000 </r>
       <r>   12.5954    0.0000 </r>
       <r>   13.7315    0.0000 </r>
       <r>   14.6874    0.0000 </r>
       <r>   15.1504    0.0000 </r>
       <r>   15.3511    0.0000 </r>
       <r>   18.0282    0.0000 </r>
       <r>   18.1293    0.0000 </r>
       <r>   19.8325    0.0000 </r>
       <r>   19.8741    0.0000 </r>
       <r>   20.7647    0.0000 </r>
       <r>   21.1084    0.0000 </r>
       <r>   21.2436    0.0000 </r>
       <r>   22.3386    0.0000 </r>
       <r>   22.5316    0.0000 </r>
       <r>   22.9444    0.0000 </r>
       <r>   24.3280    0.0000 </r>
       <r>   26.8383    0.0000 </r>
       <r>   27.3172    0.0000 </r>
       <r>   27.4395    0.0000 </r>
       <r>   27.8197    0.0000 </r>
      </set>
      <set comment="kpoint 9">
       <r>    0.4359    1.0000 </r>
       <r>    0.5161    1.0000 </r>
       <r>    0.5239    1.0000 </r>
       <r>    0.5616    1.0000 </r>
       <r>    0.5862    1.0000 </r>
       <r>    0.6717    1.0000 </r>
       <r>    0.7733    1.0000 </r>
       <r>    0.7886    1.0000 </r>
       <r>    1.0615    1.0000 </r>
       <r>    1.0909    1.0000 </r>
       <r>    1.3057    1.0000 </r>
       <r>    1.4675    1.0000 </r>
       <r>    1.4836    1.0000 </r>
       <r>    1.6737    1.0000 </r>
       <r>    1.6902    1.0000 </r>
       <r>    1.7061    1.0000 </r>
       <r>    1.7459    1.0000 </r>
       <r>    1.9116    1.0000 </r>
       <r>    1.9406    1.0000 </r>
       <r>    2.1973    1.0000 </r>
       <r>    2.1985    1.0000 </r>
       <r>    2.5491    1.0000 </r>
       <r>    8.2393    0.0000 </r>
       <r>    9.0930    0.0000 </r>
       <r>    9.6373    0.0000 </r>
       <r>   10.7061    0.0000 </r>
       <r>   10.7319    0.0000 </r>
       <r>   10.9587    0.0000 </r>
       <r>   12.5361    0.0000 </r>
       <r>   13.0132    0.0000 </r>
       <r>   15.8675    0.0000 </r>
       <r>   16.0534    0.0000 </r>
       <r>   16.9131    0.0000 </r>
       <r>   17.0786    0.0000 </r>
       <r>   17.3725    0.0000 </r>
       <r>   19.6891    0.0000 </r>
       <r>   20.0835    0.0000 </r>
       <r>   20.1891    0.0000 </r>
       <r>   20.3795    0.0000 </r>
       <r>   20.8460    0.0000 </r>
       <r>   22.8175    0.0000 </r>
       <r>   24.0354    0.0000 </r>
       <r>   24.1106    0.0000 </r>
       <r>   25.8771    0.0000 </r>
       <r>   26.1682    0.0000 </r>
       <r>   26.3072    0.0000 </r>
       <r>   27.7586    0.0000 </r>
       <r>   28.4406    0.0000 </r>
      </set>
      <set comment="kpoint 10">
       <r>   -0.1246    1.0000 </r>
       <r>    0.2994    1.0000 </r>
       <r>    0.3863    1.0000 </r>
       <r>    0.3863    1.0000 </r>
       <r>    0.3959    1.0000 </r>
       <r>    0.3959    1.0000 </r>
       <r>    0.5395    1.0000 </r>
       <r>    0.9126    1.0000 </r>
       <r>    1.1885    1.0000 </r>
       <r>    1.2061    1.0000 </r>
       <r>    1.5302    1.0000 </r>
       <r>    1.5855    1.0000 </r>
       <r>    1.5855    1.0000 </r>
       <r>    1.6423    1.0000 </r>
       <r>    1.7672    1.0000 </r>
       <r>    1.8509    1.0000 </r>
       <r>    1.9948    1.0000 </r>
       <r>    1.9948    1.0000 </r>
       <r>    2.0689    1.0000 </r>
       <r>    2.0689    1.0000 </r>
       <r>    2.1182    1.0000 </r>
       <r>    5.3410   -0.0001 </r>
       <r>    5.3410   -0.0001 </r>
       <r>    8.3590    0.0000 </r>
       <r>    9.6243    0.0000 </r>
       <r>   10.6171    0.0000 </r>
       <r>   12.6296    0.0000 </r>
       <r>   12.6296    0.0000 </r>
       <r>   13.4435    0.0000 </r>
       <r>   13.4435    0.0000 </r>
       <r>   13.8245    0.0000 </r>
       <r>   13.8245    0.0000 </r>
       <r>   15.4762    0.0000 </r>
       <r>   17.8776    0.0000 </r>
       <r>   18.0066    0.0000 </r>
       <r>   19.1176    0.0000 </r>
       <r>   20.9576    0.0000 </r>
       <r>   20.9576    0.0000 </r>
       <r>   21.1925    0.0000 </r>
       <r>   21.1925    0.0000 </r>
       <r>   21.8463    0.0000 </r>
       <r>   23.3482    0.0000 </r>
       <r>   23.5983    0.0000 </r>
       <r>   24.2183    0.0000 </r>
       <r>   25.4291    0.0000 </r>
       <r>   26.2515    0.0000 </r>
       <r>   28.2481    0.0000 </r>
       <r>   28.6858    0.0000 </r>
      </set>
      <set comment="kpoint 11">
       <r>    0.2497    1.0000 </r>
       <r>    0.4164    1.0000 </r>
       <r>    0.4811    1.0000 </r>
       <r>    0.5404    1.0000 </r>
       <r>    0.5607    1.0000 </r>
       <r>    0.5663    1.0000 </r>
       <r>    0.7243    1.0000 </r>
       <r>    0.8368    1.0000 </r>
       <r>    1.2203    1.0000 </r>
       <r>    1.2588    1.0000 </r>
       <r>    1.2985    1.0000 </r>
       <r>    1.3793    1.0000 </r>
       <r>    1.3929    1.0000 </r>
       <r>    1.5273    1.0000 </r>
       <r>    1.7370    1.0000 </r>
       <r>    1.8505    1.0000 </r>
       <r>    1.8809    1.0000 </r>
       <r>    1.9423    1.0000 </r>
       <r>    1.9479    1.0000 </r>
       <r>    2.0658    1.0000 </r>
       <r>    2.0772    1.0000 </r>
       <r>    4.0674    1.0000 </r>
       <r>    6.0007   -0.0000 </r>
       <r>    8.6894    0.0000 </r>
       <r>    9.1286    0.0000 </r>
       <r>   10.5943    0.0000 </r>
       <r>   12.0964    0.0000 </r>
       <r>   12.2945    0.0000 </r>
       <r>   13.7643    0.0000 </r>
       <r>   13.8137    0.0000 </r>
       <r>   14.0959    0.0000 </r>
       <r>   15.4215    0.0000 </r>
       <r>   15.4733    0.0000 </r>
       <r>   16.6716    0.0000 </r>
       <r>   16.9309    0.0000 </r>
       <r>   19.8946    0.0000 </r>
       <r>   21.1640    0.0000 </r>
       <r>   21.4033    0.0000 </r>
       <r>   21.9987    0.0000 </r>
       <r>   22.0058    0.0000 </r>
       <r>   22.4909    0.0000 </r>
       <r>   22.8500    0.0000 </r>
       <r>   23.3052    0.0000 </r>
       <r>   25.1919    0.0000 </r>
       <r>   26.0914    0.0000 </r>
       <r>   26.6988    0.0000 </r>
       <r>   26.8704    0.0000 </r>
       <r>   27.8418    0.0000 </r>
      </set>
      <set comment="kpoint 12">
       <r>    0.5845    1.0000 </r>
       <r>    0.5907    1.0000 </r>
       <r>    0.5985    1.0000 </r>
       <r>    0.6684    1.0000 </r>
       <r>    0.6844    1.0000 </r>
       <r>    0.7234    1.0000 </r>
       <r>    0.7961    1.0000 </r>
       <r>    0.8727    1.0000 </r>
       <r>    0.9936    1.0000 </r>
       <r>    1.0785    1.0000 </r>
       <r>    1.1535    1.0000 </r>
       <r>    1.2077    1.0000 </r>
       <r>    1.4672    1.0000 </r>
       <r>    1.6557    1.0000 </r>
       <r>    1.6698    1.0000 </r>
       <r>    1.6700    1.0000 </r>
       <r>    1.7042    1.0000 </r>
       <r>    1.8322    1.0000 </r>
       <r>    2.0633    1.0000 </r>
       <r>    2.0647    1.0000 </r>
       <r>    2.3194    1.0000 </r>
       <r>    3.0296    1.0000 </r>
       <r>    6.7866   -0.0000 </r>
       <r>    7.6864   -0.0000 </r>
       <r>   10.0777    0.0000 </r>
       <r>   10.9256    0.0000 </r>
       <r>   11.1499    0.0000 </r>
       <r>   11.4446    0.0000 </r>
       <r>   14.2468    0.0000 </r>
       <r>   14.6368    0.0000 </r>
       <r>   14.8682    0.0000 </r>
       <r>   14.9302    0.0000 </r>
       <r>   15.5932    0.0000 </r>
       <r>   15.8918    0.0000 </r>
       <r>   17.5941    0.0000 </r>
       <r>   19.8799    0.0000 </r>
       <r>   21.4486    0.0000 </r>
       <r>   21.4944    0.0000 </r>
       <r>   21.7722    0.0000 </r>
       <r>   21.7896    0.0000 </r>
       <r>   22.4128    0.0000 </r>
       <r>   23.0441    0.0000 </r>
       <r>   24.2094    0.0000 </r>
       <r>   26.0595    0.0000 </r>
       <r>   26.0716    0.0000 </r>
       <r>   26.7910    0.0000 </r>
       <r>   26.9577    0.0000 </r>
       <r>   27.7760    0.0000 </r>
      </set>
      <set comment="kpoint 13">
       <r>    0.4876    1.0000 </r>
       <r>    0.5121    1.0000 </r>
       <r>    0.6303    1.0000 </r>
       <r>    0.6303    1.0000 </r>
       <r>    0.7272    1.0000 </r>
       <r>    0.7272    1.0000 </r>
       <r>    0.8352    1.0000 </r>
       <r>    0.8982    1.0000 </r>
       <r>    1.0987    1.0000 </r>
       <r>    1.0987    1.0000 </r>
       <r>    1.2375    1.0000 </r>
       <r>    1.2422    1.0000 </r>
       <r>    1.3578    1.0000 </r>
       <r>    1.4489    1.0000 </r>
       <r>    1.6456    1.0000 </r>
       <r>    1.8079    1.0000 </r>
       <r>    1.8079    1.0000 </r>
       <r>    1.8777    1.0000 </r>
       <r>    1.8777    1.0000 </r>
       <r>    1.9658    1.0000 </r>
       <r>    2.2879    1.0000 </r>
       <r>    4.7126    1.0000 </r>
       <r>    4.7126    1.0000 </r>
       <r>    7.4802   -0.0000 </r>
       <r>    9.8505    0.0000 </r>
       <r>   10.8486    0.0000 </r>
       <r>   12.7690    0.0000 </r>
       <r>   12.7690    0.0000 </r>
       <r>   12.9337    0.0000 </r>
       <r>   12.9337    0.0000 </r>
       <r>   15.4554    0.0000 </r>
       <r>   15.7736    0.0000 </r>
       <r>   15.7736    0.0000 </r>
       <r>   15.7862    0.0000 </r>
       <r>   16.8663    0.0000 </r>
       <r>   19.3197    0.0000 </r>
       <r>   21.8955    0.0000 </r>
       <r>   22.7271    0.0000 </r>
       <r>   22.7271    0.0000 </r>
       <r>   22.7358    0.0000 </r>
       <r>   22.7358    0.0000 </r>
       <r>   22.9318    0.0000 </r>
       <r>   22.9556    0.0000 </r>
       <r>   25.0074    0.0000 </r>
       <r>   26.3754    0.0000 </r>
       <r>   26.3754    0.0000 </r>
       <r>   26.4507    0.0000 </r>
       <r>   27.9515    0.0000 </r>
      </set>
      <set comment="kpoint 14">
       <r>    0.6174    1.0000 </r>
       <r>    0.7119    1.0000 </r>
       <r>    0.7359    1.0000 </r>
       <r>    0.7881    1.0000 </r>
       <r>    0.7891    1.0000 </r>
       <r>    0.8249    1.0000 </r>
       <r>    0.8710    1.0000 </r>
       <r>    0.9705    1.0000 </r>
       <r>    0.9857    1.0000 </r>
       <r>    1.0147    1.0000 </r>
       <r>    1.0422    1.0000 </r>
       <r>    1.1366    1.0000 </r>
       <r>    1.4888    1.0000 </r>
       <r>    1.5330    1.0000 </r>
       <r>    1.5816    1.0000 </r>
       <r>    1.6546    1.0000 </r>
       <r>    1.6732    1.0000 </r>
       <r>    1.6953    1.0000 </r>
       <r>    1.8814    1.0000 </r>
       <r>    1.9040    1.0000 </r>
       <r>    2.8319    1.0000 </r>
       <r>    3.6417    1.0000 </r>
       <r>    5.4898   -0.0000 </r>
       <r>    6.4079   -0.0000 </r>
       <r>   10.7586    0.0000 </r>
       <r>   11.2961    0.0000 </r>
       <r>   11.8016    0.0000 </r>
       <r>   11.9349    0.0000 </r>
       <r>   13.5115    0.0000 </r>
       <r>   13.7566    0.0000 </r>
       <r>   14.4025    0.0000 </r>
       <r>   14.7193    0.0000 </r>
       <r>   16.2900    0.0000 </r>
       <r>   16.8681    0.0000 </r>
       <r>   17.9573    0.0000 </r>
       <r>   20.1842    0.0000 </r>
       <r>   20.3777    0.0000 </r>
       <r>   22.0727    0.0000 </r>
       <r>   22.5516    0.0000 </r>
       <r>   22.6127    0.0000 </r>
       <r>   23.0347    0.0000 </r>
       <r>   23.2402    0.0000 </r>
       <r>   24.4773    0.0000 </r>
       <r>   25.6814    0.0000 </r>
       <r>   26.0205    0.0000 </r>
       <r>   26.3619    0.0000 </r>
       <r>   27.0866    0.0000 </r>
       <r>   27.1615    0.0000 </r>
      </set>
      <set comment="kpoint 15">
       <r>    0.6809    1.0000 </r>
       <r>    0.7760    1.0000 </r>
       <r>    0.7923    1.0000 </r>
       <r>    0.7923    1.0000 </r>
       <r>    0.8351    1.0000 </r>
       <r>    0.8445    1.0000 </r>
       <r>    0.8445    1.0000 </r>
       <r>    0.9640    1.0000 </r>
       <r>    1.1003    1.0000 </r>
       <r>    1.1003    1.0000 </r>
       <r>    1.1524    1.0000 </r>
       <r>    1.2254    1.0000 </r>
       <r>    1.4241    1.0000 </r>
       <r>    1.4898    1.0000 </r>
       <r>    1.5394    1.0000 </r>
       <r>    1.5394    1.0000 </r>
       <r>    1.5615    1.0000 </r>
       <r>    1.6997    1.0000 </r>
       <r>    1.6997    1.0000 </r>
       <r>    1.7729    1.0000 </r>
       <r>    3.5100    1.0000 </r>
       <r>    4.3924    1.0000 </r>
       <r>    4.3924    1.0000 </r>
       <r>    5.3085   -0.0006 </r>
       <r>   11.6280    0.0000 </r>
       <r>   11.8402    0.0000 </r>
       <r>   12.5754    0.0000 </r>
       <r>   12.5754    0.0000 </r>
       <r>   12.6405    0.0000 </r>
       <r>   12.6405    0.0000 </r>
       <r>   13.3949    0.0000 </r>
       <r>   13.6247    0.0000 </r>
       <r>   18.4612    0.0000 </r>
       <r>   18.4612    0.0000 </r>
       <r>   18.6346    0.0000 </r>
       <r>   19.7749    0.0000 </r>
       <r>   20.6073    0.0000 </r>
       <r>   20.6887    0.0000 </r>
       <r>   21.2665    0.0000 </r>
       <r>   21.2665    0.0000 </r>
       <r>   24.4580    0.0000 </r>
       <r>   24.7330    0.0000 </r>
       <r>   24.7330    0.0000 </r>
       <r>   26.2726    0.0000 </r>
       <r>   26.8338    0.0000 </r>
       <r>   26.9922    0.0000 </r>
       <r>   27.4225    0.0000 </r>
       <r>   27.4461    0.0000 </r>
      </set>
      <set comment="kpoint 16">
       <r>   -0.5797    1.0000 </r>
       <r>    0.1914    1.0000 </r>
       <r>    0.1914    1.0000 </r>
       <r>    0.1914    1.0000 </r>
       <r>    0.2704    1.0000 </r>
       <r>    0.2704    1.0000 </r>
       <r>    0.2704    1.0000 </r>
       <r>    1.0017    1.0000 </r>
       <r>    1.0975    1.0000 </r>
       <r>    1.0975    1.0000 </r>
       <r>    1.6337    1.0000 </r>
       <r>    1.6337    1.0000 </r>
       <r>    1.9893    1.0000 </r>
       <r>    1.9893    1.0000 </r>
       <r>    1.9893    1.0000 </r>
       <r>    2.0045    1.0000 </r>
       <r>    2.0045    1.0000 </r>
       <r>    2.0045    1.0000 </r>
       <r>    2.2015    1.0000 </r>
       <r>    2.2015    1.0000 </r>
       <r>    2.2015    1.0000 </r>
       <r>    6.4115   -0.0000 </r>
       <r>    6.4115   -0.0000 </r>
       <r>    6.4115   -0.0000 </r>
       <r>   10.8705    0.0000 </r>
       <r>   10.8705    0.0000 </r>
       <r>   10.8705    0.0000 </r>
       <r>   12.8665    0.0000 </r>
       <r>   12.8665    0.0000 </r>
       <r>   12.8665    0.0000 </r>
       <r>   14.7303    0.0000 </r>
       <r>   14.7303    0.0000 </r>
       <r>   14.7303    0.0000 </r>
       <r>   18.9405    0.0000 </r>
       <r>   19.0557    0.0000 </r>
       <r>   19.0557    0.0000 </r>
       <r>   19.0557    0.0000 </r>
       <r>   20.6553    0.0000 </r>
       <r>   20.9011    0.0000 </r>
       <r>   20.9011    0.0000 </r>
       <r>   20.9011    0.0000 </r>
       <r>   21.8509    0.0000 </r>
       <r>   21.8509    0.0000 </r>
       <r>   25.3957    0.0000 </r>
       <r>   26.2870    0.0000 </r>
       <r>   26.2870    0.0000 </r>
       <r>   28.3148    0.0000 </r>
       <r>   28.3148    0.0000 </r>
      </set>
      <set comment="kpoint 17">
       <r>   -0.3024    1.0000 </r>
       <r>    0.2703    1.0000 </r>
       <r>    0.2764    1.0000 </r>
       <r>    0.2764    1.0000 </r>
       <r>    0.3558    1.0000 </r>
       <r>    0.4127    1.0000 </r>
       <r>    0.4127    1.0000 </r>
       <r>    0.9520    1.0000 </r>
       <r>    1.1599    1.0000 </r>
       <r>    1.1627    1.0000 </r>
       <r>    1.5792    1.0000 </r>
       <r>    1.6898    1.0000 </r>
       <r>    1.7253    1.0000 </r>
       <r>    1.7253    1.0000 </r>
       <r>    1.8628    1.0000 </r>
       <r>    1.8788    1.0000 </r>
       <r>    1.9183    1.0000 </r>
       <r>    1.9183    1.0000 </r>
       <r>    2.1570    1.0000 </r>
       <r>    2.1843    1.0000 </r>
       <r>    2.1843    1.0000 </r>
       <r>    5.0324    0.6133 </r>
       <r>    6.8922   -0.0000 </r>
       <r>    6.8922   -0.0000 </r>
       <r>   10.8352    0.0000 </r>
       <r>   10.8352    0.0000 </r>
       <r>   11.8725    0.0000 </r>
       <r>   11.8725    0.0000 </r>
       <r>   12.5865    0.0000 </r>
       <r>   13.4695    0.0000 </r>
       <r>   14.5581    0.0000 </r>
       <r>   14.5581    0.0000 </r>
       <r>   15.1926    0.0000 </r>
       <r>   17.7670    0.0000 </r>
       <r>   19.0947    0.0000 </r>
       <r>   19.6941    0.0000 </r>
       <r>   19.6941    0.0000 </r>
       <r>   20.3653    0.0000 </r>
       <r>   20.6864    0.0000 </r>
       <r>   21.0247    0.0000 </r>
       <r>   22.4824    0.0000 </r>
       <r>   22.5309    0.0000 </r>
       <r>   22.5309    0.0000 </r>
       <r>   24.3108    0.0000 </r>
       <r>   26.6357    0.0000 </r>
       <r>   26.6484    0.0000 </r>
       <r>   26.9982    0.0000 </r>
       <r>   29.4341    0.0000 </r>
      </set>
      <set comment="kpoint 18">
       <r>    0.0988    1.0000 </r>
       <r>    0.3748    1.0000 </r>
       <r>    0.4263    1.0000 </r>
       <r>    0.4263    1.0000 </r>
       <r>    0.4916    1.0000 </r>
       <r>    0.5980    1.0000 </r>
       <r>    0.5980    1.0000 </r>
       <r>    0.8539    1.0000 </r>
       <r>    1.2319    1.0000 </r>
       <r>    1.2618    1.0000 </r>
       <r>    1.3921    1.0000 </r>
       <r>    1.3921    1.0000 </r>
       <r>    1.6195    1.0000 </r>
       <r>    1.6552    1.0000 </r>
       <r>    1.7263    1.0000 </r>
       <r>    1.7748    1.0000 </r>
       <r>    1.7947    1.0000 </r>
       <r>    1.7947    1.0000 </r>
       <r>    2.0817    1.0000 </r>
       <r>    2.1703    1.0000 </r>
       <r>    2.1703    1.0000 </r>
       <r>    3.7533    1.0000 </r>
       <r>    7.5712   -0.0000 </r>
       <r>    7.5712   -0.0000 </r>
       <r>   10.1997    0.0000 </r>
       <r>   10.1997    0.0000 </r>
       <r>   11.6889    0.0000 </r>
       <r>   11.6889    0.0000 </r>
       <r>   13.6889    0.0000 </r>
       <r>   13.8640    0.0000 </r>
       <r>   13.8640    0.0000 </r>
       <r>   15.1761    0.0000 </r>
       <r>   15.9307    0.0000 </r>
       <r>   16.6227    0.0000 </r>
       <r>   19.1852    0.0000 </r>
       <r>   19.3582    0.0000 </r>
       <r>   19.9527    0.0000 </r>
       <r>   21.1226    0.0000 </r>
       <r>   21.1226    0.0000 </r>
       <r>   21.2541    0.0000 </r>
       <r>   22.0807    0.0000 </r>
       <r>   22.7158    0.0000 </r>
       <r>   24.3304    0.0000 </r>
       <r>   24.3304    0.0000 </r>
       <r>   26.5735    0.0000 </r>
       <r>   27.2363    0.0000 </r>
       <r>   27.5117    0.0000 </r>
       <r>   27.5117    0.0000 </r>
      </set>
      <set comment="kpoint 19">
       <r>    0.4391    1.0000 </r>
       <r>    0.4747    1.0000 </r>
       <r>    0.5929    1.0000 </r>
       <r>    0.5929    1.0000 </r>
       <r>    0.6385    1.0000 </r>
       <r>    0.7467    1.0000 </r>
       <r>    0.7755    1.0000 </r>
       <r>    0.7755    1.0000 </r>
       <r>    1.0886    1.0000 </r>
       <r>    1.0886    1.0000 </r>
       <r>    1.2513    1.0000 </r>
       <r>    1.3982    1.0000 </r>
       <r>    1.4175    1.0000 </r>
       <r>    1.5585    1.0000 </r>
       <r>    1.6819    1.0000 </r>
       <r>    1.6819    1.0000 </r>
       <r>    1.8774    1.0000 </r>
       <r>    1.9746    1.0000 </r>
       <r>    1.9843    1.0000 </r>
       <r>    2.1643    1.0000 </r>
       <r>    2.1643    1.0000 </r>
       <r>    2.7017    1.0000 </r>
       <r>    8.3660    0.0000 </r>
       <r>    8.3660    0.0000 </r>
       <r>    9.2812    0.0000 </r>
       <r>    9.2812    0.0000 </r>
       <r>   11.9653    0.0000 </r>
       <r>   11.9653    0.0000 </r>
       <r>   13.2221    0.0000 </r>
       <r>   13.2221    0.0000 </r>
       <r>   14.5729    0.0000 </r>
       <r>   15.5513    0.0000 </r>
       <r>   16.9047    0.0000 </r>
       <r>   17.4304    0.0000 </r>
       <r>   18.0669    0.0000 </r>
       <r>   19.3586    0.0000 </r>
       <r>   19.5198    0.0000 </r>
       <r>   19.9180    0.0000 </r>
       <r>   21.6122    0.0000 </r>
       <r>   22.1015    0.0000 </r>
       <r>   22.7079    0.0000 </r>
       <r>   22.7079    0.0000 </r>
       <r>   25.1592    0.0000 </r>
       <r>   25.1592    0.0000 </r>
       <r>   26.8075    0.0000 </r>
       <r>   26.8075    0.0000 </r>
       <r>   27.4704    0.0000 </r>
       <r>   28.0157    0.0000 </r>
      </set>
      <set comment="kpoint 20">
       <r>   -0.0708    1.0000 </r>
       <r>    0.3177    1.0000 </r>
       <r>    0.3427    1.0000 </r>
       <r>    0.3427    1.0000 </r>
       <r>    0.5026    1.0000 </r>
       <r>    0.5026    1.0000 </r>
       <r>    0.5685    1.0000 </r>
       <r>    0.9804    1.0000 </r>
       <r>    1.1767    1.0000 </r>
       <r>    1.1957    1.0000 </r>
       <r>    1.5735    1.0000 </r>
       <r>    1.5735    1.0000 </r>
       <r>    1.5772    1.0000 </r>
       <r>    1.6015    1.0000 </r>
       <r>    1.7412    1.0000 </r>
       <r>    1.7851    1.0000 </r>
       <r>    1.8331    1.0000 </r>
       <r>    1.8331    1.0000 </r>
       <r>    2.1432    1.0000 </r>
       <r>    2.1465    1.0000 </r>
       <r>    2.1465    1.0000 </r>
       <r>    5.4838   -0.0000 </r>
       <r>    5.4838   -0.0000 </r>
       <r>    7.3277   -0.0000 </r>
       <r>    9.9706    0.0000 </r>
       <r>   11.5979    0.0000 </r>
       <r>   11.7230    0.0000 </r>
       <r>   11.7230    0.0000 </r>
       <r>   13.2856    0.0000 </r>
       <r>   13.2856    0.0000 </r>
       <r>   14.9716    0.0000 </r>
       <r>   14.9716    0.0000 </r>
       <r>   15.6147    0.0000 </r>
       <r>   16.4657    0.0000 </r>
       <r>   19.1221    0.0000 </r>
       <r>   19.4814    0.0000 </r>
       <r>   19.7628    0.0000 </r>
       <r>   19.7628    0.0000 </r>
       <r>   21.4556    0.0000 </r>
       <r>   22.6554    0.0000 </r>
       <r>   22.6676    0.0000 </r>
       <r>   22.6676    0.0000 </r>
       <r>   24.0917    0.0000 </r>
       <r>   24.2677    0.0000 </r>
       <r>   25.3099    0.0000 </r>
       <r>   27.2258    0.0000 </r>
       <r>   27.2289    0.0000 </r>
       <r>   28.7548    0.0000 </r>
      </set>
      <set comment="kpoint 21">
       <r>    0.2343    1.0000 </r>
       <r>    0.4253    1.0000 </r>
       <r>    0.4273    1.0000 </r>
       <r>    0.4825    1.0000 </r>
       <r>    0.6489    1.0000 </r>
       <r>    0.6764    1.0000 </r>
       <r>    0.7408    1.0000 </r>
       <r>    0.9588    1.0000 </r>
       <r>    1.2164    1.0000 </r>
       <r>    1.2477    1.0000 </r>
       <r>    1.2741    1.0000 </r>
       <r>    1.3590    1.0000 </r>
       <r>    1.3886    1.0000 </r>
       <r>    1.6253    1.0000 </r>
       <r>    1.6828    1.0000 </r>
       <r>    1.6848    1.0000 </r>
       <r>    1.7488    1.0000 </r>
       <r>    1.9187    1.0000 </r>
       <r>    2.0798    1.0000 </r>
       <r>    2.1006    1.0000 </r>
       <r>    2.1064    1.0000 </r>
       <r>    4.1924    1.0000 </r>
       <r>    6.1228   -0.0000 </r>
       <r>    7.9643    0.0000 </r>
       <r>    8.8370    0.0000 </r>
       <r>   10.6365    0.0000 </r>
       <r>   11.8918    0.0000 </r>
       <r>   12.4139    0.0000 </r>
       <r>   13.4358    0.0000 </r>
       <r>   14.3350    0.0000 </r>
       <r>   15.2563    0.0000 </r>
       <r>   15.2683    0.0000 </r>
       <r>   15.5872    0.0000 </r>
       <r>   15.7074    0.0000 </r>
       <r>   18.4240    0.0000 </r>
       <r>   19.8992    0.0000 </r>
       <r>   19.9126    0.0000 </r>
       <r>   21.0443    0.0000 </r>
       <r>   21.1708    0.0000 </r>
       <r>   22.3815    0.0000 </r>
       <r>   22.9113    0.0000 </r>
       <r>   23.4667    0.0000 </r>
       <r>   24.3342    0.0000 </r>
       <r>   25.3126    0.0000 </r>
       <r>   26.0998    0.0000 </r>
       <r>   26.9493    0.0000 </r>
       <r>   27.0119    0.0000 </r>
       <r>   27.7294    0.0000 </r>
      </set>
      <set comment="kpoint 22">
       <r>    0.4591    1.0000 </r>
       <r>    0.4916    1.0000 </r>
       <r>    0.5923    1.0000 </r>
       <r>    0.6671    1.0000 </r>
       <r>    0.7456    1.0000 </r>
       <r>    0.8135    1.0000 </r>
       <r>    0.8212    1.0000 </r>
       <r>    0.9307    1.0000 </r>
       <r>    1.1012    1.0000 </r>
       <r>    1.1415    1.0000 </r>
       <r>    1.1532    1.0000 </r>
       <r>    1.2075    1.0000 </r>
       <r>    1.3611    1.0000 </r>
       <r>    1.5129    1.0000 </r>
       <r>    1.6087    1.0000 </r>
       <r>    1.6406    1.0000 </r>
       <r>    1.8186    1.0000 </r>
       <r>    1.9735    1.0000 </r>
       <r>    2.0778    1.0000 </r>
       <r>    2.0799    1.0000 </r>
       <r>    2.3327    1.0000 </r>
       <r>    3.1161    1.0000 </r>
       <r>    6.8992   -0.0000 </r>
       <r>    7.8027    0.0000 </r>
       <r>    8.7419    0.0000 </r>
       <r>    9.6340    0.0000 </r>
       <r>   12.4058    0.0000 </r>
       <r>   13.0545    0.0000 </r>
       <r>   13.2315    0.0000 </r>
       <r>   14.1871    0.0000 </r>
       <r>   14.3857    0.0000 </r>
       <r>   14.9701    0.0000 </r>
       <r>   16.3900    0.0000 </r>
       <r>   17.3766    0.0000 </r>
       <r>   17.6515    0.0000 </r>
       <r>   19.8646    0.0000 </r>
       <r>   20.1936    0.0000 </r>
       <r>   20.7271    0.0000 </r>
       <r>   21.4269    0.0000 </r>
       <r>   22.3208    0.0000 </r>
       <r>   23.2564    0.0000 </r>
       <r>   23.5935    0.0000 </r>
       <r>   24.6467    0.0000 </r>
       <r>   25.6695    0.0000 </r>
       <r>   26.0434    0.0000 </r>
       <r>   26.9956    0.0000 </r>
       <r>   27.2920    0.0000 </r>
       <r>   27.5292    0.0000 </r>
      </set>
      <set comment="kpoint 23">
       <r>    0.3832    1.0000 </r>
       <r>    0.4816    1.0000 </r>
       <r>    0.5330    1.0000 </r>
       <r>    0.5330    1.0000 </r>
       <r>    0.8155    1.0000 </r>
       <r>    0.8155    1.0000 </r>
       <r>    0.8760    1.0000 </r>
       <r>    1.0248    1.0000 </r>
       <r>    1.1523    1.0000 </r>
       <r>    1.1523    1.0000 </r>
       <r>    1.2564    1.0000 </r>
       <r>    1.2872    1.0000 </r>
       <r>    1.2900    1.0000 </r>
       <r>    1.5675    1.0000 </r>
       <r>    1.5759    1.0000 </r>
       <r>    1.6336    1.0000 </r>
       <r>    1.6336    1.0000 </r>
       <r>    2.0190    1.0000 </r>
       <r>    2.0190    1.0000 </r>
       <r>    2.0218    1.0000 </r>
       <r>    2.2688    1.0000 </r>
       <r>    4.8119    1.0023 </r>
       <r>    4.8119    1.0023 </r>
       <r>    7.5848   -0.0000 </r>
       <r>    8.5600    0.0000 </r>
       <r>   11.2405    0.0000 </r>
       <r>   11.2405    0.0000 </r>
       <r>   12.2999    0.0000 </r>
       <r>   14.0433    0.0000 </r>
       <r>   14.5699    0.0000 </r>
       <r>   14.5699    0.0000 </r>
       <r>   15.8593    0.0000 </r>
       <r>   15.8593    0.0000 </r>
       <r>   16.9748    0.0000 </r>
       <r>   17.3052    0.0000 </r>
       <r>   19.3088    0.0000 </r>
       <r>   21.2696    0.0000 </r>
       <r>   21.2696    0.0000 </r>
       <r>   21.3872    0.0000 </r>
       <r>   22.6544    0.0000 </r>
       <r>   23.5051    0.0000 </r>
       <r>   24.3168    0.0000 </r>
       <r>   24.3168    0.0000 </r>
       <r>   24.4769    0.0000 </r>
       <r>   26.4849    0.0000 </r>
       <r>   26.4849    0.0000 </r>
       <r>   27.4295    0.0000 </r>
       <r>   27.7930    0.0000 </r>
      </set>
      <set comment="kpoint 24">
       <r>    0.4942    1.0000 </r>
       <r>    0.5449    1.0000 </r>
       <r>    0.5837    1.0000 </r>
       <r>    0.6484    1.0000 </r>
       <r>    0.8171    1.0000 </r>
       <r>    0.8783    1.0000 </r>
       <r>    0.9815    1.0000 </r>
       <r>    1.0238    1.0000 </r>
       <r>    1.0839    1.0000 </r>
       <r>    1.1546    1.0000 </r>
       <r>    1.1959    1.0000 </r>
       <r>    1.2401    1.0000 </r>
       <r>    1.3552    1.0000 </r>
       <r>    1.4856    1.0000 </r>
       <r>    1.5012    1.0000 </r>
       <r>    1.5515    1.0000 </r>
       <r>    1.7147    1.0000 </r>
       <r>    1.8920    1.0000 </r>
       <r>    1.9659    1.0000 </r>
       <r>    1.9665    1.0000 </r>
       <r>    2.8490    1.0000 </r>
       <r>    3.7059    1.0000 </r>
       <r>    5.5791   -0.0000 </r>
       <r>    6.4991   -0.0000 </r>
       <r>    9.3130    0.0000 </r>
       <r>   10.2064    0.0000 </r>
       <r>   12.0202    0.0000 </r>
       <r>   12.8984    0.0000 </r>
       <r>   12.9583    0.0000 </r>
       <r>   13.6740    0.0000 </r>
       <r>   15.3703    0.0000 </r>
       <r>   16.2796    0.0000 </r>
       <r>   16.3622    0.0000 </r>
       <r>   16.9475    0.0000 </r>
       <r>   18.0050    0.0000 </r>
       <r>   20.1493    0.0000 </r>
       <r>   20.3370    0.0000 </r>
       <r>   21.4456    0.0000 </r>
       <r>   21.7075    0.0000 </r>
       <r>   21.7628    0.0000 </r>
       <r>   23.9949    0.0000 </r>
       <r>   24.2257    0.0000 </r>
       <r>   24.5589    0.0000 </r>
       <r>   25.3458    0.0000 </r>
       <r>   26.0402    0.0000 </r>
       <r>   26.1261    0.0000 </r>
       <r>   27.5010    0.0000 </r>
       <r>   27.6292    0.0000 </r>
      </set>
      <set comment="kpoint 25">
       <r>    0.5362    1.0000 </r>
       <r>    0.5874    1.0000 </r>
       <r>    0.5874    1.0000 </r>
       <r>    0.5880    1.0000 </r>
       <r>    0.9076    1.0000 </r>
       <r>    0.9185    1.0000 </r>
       <r>    0.9185    1.0000 </r>
       <r>    0.9829    1.0000 </r>
       <r>    1.2505    1.0000 </r>
       <r>    1.2505    1.0000 </r>
       <r>    1.3079    1.0000 </r>
       <r>    1.3367    1.0000 </r>
       <r>    1.3837    1.0000 </r>
       <r>    1.3998    1.0000 </r>
       <r>    1.4432    1.0000 </r>
       <r>    1.4432    1.0000 </r>
       <r>    1.6905    1.0000 </r>
       <r>    1.8244    1.0000 </r>
       <r>    1.8244    1.0000 </r>
       <r>    1.8595    1.0000 </r>
       <r>    3.5461    1.0000 </r>
       <r>    4.4553    1.0000 </r>
       <r>    4.4553    1.0000 </r>
       <r>    5.3820   -0.0000 </r>
       <r>   10.0584    0.0000 </r>
       <r>   10.9615    0.0000 </r>
       <r>   10.9615    0.0000 </r>
       <r>   11.8813    0.0000 </r>
       <r>   13.5596    0.0000 </r>
       <r>   14.3934    0.0000 </r>
       <r>   14.3934    0.0000 </r>
       <r>   15.2666    0.0000 </r>
       <r>   18.4996    0.0000 </r>
       <r>   18.4996    0.0000 </r>
       <r>   18.6989    0.0000 </r>
       <r>   19.7284    0.0000 </r>
       <r>   20.4701    0.0000 </r>
       <r>   20.6756    0.0000 </r>
       <r>   21.0787    0.0000 </r>
       <r>   21.0787    0.0000 </r>
       <r>   24.5378    0.0000 </r>
       <r>   24.6915    0.0000 </r>
       <r>   24.6915    0.0000 </r>
       <r>   25.6835    0.0000 </r>
       <r>   26.1231    0.0000 </r>
       <r>   26.8728    0.0000 </r>
       <r>   26.9406    0.0000 </r>
       <r>   26.9406    0.0000 </r>
      </set>
      <set comment="kpoint 26">
       <r>    0.0654    1.0000 </r>
       <r>    0.3614    1.0000 </r>
       <r>    0.3614    1.0000 </r>
       <r>    0.3614    1.0000 </r>
       <r>    0.6577    1.0000 </r>
       <r>    0.6577    1.0000 </r>
       <r>    0.6577    1.0000 </r>
       <r>    1.1667    1.0000 </r>
       <r>    1.1667    1.0000 </r>
       <r>    1.1842    1.0000 </r>
       <r>    1.4931    1.0000 </r>
       <r>    1.4931    1.0000 </r>
       <r>    1.4931    1.0000 </r>
       <r>    1.6473    1.0000 </r>
       <r>    1.6473    1.0000 </r>
       <r>    1.6473    1.0000 </r>
       <r>    1.6890    1.0000 </r>
       <r>    1.6890    1.0000 </r>
       <r>    2.1654    1.0000 </r>
       <r>    2.1654    1.0000 </r>
       <r>    2.1654    1.0000 </r>
       <r>    5.8798   -0.0000 </r>
       <r>    5.8798   -0.0000 </r>
       <r>    5.8798   -0.0000 </r>
       <r>   10.4077    0.0000 </r>
       <r>   10.4077    0.0000 </r>
       <r>   10.4077    0.0000 </r>
       <r>   13.4809    0.0000 </r>
       <r>   13.4809    0.0000 </r>
       <r>   13.4809    0.0000 </r>
       <r>   15.1046    0.0000 </r>
       <r>   16.0248    0.0000 </r>
       <r>   16.0248    0.0000 </r>
       <r>   16.0248    0.0000 </r>
       <r>   19.1465    0.0000 </r>
       <r>   19.1465    0.0000 </r>
       <r>   19.1465    0.0000 </r>
       <r>   20.4911    0.0000 </r>
       <r>   21.3305    0.0000 </r>
       <r>   21.3305    0.0000 </r>
       <r>   24.4211    0.0000 </r>
       <r>   24.4211    0.0000 </r>
       <r>   24.4211    0.0000 </r>
       <r>   24.8071    0.0000 </r>
       <r>   25.5103    0.0000 </r>
       <r>   25.5103    0.0000 </r>
       <r>   28.7955    0.0000 </r>
       <r>   28.7966    0.0000 </r>
      </set>
      <set comment="kpoint 27">
       <r>    0.2246    1.0000 </r>
       <r>    0.4029    1.0000 </r>
       <r>    0.4418    1.0000 </r>
       <r>    0.4418    1.0000 </r>
       <r>    0.7956    1.0000 </r>
       <r>    0.7956    1.0000 </r>
       <r>    0.8029    1.0000 </r>
       <r>    1.1373    1.0000 </r>
       <r>    1.1884    1.0000 </r>
       <r>    1.3192    1.0000 </r>
       <r>    1.3192    1.0000 </r>
       <r>    1.3336    1.0000 </r>
       <r>    1.3551    1.0000 </r>
       <r>    1.4954    1.0000 </r>
       <r>    1.5693    1.0000 </r>
       <r>    1.5693    1.0000 </r>
       <r>    1.8257    1.0000 </r>
       <r>    1.8514    1.0000 </r>
       <r>    2.1302    1.0000 </r>
       <r>    2.1302    1.0000 </r>
       <r>    2.1430    1.0000 </r>
       <r>    4.5501    1.0000 </r>
       <r>    6.4676   -0.0000 </r>
       <r>    6.4676   -0.0000 </r>
       <r>    9.2058    0.0000 </r>
       <r>    9.2058    0.0000 </r>
       <r>   11.0258    0.0000 </r>
       <r>   13.8448    0.0000 </r>
       <r>   13.8448    0.0000 </r>
       <r>   13.8724    0.0000 </r>
       <r>   15.6008    0.0000 </r>
       <r>   15.9261    0.0000 </r>
       <r>   15.9261    0.0000 </r>
       <r>   16.6913    0.0000 </r>
       <r>   19.2213    0.0000 </r>
       <r>   19.9267    0.0000 </r>
       <r>   19.9267    0.0000 </r>
       <r>   19.9594    0.0000 </r>
       <r>   20.0407    0.0000 </r>
       <r>   21.9517    0.0000 </r>
       <r>   23.8887    0.0000 </r>
       <r>   24.6814    0.0000 </r>
       <r>   25.8241    0.0000 </r>
       <r>   25.9496    0.0000 </r>
       <r>   26.0592    0.0000 </r>
       <r>   26.0592    0.0000 </r>
       <r>   27.2227    0.0000 </r>
       <r>   27.2227    0.0000 </r>
      </set>
      <set comment="kpoint 28">
       <r>    0.3506    1.0000 </r>
       <r>    0.4095    1.0000 </r>
       <r>    0.5587    1.0000 </r>
       <r>    0.5587    1.0000 </r>
       <r>    0.7884    1.0000 </r>
       <r>    0.7884    1.0000 </r>
       <r>    0.9796    1.0000 </r>
       <r>    1.1078    1.0000 </r>
       <r>    1.2406    1.0000 </r>
       <r>    1.2417    1.0000 </r>
       <r>    1.2527    1.0000 </r>
       <r>    1.2784    1.0000 </r>
       <r>    1.2784    1.0000 </r>
       <r>    1.3582    1.0000 </r>
       <r>    1.5013    1.0000 </r>
       <r>    1.5013    1.0000 </r>
       <r>    1.9602    1.0000 </r>
       <r>    2.0714    1.0000 </r>
       <r>    2.0909    1.0000 </r>
       <r>    2.0909    1.0000 </r>
       <r>    2.4875    1.0000 </r>
       <r>    3.4077    1.0000 </r>
       <r>    7.1893   -0.0000 </r>
       <r>    7.1893   -0.0000 </r>
       <r>    8.1812    0.0000 </r>
       <r>    8.1812    0.0000 </r>
       <r>   11.8225    0.0000 </r>
       <r>   12.7760    0.0000 </r>
       <r>   14.3080    0.0000 </r>
       <r>   14.3080    0.0000 </r>
       <r>   15.3143    0.0000 </r>
       <r>   15.3143    0.0000 </r>
       <r>   17.5908    0.0000 </r>
       <r>   17.8271    0.0000 </r>
       <r>   18.6930    0.0000 </r>
       <r>   19.3972    0.0000 </r>
       <r>   19.5532    0.0000 </r>
       <r>   20.2219    0.0000 </r>
       <r>   21.2291    0.0000 </r>
       <r>   21.2291    0.0000 </r>
       <r>   24.7521    0.0000 </r>
       <r>   24.9819    0.0000 </r>
       <r>   25.0868    0.0000 </r>
       <r>   25.0868    0.0000 </r>
       <r>   26.1250    0.0000 </r>
       <r>   26.5545    0.0000 </r>
       <r>   26.9409    0.0000 </r>
       <r>   27.2750    0.0000 </r>
      </set>
      <set comment="kpoint 29">
       <r>    0.2495    1.0000 </r>
       <r>    0.4257    1.0000 </r>
       <r>    0.4257    1.0000 </r>
       <r>    0.4406    1.0000 </r>
       <r>    0.8676    1.0000 </r>
       <r>    0.8886    1.0000 </r>
       <r>    0.8886    1.0000 </r>
       <r>    1.1254    1.0000 </r>
       <r>    1.1594    1.0000 </r>
       <r>    1.2970    1.0000 </r>
       <r>    1.2970    1.0000 </r>
       <r>    1.3902    1.0000 </r>
       <r>    1.4223    1.0000 </r>
       <r>    1.4506    1.0000 </r>
       <r>    1.4506    1.0000 </r>
       <r>    1.6355    1.0000 </r>
       <r>    1.7471    1.0000 </r>
       <r>    2.1026    1.0000 </r>
       <r>    2.1204    1.0000 </r>
       <r>    2.1204    1.0000 </r>
       <r>    2.2401    1.0000 </r>
       <r>    5.1044    0.0872 </r>
       <r>    5.1044    0.0872 </r>
       <r>    6.9487   -0.0000 </r>
       <r>    8.0030    0.0000 </r>
       <r>    9.7948    0.0000 </r>
       <r>    9.7948    0.0000 </r>
       <r>   12.6195    0.0000 </r>
       <r>   14.2743    0.0000 </r>
       <r>   15.9181    0.0000 </r>
       <r>   15.9181    0.0000 </r>
       <r>   16.5022    0.0000 </r>
       <r>   16.5022    0.0000 </r>
       <r>   17.2999    0.0000 </r>
       <r>   18.9890    0.0000 </r>
       <r>   19.2920    0.0000 </r>
       <r>   20.0174    0.0000 </r>
       <r>   20.0174    0.0000 </r>
       <r>   20.6938    0.0000 </r>
       <r>   21.7442    0.0000 </r>
       <r>   24.3008    0.0000 </r>
       <r>   24.3145    0.0000 </r>
       <r>   25.7609    0.0000 </r>
       <r>   25.7609    0.0000 </r>
       <r>   26.6531    0.0000 </r>
       <r>   27.0030    0.0000 </r>
       <r>   27.0030    0.0000 </r>
       <r>   27.1821    0.0000 </r>
      </set>
      <set comment="kpoint 30">
       <r>    0.3048    1.0000 </r>
       <r>    0.3724    1.0000 </r>
       <r>    0.4610    1.0000 </r>
       <r>    0.4617    1.0000 </r>
       <r>    0.8613    1.0000 </r>
       <r>    0.8616    1.0000 </r>
       <r>    0.9901    1.0000 </r>
       <r>    1.0712    1.0000 </r>
       <r>    1.1887    1.0000 </r>
       <r>    1.2579    1.0000 </r>
       <r>    1.3255    1.0000 </r>
       <r>    1.3546    1.0000 </r>
       <r>    1.4326    1.0000 </r>
       <r>    1.4614    1.0000 </r>
       <r>    1.4678    1.0000 </r>
       <r>    1.5433    1.0000 </r>
       <r>    1.9212    1.0000 </r>
       <r>    2.0530    1.0000 </r>
       <r>    2.0592    1.0000 </r>
       <r>    2.0669    1.0000 </r>
       <r>    2.9534    1.0000 </r>
       <r>    3.9243    1.0000 </r>
       <r>    5.8282   -0.0000 </r>
       <r>    6.6828   -0.0000 </r>
       <r>    7.9031    0.0000 </r>
       <r>    8.7413    0.0000 </r>
       <r>   10.5724    0.0000 </r>
       <r>   11.5176    0.0000 </r>
       <r>   14.8547    0.0000 </r>
       <r>   15.5647    0.0000 </r>
       <r>   16.5941    0.0000 </r>
       <r>   17.1486    0.0000 </r>
       <r>   17.1863    0.0000 </r>
       <r>   18.0265    0.0000 </r>
       <r>   18.1543    0.0000 </r>
       <r>   20.0111    0.0000 </r>
       <r>   20.2343    0.0000 </r>
       <r>   20.2398    0.0000 </r>
       <r>   20.8298    0.0000 </r>
       <r>   20.9344    0.0000 </r>
       <r>   24.7236    0.0000 </r>
       <r>   24.7246    0.0000 </r>
       <r>   24.9380    0.0000 </r>
       <r>   25.2573    0.0000 </r>
       <r>   25.4555    0.0000 </r>
       <r>   26.4064    0.0000 </r>
       <r>   27.3390    0.0000 </r>
       <r>   27.5684    0.0000 </r>
      </set>
      <set comment="kpoint 31">
       <r>    0.3142    1.0000 </r>
       <r>    0.3702    1.0000 </r>
       <r>    0.3702    1.0000 </r>
       <r>    0.3991    1.0000 </r>
       <r>    0.9213    1.0000 </r>
       <r>    0.9564    1.0000 </r>
       <r>    0.9564    1.0000 </r>
       <r>    1.0312    1.0000 </r>
       <r>    1.1733    1.0000 </r>
       <r>    1.2304    1.0000 </r>
       <r>    1.2304    1.0000 </r>
       <r>    1.2562    1.0000 </r>
       <r>    1.6046    1.0000 </r>
       <r>    1.6046    1.0000 </r>
       <r>    1.6075    1.0000 </r>
       <r>    1.7186    1.0000 </r>
       <r>    1.8609    1.0000 </r>
       <r>    1.9836    1.0000 </r>
       <r>    1.9836    1.0000 </r>
       <r>    1.9917    1.0000 </r>
       <r>    3.6864    1.0000 </r>
       <r>    4.6523    1.0000 </r>
       <r>    4.6523    1.0000 </r>
       <r>    5.5823   -0.0000 </r>
       <r>    8.5953    0.0000 </r>
       <r>    9.4947    0.0000 </r>
       <r>    9.4947    0.0000 </r>
       <r>   10.4224    0.0000 </r>
       <r>   15.4841    0.0000 </r>
       <r>   16.2664    0.0000 </r>
       <r>   16.2664    0.0000 </r>
       <r>   17.0849    0.0000 </r>
       <r>   18.6174    0.0000 </r>
       <r>   18.6174    0.0000 </r>
       <r>   18.8903    0.0000 </r>
       <r>   19.6180    0.0000 </r>
       <r>   20.1546    0.0000 </r>
       <r>   20.6049    0.0000 </r>
       <r>   20.6199    0.0000 </r>
       <r>   20.6199    0.0000 </r>
       <r>   24.6191    0.0000 </r>
       <r>   24.6191    0.0000 </r>
       <r>   24.6915    0.0000 </r>
       <r>   24.7491    0.0000 </r>
       <r>   25.7729    0.0000 </r>
       <r>   25.9427    0.0000 </r>
       <r>   26.2753    0.0000 </r>
       <r>   26.2753    0.0000 </r>
      </set>
      <set comment="kpoint 32">
       <r>    0.1892    1.0000 </r>
       <r>    0.3537    1.0000 </r>
       <r>    0.3537    1.0000 </r>
       <r>    0.3537    1.0000 </r>
       <r>    0.9171    1.0000 </r>
       <r>    0.9171    1.0000 </r>
       <r>    0.9171    1.0000 </r>
       <r>    1.1103    1.0000 </r>
       <r>    1.1103    1.0000 </r>
       <r>    1.2824    1.0000 </r>
       <r>    1.2824    1.0000 </r>
       <r>    1.2824    1.0000 </r>
       <r>    1.5219    1.0000 </r>
       <r>    1.5219    1.0000 </r>
       <r>    1.5219    1.0000 </r>
       <r>    1.9083    1.0000 </r>
       <r>    1.9083    1.0000 </r>
       <r>    2.1413    1.0000 </r>
       <r>    2.1413    1.0000 </r>
       <r>    2.1413    1.0000 </r>
       <r>    2.5169    1.0000 </r>
       <r>    5.5678   -0.0000 </r>
       <r>    5.5678   -0.0000 </r>
       <r>    5.5678   -0.0000 </r>
       <r>    8.5531    0.0000 </r>
       <r>    8.5531    0.0000 </r>
       <r>    8.5531    0.0000 </r>
       <r>   11.3502    0.0000 </r>
       <r>   16.3559    0.0000 </r>
       <r>   16.3559    0.0000 </r>
       <r>   16.3559    0.0000 </r>
       <r>   17.8387    0.0000 </r>
       <r>   17.8387    0.0000 </r>
       <r>   17.8387    0.0000 </r>
       <r>   19.3139    0.0000 </r>
       <r>   19.3139    0.0000 </r>
       <r>   19.3139    0.0000 </r>
       <r>   19.9161    0.0000 </r>
       <r>   20.5996    0.0000 </r>
       <r>   20.5996    0.0000 </r>
       <r>   24.5727    0.0000 </r>
       <r>   24.5727    0.0000 </r>
       <r>   25.3482    0.0000 </r>
       <r>   26.4280    0.0000 </r>
[...]
       <r>   24.9397    0.0000 </r>
       <r>   24.9397    0.0000 </r>
       <r>   25.0681    0.0000 </r>
       <r>   25.5181    0.0000 </r>
       <r>   25.7154    0.0000 </r>
       <r>   26.0491    0.0000 </r>
       <r>   26.7471    0.0000 </r>
      </set>
      <set comment="kpoint 34">
       <r>    0.1697    1.0000 </r>
       <r>    0.2140    1.0000 </r>
       <r>    0.2140    1.0000 </r>
       <r>    0.2345    1.0000 </r>
       <r>    0.9681    1.0000 </r>
       <r>    0.9903    1.0000 </r>
       <r>    0.9903    1.0000 </r>
       <r>    1.0471    1.0000 </r>
       <r>    1.0806    1.0000 </r>
       <r>    1.1230    1.0000 </r>
       <r>    1.1230    1.0000 </r>
       <r>    1.1357    1.0000 </r>
       <r>    1.8537    1.0000 </r>
       <r>    1.8596    1.0000 </r>
       <r>    1.8596    1.0000 </r>
       <r>    1.9958    1.0000 </r>
       <r>    2.0042    1.0000 </r>
       <r>    2.0891    1.0000 </r>
       <r>    2.0939    1.0000 </r>
       <r>    2.0939    1.0000 </r>
       <r>    4.0217    1.0000 </r>
       <r>    4.9881    0.9100 </r>
       <r>    4.9881    0.9100 </r>
       <r>    5.7538   -0.0000 </r>
       <r>    7.5282   -0.0000 </r>
       <r>    8.2638    0.0000 </r>
       <r>    8.2638    0.0000 </r>
       <r>    9.1556    0.0000 </r>
       <r>   17.4325    0.0000 </r>
       <r>   18.1173    0.0000 </r>
       <r>   18.1173    0.0000 </r>
       <r>   18.7979    0.0000 </r>
       <r>   18.8238    0.0000 </r>
       <r>   18.8238    0.0000 </r>
       <r>   19.2010    0.0000 </r>
       <r>   19.5178    0.0000 </r>
       <r>   19.8508    0.0000 </r>
       <r>   20.0786    0.0000 </r>
       <r>   20.0786    0.0000 </r>
       <r>   20.4023    0.0000 </r>
       <r>   24.2236    0.0000 </r>
       <r>   24.5642    0.0000 </r>
       <r>   24.5642    0.0000 </r>
       <r>   24.6694    0.0000 </r>
       <r>   25.1166    0.0000 </r>
       <r>   25.2974    0.0000 </r>
       <r>   25.5048    0.0000 </r>
       <r>   25.5048    0.0000 </r>
      </set>
      <set comment="kpoint 35">
       <r>    0.1096    1.0000 </r>
       <r>    0.1334    1.0000 </r>
       <r>    0.1334    1.0000 </r>
       <r>    0.1334    1.0000 </r>
       <r>    1.0137    1.0000 </r>
       <r>    1.0137    1.0000 </r>
       <r>    1.0137    1.0000 </r>
       <r>    1.0418    1.0000 </r>
       <r>    1.0418    1.0000 </r>
       <r>    1.0609    1.0000 </r>
       <r>    1.0609    1.0000 </r>
       <r>    1.0609    1.0000 </r>
       <r>    2.0322    1.0000 </r>
       <r>    2.0322    1.0000 </r>
       <r>    2.0322    1.0000 </r>
       <r>    2.0976    1.0000 </r>
       <r>    2.0976    1.0000 </r>
       <r>    2.1272    1.0000 </r>
       <r>    2.1272    1.0000 </r>
       <r>    2.1272    1.0000 </r>
       <r>    4.6175    1.0000 </r>
       <r>    5.3625   -0.0000 </r>
       <r>    5.3625   -0.0000 </r>
       <r>    5.3625   -0.0000 </r>
       <r>    7.4263   -0.0000 </r>
       <r>    7.4263   -0.0000 </r>
       <r>    7.4263   -0.0000 </r>
       <r>    8.1205    0.0000 </r>
       <r>   19.0889    0.0000 </r>
       <r>   19.0889    0.0000 </r>
       <r>   19.0889    0.0000 </r>
       <r>   19.4498    0.0000 </r>
       <r>   19.5946    0.0000 </r>
       <r>   19.5946    0.0000 </r>
       <r>   19.5946    0.0000 </r>
       <r>   19.6055    0.0000 </r>
       <r>   19.6055    0.0000 </r>
       <r>   19.6055    0.0000 </r>
       <r>   20.0413    0.0000 </r>
       <r>   20.0413    0.0000 </r>
       <r>   24.1622    0.0000 </r>
       <r>   24.1622    0.0000 </r>
       <r>   24.4954    0.0000 </r>
       <r>   24.4954    0.0000 </r>
       <r>   24.4954    0.0000 </r>
       <r>   24.5687    0.0000 </r>
       <r>   24.5687    0.0000 </r>
       <r>   24.5687    0.0000 </r>
      </set>
     </set>
    </set>
   </array>
  </eigenvalues>
  <separator name="orbital magnetization" >
   <v name="MAGDIPOLOUT">      0.00000000      0.00000000      0.00000000</v>
  </separator>
  <dos>
   <i name="efermi">      5.04595063 </i>
   <total>
    <array>
     <dimension dim="1">gridpoints</dimension>
     <dimension dim="2">spin</dimension>
     <field>energy</field>
     <field>total</field>
     <field>integrated</field>
     <set>
      <set comment="spin 1">
       <r>    -2.3948     0.0000     0.0000 </r>
       <r>    -2.2837     0.0000     0.0000 </r>
       <r>    -2.1725     0.0000     0.0000 </r>
       <r>    -2.0614     0.0000     0.0000 </r>
       <r>    -1.9502     0.0000     0.0000 </r>
       <r>    -1.8391     0.0000     0.0000 </r>
       <r>    -1.7279    -0.0000    -0.0000 </r>
       <r>    -1.6168    -0.0000    -0.0000 </r>
       <r>    -1.5056    -0.0000    -0.0000 </r>
       <r>    -1.3945    -0.0000    -0.0000 </r>
       <r>    -1.2833    -0.0000    -0.0000 </r>
       <r>    -1.1722    -0.0000    -0.0000 </r>
       <r>    -1.0610    -0.0004    -0.0000 </r>
       <r>    -0.9499    -0.0013    -0.0002 </r>
       <r>    -0.8387     0.0255     0.0026 </r>
       <r>    -0.7276     0.1600     0.0204 </r>
       <r>    -0.6165     0.2999     0.0538 </r>
       <r>    -0.5053     0.1991     0.0759 </r>
       <r>    -0.3942     0.3818     0.1183 </r>
       <r>    -0.2830     0.7416     0.2008 </r>
       <r>    -0.1719     0.2356     0.2270 </r>
       <r>    -0.0607     0.5601     0.2892 </r>
       <r>     0.0504     0.7480     0.3724 </r>
       <r>     0.1616     3.1780     0.7256 </r>
       <r>     0.2727    10.7223     1.9174 </r>
       <r>     0.3839    16.6880     3.7722 </r>
       <r>     0.4950    22.7710     6.3032 </r>
       <r>     0.6062    20.0466     8.5313 </r>
       <r>     0.7173    13.7090    10.0551 </r>
       <r>     0.8285    16.5582    11.8955 </r>
       <r>     0.9396    18.1588    13.9138 </r>
       <r>     1.0508    17.8483    15.8976 </r>
       <r>     1.1619    21.9917    18.3420 </r>
       <r>     1.2731    26.0879    21.2416 </r>
       <r>     1.3842    20.0750    23.4729 </r>
       <r>     1.4954    18.0215    25.4760 </r>
       <r>     1.6065    20.0207    27.7013 </r>
       <r>     1.7177    23.7303    30.3389 </r>
       <r>     1.8288    18.4560    32.3902 </r>
       <r>     1.9400    19.0053    34.5026 </r>
       <r>     2.0511    21.5077    36.8932 </r>
       <r>     2.1623    25.7030    39.7501 </r>
       <r>     2.2734    11.4993    41.0282 </r>
       <r>     2.3846     2.2485    41.2781 </r>
       <r>     2.4957     0.5357    41.3377 </r>
       <r>     2.6069     0.8295    41.4299 </r>
       <r>     2.7180     0.3722    41.4712 </r>
       <r>     2.8292     0.9191    41.5734 </r>
       <r>     2.9403     1.5970    41.7509 </r>
       <r>     3.0515     1.2234    41.8869 </r>
       <r>     3.1626     1.0971    42.0088 </r>
       <r>     3.2738     0.2799    42.0399 </r>
       <r>     3.3849     0.6856    42.1161 </r>
       <r>     3.4961     0.7064    42.1946 </r>
       <r>     3.6072     1.1846    42.3263 </r>
       <r>     3.7184     2.0268    42.5516 </r>
       <r>     3.8295     1.0865    42.6723 </r>
       <r>     3.9406     0.7198    42.7524 </r>
       <r>     4.0518     1.1011    42.8747 </r>
       <r>     4.1629     0.8563    42.9699 </r>
       <r>     4.2741     0.8283    43.0620 </r>
       <r>     4.3852     0.8010    43.1510 </r>
       <r>     4.4964     1.4323    43.3102 </r>
       <r>     4.6075     0.9832    43.4195 </r>
       <r>     4.7187     1.5141    43.5878 </r>
       <r>     4.8298     1.2993    43.7322 </r>
       <r>     4.9410     1.0290    43.8466 </r>
       <r>     5.0521     1.4766    44.0107 </r>
       <r>     5.1633     1.2248    44.1468 </r>
       <r>     5.2744     0.1752    44.1663 </r>
       <r>     5.3856     1.3524    44.3166 </r>
       <r>     5.4967     1.7662    44.5129 </r>
       <r>     5.6079     2.4552    44.7858 </r>
       <r>     5.7190     0.7157    44.8654 </r>
       <r>     5.8302     1.1030    44.9880 </r>
       <r>     5.9413     1.1114    45.1115 </r>
       <r>     6.0525     0.8381    45.2046 </r>
       <r>     6.1636     2.0247    45.4297 </r>
       <r>     6.2748     0.7274    45.5105 </r>
       <r>     6.3859     0.4532    45.5609 </r>
       <r>     6.4971     2.2791    45.8142 </r>
       <r>     6.6082     1.0156    45.9271 </r>
       <r>     6.7194     1.0645    46.0454 </r>
       <r>     6.8305     1.3008    46.1900 </r>
       <r>     6.9417     2.2665    46.4419 </r>
       <r>     7.0528     0.8037    46.5313 </r>
       <r>     7.1640     0.5078    46.5877 </r>
       <r>     7.2751     1.0245    46.7016 </r>
       <r>     7.3863     0.8482    46.7959 </r>
       <r>     7.4974     1.3319    46.9439 </r>
       <r>     7.6086     2.4063    47.2114 </r>
       <r>     7.7197     1.9373    47.4267 </r>
       <r>     7.8309     1.2461    47.5652 </r>
       <r>     7.9420     2.0735    47.7956 </r>
       <r>     8.0532     1.4687    47.9589 </r>
       <r>     8.1643     0.6613    48.0324 </r>
       <r>     8.2755     1.9792    48.2524 </r>
       <r>     8.3866     1.6344    48.4340 </r>
       <r>     8.4978     0.7311    48.5153 </r>
       <r>     8.6089     1.4395    48.6753 </r>
       <r>     8.7200     2.1129    48.9101 </r>
       <r>     8.8312     2.3720    49.1738 </r>
       <r>     8.9423     0.6235    49.2431 </r>
       <r>     9.0535     0.0539    49.2491 </r>
       <r>     9.1646     1.4201    49.4069 </r>
       <r>     9.2758     2.3738    49.6708 </r>
       <r>     9.3869     2.0143    49.8947 </r>
       <r>     9.4981     0.8024    49.9838 </r>
       <r>     9.6092     1.3596    50.1350 </r>
       <r>     9.7204     1.4808    50.2996 </r>
       <r>     9.8315     1.9055    50.5114 </r>
       <r>     9.9427     1.7386    50.7046 </r>
       <r>    10.0538     1.1615    50.8337 </r>
       <r>    10.1650     1.5870    51.0101 </r>
       <r>    10.2761     2.2716    51.2626 </r>
       <r>    10.3873     0.5951    51.3287 </r>
       <r>    10.4984     0.7894    51.4165 </r>
       <r>    10.6096     1.9513    51.6334 </r>
       <r>    10.7207     2.5049    51.9118 </r>
       <r>    10.8319     2.5682    52.1972 </r>
       <r>    10.9430     3.0214    52.5331 </r>
       <r>    11.0542     2.4043    52.8003 </r>
       <r>    11.1653     0.9018    52.9005 </r>
       <r>    11.2765     1.3120    53.0464 </r>
       <r>    11.3876     0.8332    53.1390 </r>
       <r>    11.4988     0.9382    53.2433 </r>
       <r>    11.6099     1.7845    53.4416 </r>
       <r>    11.7211     2.0281    53.6670 </r>
       <r>    11.8322     2.6229    53.9585 </r>
       <r>    11.9434     4.3659    54.4438 </r>
       <r>    12.0545     2.4108    54.7118 </r>
       <r>    12.1657     0.6250    54.7812 </r>
       <r>    12.2768     0.4082    54.8266 </r>
       <r>    12.3880     1.8297    55.0300 </r>
       <r>    12.4991     1.7325    55.2226 </r>
       <r>    12.6103     2.2970    55.4779 </r>
       <r>    12.7214     2.5290    55.7590 </r>
       <r>    12.8326     1.5740    55.9339 </r>
       <r>    12.9437     2.5334    56.2155 </r>
       <r>    13.0549     2.9035    56.5382 </r>
       <r>    13.1660     1.2800    56.6805 </r>
       <r>    13.2771     2.7504    56.9862 </r>
       <r>    13.3883     1.4953    57.1524 </r>
       <r>    13.4994     2.6038    57.4418 </r>
       <r>    13.6106     1.5632    57.6156 </r>
       <r>    13.7217     1.9858    57.8363 </r>
       <r>    13.8329     3.5719    58.2333 </r>
       <r>    13.9440     3.0556    58.5729 </r>
       <r>    14.0552     1.3492    58.7229 </r>
       <r>    14.1663     1.1768    58.8537 </r>
       <r>    14.2775     2.0002    59.0760 </r>
       <r>    14.3886     4.1201    59.5339 </r>
       <r>    14.4998     3.5669    59.9304 </r>
       <r>    14.6109     2.8277    60.2447 </r>
       <r>    14.7221     1.9704    60.4637 </r>
       <r>    14.8332     1.2481    60.6024 </r>
       <r>    14.9444     2.6759    60.8998 </r>
       <r>    15.0555     2.0059    61.1228 </r>
       <r>    15.1667     0.8873    61.2214 </r>
       <r>    15.2778     3.1818    61.5751 </r>
       <r>    15.3890     3.4706    61.9608 </r>
       <r>    15.5001     2.3493    62.2219 </r>
       <r>    15.6113     3.8205    62.6466 </r>
       <r>    15.7224     2.4461    62.9185 </r>
       <r>    15.8336     1.6709    63.1042 </r>
       <r>    15.9447     3.8363    63.5306 </r>
       <r>    16.0559     1.9102    63.7429 </r>
       <r>    16.1670     0.2455    63.7702 </r>
       <r>    16.2782     1.5554    63.9431 </r>
       <r>    16.3893     3.4249    64.3237 </r>
       <r>    16.5005     2.0863    64.5556 </r>
       <r>    16.6116     1.8625    64.7626 </r>
       <r>    16.7228     1.8372    64.9668 </r>
       <r>    16.8339     0.6901    65.0436 </r>
       <r>    16.9451     3.5555    65.4387 </r>
       <r>    17.0562     2.0424    65.6658 </r>
       <r>    17.1674     1.9313    65.8804 </r>
       <r>    17.2785     1.6784    66.0670 </r>
       <r>    17.3897     2.1955    66.3110 </r>
       <r>    17.5008     1.6131    66.4903 </r>
       <r>    17.6120     1.8776    66.6990 </r>
       <r>    17.7231     1.7885    66.8978 </r>
       <r>    17.8342     1.2284    67.0343 </r>
       <r>    17.9454     1.4135    67.1914 </r>
       <r>    18.0565     3.2007    67.5472 </r>
       <r>    18.1677     3.2282    67.9060 </r>
       <r>    18.2788     0.6479    67.9780 </r>
       <r>    18.3900     0.3733    68.0195 </r>
       <r>    18.5011     2.3814    68.2842 </r>
       <r>    18.6123     1.9095    68.4964 </r>
       <r>    18.7234     1.8255    68.6993 </r>
       <r>    18.8346     1.5526    68.8719 </r>
       <r>    18.9457     1.4794    69.0363 </r>
       <r>    19.0569     1.7723    69.2333 </r>
       <r>    19.1680     3.8622    69.6626 </r>
       <r>    19.2792     3.1887    70.0170 </r>
       <r>    19.3903     2.8492    70.3337 </r>
       <r>    19.5015     2.7933    70.6442 </r>
       <r>    19.6126     4.6287    71.1587 </r>
       <r>    19.7238     4.6903    71.6800 </r>
       <r>    19.8349     3.9732    72.1216 </r>
       <r>    19.9461     6.9533    72.8945 </r>
       <r>    20.0572     5.2499    73.4780 </r>
       <r>    20.1684     5.2494    74.0614 </r>
       <r>    20.2795     4.8975    74.6058 </r>
       <r>    20.3907     3.3269    74.9756 </r>
       <r>    20.5018     2.2654    75.2274 </r>
       <r>    20.6130     1.5753    75.4025 </r>
       <r>    20.7241     3.6303    75.8060 </r>
       <r>    20.8353     3.1294    76.1538 </r>
       <r>    20.9464     2.9441    76.4810 </r>
       <r>    21.0576     2.8337    76.7960 </r>
       <r>    21.1687     4.9168    77.3425 </r>
       <r>    21.2799     4.8322    77.8796 </r>
       <r>    21.3910     2.6079    78.1694 </r>
       <r>    21.5022     3.9323    78.6065 </r>
       <r>    21.6133     1.2046    78.7404 </r>
       <r>    21.7245     1.7317    78.9329 </r>
       <r>    21.8356     2.9708    79.2631 </r>
       <r>    21.9468     1.2075    79.3973 </r>
       <r>    22.0579     1.9006    79.6085 </r>
       <r>    22.1691     1.7921    79.8077 </r>
       <r>    22.2802     0.5344    79.8671 </r>
       <r>    22.3914     2.6193    80.1583 </r>
       <r>    22.5025     2.9924    80.4909 </r>
       <r>    22.6136     3.0543    80.8303 </r>
       <r>    22.7248     3.8472    81.2579 </r>
       <r>    22.8359     2.2185    81.5045 </r>
       <r>    22.9471     2.1056    81.7386 </r>
       <r>    23.0582     1.8510    81.9443 </r>
       <r>    23.1694     0.3930    81.9880 </r>
       <r>    23.2805     1.4447    82.1486 </r>
       <r>    23.3917     1.1870    82.2805 </r>
       <r>    23.5028     1.2031    82.4142 </r>
       <r>    23.6140     1.6019    82.5923 </r>
       <r>    23.7251     0.4881    82.6465 </r>
       <r>    23.8363    -0.0122    82.6452 </r>
       <r>    23.9474     0.7251    82.7257 </r>
       <r>    24.0586     1.7952    82.9253 </r>
       <r>    24.1697     1.6725    83.1112 </r>
       <r>    24.2809     3.9355    83.5486 </r>
       <r>    24.3920     5.2346    84.1304 </r>
       <r>    24.5032     2.9792    84.4615 </r>
       <r>    24.6143     5.1881    85.0382 </r>
       <r>    24.7255     6.3567    85.7447 </r>
       <r>    24.8366     3.1467    86.0945 </r>
       <r>    24.9478     1.6856    86.2818 </r>
       <r>    25.0589     2.4671    86.5561 </r>
       <r>    25.1701     2.5091    86.8349 </r>
       <r>    25.2812     2.6370    87.1280 </r>
       <r>    25.3924     3.5333    87.5208 </r>
       <r>    25.5035     2.6003    87.8098 </r>
       <r>    25.6147     1.5474    87.9818 </r>
       <r>    25.7258     2.5220    88.2621 </r>
       <r>    25.8370     2.6328    88.5547 </r>
       <r>    25.9481     1.2980    88.6990 </r>
       <r>    26.0593     4.7251    89.2242 </r>
       <r>    26.1704     6.2913    89.9234 </r>
       <r>    26.2816     2.1871    90.1665 </r>
       <r>    26.3927     3.0588    90.5065 </r>
       <r>    26.5039     3.9778    90.9486 </r>
       <r>    26.6150     2.4330    91.2191 </r>
       <r>    26.7262     2.0676    91.4489 </r>
       <r>    26.8373     2.5254    91.7296 </r>
       <r>    26.9485     4.6938    92.2513 </r>
       <r>    27.0596     5.6108    92.8749 </r>
       <r>    27.1707     1.7452    93.0689 </r>
       <r>    27.2819     4.0732    93.5216 </r>
       <r>    27.3930     2.9930    93.8543 </r>
       <r>    27.5042     3.5240    94.2460 </r>
       <r>    27.6153     4.0362    94.6946 </r>
       <r>    27.7265     2.4435    94.9662 </r>
       <r>    27.8376     3.1257    95.3136 </r>
       <r>    27.9488     0.8631    95.4095 </r>
       <r>    28.0599     0.6298    95.4795 </r>
       <r>    28.1711     0.4134    95.5255 </r>
       <r>    28.2822     0.3660    95.5662 </r>
       <r>    28.3934     0.4633    95.6177 </r>
       <r>    28.5045     0.4612    95.6689 </r>
       <r>    28.6157     0.0458    95.6740 </r>
       <r>    28.7268     0.6484    95.7461 </r>
       <r>    28.8380     0.8696    95.8427 </r>
       <r>    28.9491     0.1712    95.8618 </r>
       <r>    29.0603     0.0541    95.8678 </r>
       <r>    29.1714     0.0020    95.8680 </r>
       <r>    29.2826    -0.0259    95.8651 </r>
       <r>    29.3937     0.5057    95.9213 </r>
       <r>    29.5049     0.7066    95.9999 </r>
       <r>    29.6160     0.0107    96.0010 </r>
       <r>    29.7272    -0.0093    96.0000 </r>
       <r>    29.8383    -0.0001    96.0000 </r>
       <r>    29.9495    -0.0000    96.0000 </r>
       <r>    30.0606    -0.0000    96.0000 </r>
       <r>    30.1718     0.0000    96.0000 </r>
       <r>    30.2829     0.0000    96.0000 </r>
       <r>    30.3941     0.0000    96.0000 </r>
       <r>    30.5052     0.0000    96.0000 </r>
       <r>    30.6164     0.0000    96.0000 </r>
       <r>    30.7275     0.0000    96.0000 </r>
       <r>    30.8387     0.0000    96.0000 </r>
       <r>    30.9498     0.0000    96.0000 </r>
      </set>
     </set>
    </array>
   </total>
  </dos>
 </calculation>
 <structure name="finalpos" >
  <crystal>
   <varray name="basis" >
    <v>       4.49900000       0.00000000       0.00000000 </v>
    <v>       0.00000000       4.49900000       0.00000000 </v>
    <v>       0.00000000       0.00000000       4.49900000 </v>
   </varray>
   <i name="volume">     91.06426350 </i>
   <varray name="rec_basis" >
    <v>       0.22227162       0.00000000       0.00000000 </v>
    <v>       0.00000000       0.22227162       0.00000000 </v>
    <v>       0.00000000       0.00000000       0.22227162 </v>
   </varray>
  </crystal>
  <varray name="positions" >
   <v>       0.00000000       0.00000000       0.00000000 </v>
   <v>       0.00000000       0.50000000       0.50000000 </v>
   <v>       0.50000000       0.00000000       0.50000000 </v>
   <v>       0.50000000       0.50000000       0.00000000 </v>
  </varray>
 </structure>
</modeling>
