----- GAMESS execution script 'rungms' -----
This job is running on host crcfe02.crc.nd.edu
under operating system Linux at Sun Sep 29 10:50:23 EDT 2019
Available scratch disk space (Kbyte units) at beginning of the job is
Filesystem      1K-blocks  Used  Available Use% Mounted on
AFS            2147483647     0 2147483647   0% /afs
GAMESS temporary binary files will be written to /afs/crc.nd.edu/user/c/cdrisko
GAMESS supplementary output files will be written to /afs/crc.nd.edu/user/c/cdrisko/scr
Copying input file SO2.inp to your run's scratch directory...

 Distributed Data Interface kickoff program.
 Initiating 1 compute processes on 1 nodes to run the following command:
 /afs/crc.nd.edu/x86_64_linux/g/gamess/nov-2017/gamess/gamess.00.x SO2 

          ******************************************************
          *         GAMESS VERSION = 11 NOV 2017 (R3)         *
          *             FROM IOWA STATE UNIVERSITY             *
          * M.W.SCHMIDT, K.K.BALDRIDGE, J.A.BOATZ, S.T.ELBERT, *
          *   M.S.GORDON, J.H.JENSEN, S.KOSEKI, N.MATSUNAGA,   *
          *          K.A.NGUYEN, S.J.SU, T.L.WINDUS,           *
          *       TOGETHER WITH M.DUPUIS, J.A.MONTGOMERY       *
          *         J.COMPUT.CHEM.  14, 1347-1363(1993)        *
          **************** 64 BIT INTEL VERSION ****************

  SINCE 1993, STUDENTS AND POSTDOCS WORKING AT IOWA STATE UNIVERSITY
  AND ALSO IN THEIR VARIOUS JOBS AFTER LEAVING ISU HAVE MADE IMPORTANT
  CONTRIBUTIONS TO THE CODE:
     IVANA ADAMOVIC, CHRISTINE AIKENS, YURI ALEXEEV, POOJA ARORA,
     ANDREY ASADCHEV, ROB BELL, PRADIPTA BANDYOPADHYAY, JONATHAN BENTZ,
     BRETT BODE, KURT BRORSEN, CALEB CARLIN, GALINA CHABAN, WEI CHEN,
     CHEOL HO CHOI, PAUL DAY, ALBERT DEFUSCO, NUWAN DESILVA, TIM DUDLEY,
     DMITRI FEDOROV, ALEX FINDLATER, GRAHAM FLETCHER, MARK FREITAG,
     KURT GLAESEMANN, ANASTASIA GUININA,
     DAN KEMP, GRANT MERRILL, NORIYUKI MINEZAWA, JONATHAN MULLIN,
     TAKESHI NAGATA, SEAN NEDD, HEATHER NETZLOFF, BOSILJKA NJEGIC, RYAN OLSON,
     MIKE PAK, BUU PHAM,
     SPENCER PRUITT, LUKE ROSKOP, JIM SHOEMAKER, LYUDMILA SLIPCHENKO,
     TONY SMITH, SAROM SOK LEANG, JIE SONG, TETSUYA TAKETSUGU, SIMON WEBB,
     PENG XU, SOOHAENG YOO, FEDERICO ZAHARIEV

  ADDITIONAL CODE HAS BEEN PROVIDED BY COLLABORATORS IN OTHER GROUPS:
     IOWA STATE UNIVERSITY:
          JOE IVANIC, AARON WEST, LAIMUTIS BYTAUTAS, KLAUS RUEDENBERG
     UNIVERSITY OF TOKYO: KIMIHIKO HIRAO, TAKAHITO NAKAJIMA,
          TAKAO TSUNEDA, MUNEAKI KAMIYA, SUSUMU YANAGISAWA,
          KIYOSHI YAGI, MAHITO CHIBA, SEIKEN TOKURA, NAOAKI KAWAKAMI
     UNIVERSITY OF AARHUS: FRANK JENSEN
     UNIVERSITY OF IOWA: VISVALDAS KAIRYS, HUI LI
     NATIONAL INST. OF STANDARDS AND TECHNOLOGY: WALT STEVENS, DAVID GARMER
     UNIVERSITY OF PISA: BENEDETTA MENNUCCI, JACOPO TOMASI
     UNIVERSITY OF MEMPHIS: HENRY KURTZ, PRAKASHAN KORAMBATH
     UNIVERSITY OF ALBERTA: TOBY ZENG, MARIUSZ KLOBUKOWSKI
     UNIVERSITY OF NEW ENGLAND: MARK SPACKMAN
     MIE UNIVERSITY: HIROAKI UMEDA
     NAT. INST. OF ADVANCED INDUSTRIAL SCIENCE AND TECHNOLOGY: KAZUO KITAURA
     MICHIGAN STATE UNIVERSITY:
          KAROL KOWALSKI, MARTA WLOCH, JEFFREY GOUR, JESSE LUTZ,
          WEI LI, PIOTR PIECUCH
     UNIVERSITY OF SILESIA: MONIKA MUSIAL, STANISLAW KUCHARSKI
     FACULTES UNIVERSITAIRES NOTRE-DAME DE LA PAIX:
          OLIVIER QUINET, BENOIT CHAMPAGNE
     UNIVERSITY OF CALIFORNIA - SANTA BARBARA: BERNARD KIRTMAN
     INSTITUTE FOR MOLECULAR SCIENCE:
          KAZUYA ISHIMURA, MICHIO KATOUDA, AND SHIGERU NAGASE
     UNIVERSITY OF NOTRE DAME: ANNA POMOGAEVA, DAN CHIPMAN
     KYUSHU UNIVERSITY:
          HARUYUKI NAKANO,
          FENG LONG GU, JACEK KORCHOWIEC, MARCIN MAKOWSKI, AND YURIKO AOKI,
          HIROTOSHI MORI AND EISAKU MIYOSHI
     PENNSYLVANIA STATE UNIVERSITY:
          TZVETELIN IORDANOV, CHET SWALINA, JONATHAN SKONE,
          SHARON HAMMES-SCHIFFER
     WASEDA UNIVERSITY:
          MASATO KOBAYASHI, TOMOKO AKAMA, TSUGUKI TOUMA,
          TAKESHI YOSHIKAWA, YASUHIRO IKABATA, JUNJI SEINO,
          YUYA NAKAJIMA, HIROMI NAKAI
     NANJING UNIVERSITY: SHUHUA LI
     UNIVERSITY OF NEBRASKA:
          PEIFENG SU, DEJUN SI, NANDUN THELLAMUREGE, YALI WANG, HUI LI
     UNIVERSITY OF ZURICH: ROBERTO PEVERATI, KIM BALDRIDGE
     N. COPERNICUS UNIVERSITY AND JACKSON STATE UNIVERSITY:
          MARIA BARYSZ
     UNIVERSITY OF COPENHAGEN: Jimmy Kromann, CASPER STEINMANN
     TOKYO INSTITUTE OF TECHNOLOGY: HIROYA NAKATA
     NAGOYA UNIVERSITY: YOSHIO NISHIMOTO, STEPHAN IRLE
     MOSCOW STATE UNIVERSITY: VLADIMIR MIRONOV

 EXECUTION OF GAMESS BEGUN Sun Sep 29 10:50:23 2019

            ECHO OF THE FIRST FEW INPUT CARDS -
 INPUT CARD> $BASIS GBASIS=PCSEG-1 $END                                                     
 INPUT CARD> $CONTRL COORD=ZMT ISPHER=1 RUNTYP=ENERGY DFTTYP=PBE MULT=1 $END                
 INPUT CARD>                                                                                
 INPUT CARD> $DATA                                                                          
 INPUT CARD>Title SO2 single-point calculation template with Z-Matrix                       
 INPUT CARD>C1                                                                              
 INPUT CARD>S                                                                               
 INPUT CARD>O 1 1.55                                                                        
 INPUT CARD>O 1 1.55 2 135                                                                  
 INPUT CARD> $END                                                                           
    1000000 WORDS OF MEMORY AVAILABLE

     BASIS OPTIONS
     -------------
     GBASIS=PCSEG-1      IGAUSS=       0      POLAR=NONE    
     NDFUNC=       0     NFFUNC=       0     DIFFSP=       F
     NPFUNC=       0      DIFFS=       F     BASNAM=        


     RUN TITLE
     ---------
 Title SO2 single-point calculation template with Z-Matrix                       

 THE POINT GROUP OF THE MOLECULE IS C1      
 THE ORDER OF THE PRINCIPAL AXIS IS     0

 YOUR FULLY SUBSTITUTED Z-MATRIX IS
 S   
 O      1   1.5500000
 O      1   1.5500000  2  135.0000

 THE MOMENTS OF INERTIA ARE (AMU-ANGSTROM**2)
 IXX=     5.626   IYY=    65.600   IZZ=    71.226

 ATOM      ATOMIC                      COORDINATES (BOHR)
           CHARGE         X                   Y                   Z
 S          16.0     0.0000000000       -0.5606098222        0.0000000000
 O           8.0     2.7061127013        0.5602987600        0.0000000000
 O           8.0    -2.7061127013        0.5602987600        0.0000000000

          INTERNUCLEAR DISTANCES (ANGS.)
          ------------------------------

                1 S          2 O          3 O     

   1 S       0.0000000    1.5500000 *  1.5500000 *
   2 O       1.5500000 *  0.0000000    2.8640266 *
   3 O       1.5500000 *  2.8640266 *  0.0000000  

  * ... LESS THAN  3.000


     ATOMIC BASIS SET
     ----------------
 THE CONTRACTED PRIMITIVE FUNCTIONS HAVE BEEN UNNORMALIZED
 THE CONTRACTED BASIS FUNCTIONS ARE NOW NORMALIZED TO UNITY

  SHELL TYPE  PRIMITIVE        EXPONENT          CONTRACTION COEFFICIENT(S)

 S         

      1   S       1         49299.4000000    0.000677492991
      1   S       2          7395.8400000    0.005232317766
      1   S       3          1683.3000000    0.026769459077
      1   S       4           476.1440000    0.102869580705
      1   S       5           154.3290000    0.286438127414
      1   S       6            55.0288000    0.454278639081
      1   S       7            20.5029000    0.271743121997

      2   S       8            45.9596000   -0.088421914560
      2   S       9             4.9274000    0.564350486135
      2   S      10             1.9179900    0.505415953466

      3   S      11             0.3684980    1.000000000000

      4   S      12             0.1291650    1.000000000000

      5   P      13           451.6620000    0.003707705453
      5   P      14           106.0980000    0.029219352245
      5   P      15            33.6996000    0.124444551509
      5   P      16            12.3054000    0.321808587656
      5   P      17             4.7141200    0.462822172957
      5   P      18             1.7810500    0.266513371364

      6   P      19             0.8722350    0.349265132972
      6   P      20             0.3102780    0.717115018770

      7   P      21             0.1001940    1.000000000000

      8   D      22             0.5500000    1.000000000000

 O         

      9   S      23          2288.6400000    0.005451138222
      9   S      24           344.4160000    0.040718922842
      9   S      25            78.2538000    0.181369420873
      9   S      26            21.7195000    0.465536820246
      9   S      27             6.5590700    0.451211321214

     10   S      28            10.4656000   -0.150211201174
     10   S      29             0.9643510    1.052867983385

     11   S      30             0.2851270    1.000000000000

     12   P      31            17.0590000    0.068749256972
     12   P      32             3.6899900    0.351671941499
     12   P      33             0.9929960    0.724532099722

     13   P      34             0.2449240    1.000000000000

     14   D      35             1.0000000    1.000000000000

 O         

     15   S      36          2288.6400000    0.005451138222
     15   S      37           344.4160000    0.040718922842
     15   S      38            78.2538000    0.181369420873
     15   S      39            21.7195000    0.465536820246
     15   S      40             6.5590700    0.451211321214

     16   S      41            10.4656000   -0.150211201174
     16   S      42             0.9643510    1.052867983385

     17   S      43             0.2851270    1.000000000000

     18   P      44            17.0590000    0.068749256972
     18   P      45             3.6899900    0.351671941499
     18   P      46             0.9929960    0.724532099722

     19   P      47             0.2449240    1.000000000000

     20   D      48             1.0000000    1.000000000000

 TOTAL NUMBER OF BASIS SET SHELLS             =   20
 NUMBER OF CARTESIAN GAUSSIAN BASIS FUNCTIONS =   49
 NOTE: THIS RUN WILL RESTRICT THE MO VARIATION SPACE TO SPHERICAL HARMONICS.
 THE NUMBER OF ORBITALS KEPT IN THE VARIATIONAL SPACE WILL BE PRINTED LATER.
 NUMBER OF ELECTRONS                          =   32
 CHARGE OF MOLECULE                           =    0
 SPIN MULTIPLICITY                            =    1
 NUMBER OF OCCUPIED ORBITALS (ALPHA)          =   16
 NUMBER OF OCCUPIED ORBITALS (BETA )          =   16
 TOTAL NUMBER OF ATOMS                        =    3
 THE NUCLEAR REPULSION ENERGY IS       99.2246775963

     LEBEDEV GRID-BASED DFT OPTIONS
     ------------------------------
     DFTTYP=PBE     
     NRAD  =      96     NLEB  =     302
     NRAD0 =      24     NLEB0 =     110
     SWOFF =    5.00E-03 (PURE SCF -> DFT)
     SWITCH=    3.00E-04 (COARSE -> TIGHT GRID)
     THRESH=    0.00E+00 GTHRE=    1.00E+00

 GRIMME'S EMPIRICAL DISPERSION CORRECTION= F

     $CONTRL OPTIONS
     ---------------
 SCFTYP=RHF          RUNTYP=ENERGY       EXETYP=RUN     
 MPLEVL=       0     CITYP =NONE         CCTYP =NONE         VBTYP =NONE    
 DFTTYP=PBE          TDDFT =NONE    
 MULT  =       1     ICHARG=       0     NZVAR =       0     COORD =ZMT     
 PP    =NONE         RELWFN=NONE         LOCAL =NONE         NUMGRD=       F
 ISPHER=       1     NOSYM =       0     MAXIT =      30     UNITS =ANGS    
 PLTORB=       F     MOLPLT=       F     AIMPAC=       F     FRIEND=        
 NPRINT=       7     IREST =       0     GEOM  =INPUT   
 NORMF =       0     NORMP =       0     ITOL  =      20     ICUT  =       9
 INTTYP=BEST         GRDTYP=BEST         QMTTOL= 1.0E-06

     $SYSTEM OPTIONS
     ---------------
  REPLICATED MEMORY=     1000000 WORDS (ON EVERY NODE).
 DISTRIBUTED MEMDDI=           0 MILLION WORDS IN AGGREGATE,
 MEMDDI DISTRIBUTED OVER   1 PROCESSORS IS           0 WORDS/PROCESSOR.
 TOTAL MEMORY REQUESTED ON EACH PROCESSOR=     1000000 WORDS.
 TIMLIM=      525600.00 MINUTES, OR     365.0 DAYS.
 PARALL= F  BALTYP=  DLB     KDIAG=    0  COREFL= F
 MXSEQ2=     300 MXSEQ3=     150  mem10=         0

          ----------------
          PROPERTIES INPUT
          ----------------

     MOMENTS            FIELD           POTENTIAL          DENSITY
 IEMOM =       1   IEFLD =       0   IEPOT =       0   IEDEN =       0
 WHERE =COMASS     WHERE =NUCLEI     WHERE =NUCLEI     WHERE =NUCLEI  
 OUTPUT=BOTH       OUTPUT=BOTH       OUTPUT=BOTH       OUTPUT=BOTH    
 IEMINT=       0   IEFINT=       0                     IEDINT=       0
                                                       MORB  =       0
          EXTRAPOLATION IN EFFECT
          DIIS IN EFFECT
 ORBITAL PRINTING OPTION: NPREO=     1    49     2     1

     -------------------------------
     INTEGRAL TRANSFORMATION OPTIONS
     -------------------------------
     NWORD  =            0
     CUTOFF = 1.0E-09     MPTRAN =       0
     DIRTRF =       F     AOINTS =DUP     

          ----------------------
          INTEGRAL INPUT OPTIONS
          ----------------------
 NOPK  =       1 NORDER=       0 SCHWRZ=       F

   --- ENCODED Z MATRIX ---
 COORD  TYPE   I   J   K   L   M   N
    1      1    2   1
    2      1    3   1
    3      2    3   1   2

 THE DETERMINANT OF THE G MATRIX IS 10**(    -4)

 THE DETERMINANT OF THE G MATRIX IS 10**(    -4)
 * * * WARNING * * *
 YOUR B MATRIX HAS A SMALL DETERMINANT.
 THIS SUGGESTS YOU MAY HAVE BADLY CHOSEN COORDINATES.

     ------------------------------------------
     THE POINT GROUP IS C1 , NAXIS= 0, ORDER= 1
     ------------------------------------------

 -- VARIATIONAL SPACE WILL BE RESTRICTED TO PURE SPHERICAL HARMONICS ONLY --
 AFTER EXCLUDING CONTAMINANT COMBINATIONS FROM THE CARTESIAN GAUSSIAN BASIS
 SET, THE NUMBER OF SPHERICAL HARMONICS KEPT IN THE VARIATION SPACE IS   46

     DIMENSIONS OF THE SYMMETRY SUBSPACES ARE
 A   =   46

 ..... DONE SETTING UP THE RUN .....
 STEP CPU TIME =     0.05 TOTAL CPU TIME =          0.0 (      0.0 MIN)
 TOTAL WALL CLOCK TIME=          0.0 SECONDS, CPU UTILIZATION IS   100.00%

          ********************
          1 ELECTRON INTEGRALS
          ********************
 ...... END OF ONE-ELECTRON INTEGRALS ......
 STEP CPU TIME =     0.00 TOTAL CPU TIME =          0.0 (      0.0 MIN)
 TOTAL WALL CLOCK TIME=          0.0 SECONDS, CPU UTILIZATION IS   100.00%

          -------------
          GUESS OPTIONS
          -------------
          GUESS =HUCKEL            NORB  =       0          NORDER=       0
          MIX   =       F          PRTMO =       F          PUNMO =       F
          TOLZ  = 1.0E-08          TOLE  = 1.0E-05
          SYMDEN=       F          PURIFY=       F

 INITIAL GUESS ORBITALS GENERATED BY HUCKEL   ROUTINE.
 HUCKEL GUESS REQUIRES     21634 WORDS.

 STATISTICS FOR GENERATION OF SYMMETRY ORBITAL -Q- MATRIX
 NUMBER OF CARTESIAN ATOMIC ORBITALS=         49
 NUMBER OF SPHERICAL CONTAMINANTS DROPPED=     3
 NUMBER OF LINEARLY DEPENDENT MOS DROPPED=     0
 TOTAL NUMBER OF MOS IN VARIATION SPACE=      46

 SYMMETRIES FOR INITIAL GUESS ORBITALS FOLLOW.   BOTH SET(S).
    16 ORBITALS ARE OCCUPIED (    7 CORE ORBITALS).
     8=A        9=A       10=A       11=A       12=A       13=A       14=A   
    15=A       16=A       17=A       18=A       19=A       20=A       21=A   
    22=A       23=A       24=A       25=A       26=A   
 ...... END OF INITIAL ORBITAL SELECTION ......
 STEP CPU TIME =     0.00 TOTAL CPU TIME =          0.0 (      0.0 MIN)
 TOTAL WALL CLOCK TIME=          0.0 SECONDS, CPU UTILIZATION IS   100.00%

                    ----------------------
                    AO INTEGRAL TECHNOLOGY
                    ----------------------
     S,P,L SHELL ROTATED AXIS INTEGRALS, REPROGRAMMED BY
        KAZUYA ISHIMURA (IMS) AND JOSE SIERRA (SYNSTAR).
     S,P,D,L SHELL ROTATED AXIS INTEGRALS PROGRAMMED BY
        KAZUYA ISHIMURA (INSTITUTE FOR MOLECULAR SCIENCE).
     S,P,D,F,G SHELL TO TOTAL QUARTET ANGULAR MOMENTUM SUM 5,
        ERIC PROGRAM BY GRAHAM FLETCHER (ELORET AND NASA ADVANCED
        SUPERCOMPUTING DIVISION, AMES RESEARCH CENTER).
     S,P,D,F,G,L SHELL GENERAL RYS QUADRATURE PROGRAMMED BY
        MICHEL DUPUIS (PACIFIC NORTHWEST NATIONAL LABORATORY).

          --------------------
          2 ELECTRON INTEGRALS
          --------------------

 THE -PK- OPTION IS OFF, THE INTEGRALS ARE NOT IN SUPERMATRIX FORM.
 STORING   15000 INTEGRALS/RECORD ON DISK, USING 12 BYTES/INTEGRAL.
 TWO ELECTRON INTEGRAL EVALUATION REQUIRES   90606 WORDS OF MEMORY.
 II,JST,KST,LST =  1  1  1  1 NREC =         1 INTLOC =    1
 II,JST,KST,LST =  2  1  1  1 NREC =         1 INTLOC =    2
 II,JST,KST,LST =  3  1  1  1 NREC =         1 INTLOC =    7
 II,JST,KST,LST =  4  1  1  1 NREC =         1 INTLOC =   22
 II,JST,KST,LST =  5  1  1  1 NREC =         1 INTLOC =   56
 II,JST,KST,LST =  6  1  1  1 NREC =         1 INTLOC =  125
 II,JST,KST,LST =  7  1  1  1 NREC =         1 INTLOC =  329
 II,JST,KST,LST =  8  1  1  1 NREC =         1 INTLOC =  776
 II,JST,KST,LST =  9  1  1  1 NREC =         1 INTLOC = 2864
 II,JST,KST,LST = 10  1  1  1 NREC =         1 INTLOC = 4951
 II,JST,KST,LST = 11  1  1  1 NREC =         1 INTLOC = 7615
 II,JST,KST,LST = 12  1  1  1 NREC =         1 INTLOC =10732
 II,JST,KST,LST = 13  1  1  1 NREC =         2 INTLOC = 6643
 II,JST,KST,LST = 14  1  1  1 NREC =         3 INTLOC = 6911
 II,JST,KST,LST = 15  1  1  1 NREC =         6 INTLOC = 8880
 II,JST,KST,LST = 16  1  1  1 NREC =         7 INTLOC = 1027
 II,JST,KST,LST = 17  1  1  1 NREC =         7 INTLOC =12198
 II,JST,KST,LST = 18  1  1  1 NREC =         8 INTLOC =10548
 II,JST,KST,LST = 19  1  1  1 NREC =        11 INTLOC = 3638
 II,JST,KST,LST = 20  1  1  1 NREC =        14 INTLOC =10346
 TOTAL NUMBER OF NONZERO TWO-ELECTRON INTEGRALS =              331902
         23 INTEGRAL RECORDS WERE STORED ON DISK FILE  8.
  ...... END OF TWO-ELECTRON INTEGRALS .....
 STEP CPU TIME =     0.10 TOTAL CPU TIME =          0.2 (      0.0 MIN)
 TOTAL WALL CLOCK TIME=          0.2 SECONDS, CPU UTILIZATION IS    93.75%

          --------------------------
               R-PBE SCF CALCULATION
          --------------------------

     NUCLEAR ENERGY =        99.2246775963
     MAXIT =   30     NPUNCH=    2
     EXTRAP=T  DAMP=F  SHIFT=F  RSTRCT=F  DIIS=T  DEM=F  SOSCF=F
         DENSITY MATRIX CONVERGENCE THRESHOLD=  1.00E-05
     COARSE -> FINE DFT GRID SWITCH THRESHOLD=  3.00E-04 (SWITCH IN $DFT)
                   HF -> DFT SWITCH THRESHOLD=  5.00E-03 (SWOFF IN $DFT)
     MEMORY REQUIRED FOR RHF ITERS=    183108 WORDS.

 DFT CODE IS SWITCHING FROM THE FINE GRID NRAD= 96,  NLEB=  302
                      TO THE COARSE GRID NRAD0= 24, NLEB0=  110

     EXCHANGE FUNCTIONAL   =PBE       
     CORRELATION FUNCTIONAL=PBE       
     DFT THRESHOLD         =.460E-07
     GRID CHANGE THRESHOLD =.300E-03
 FOR AN EULER-MACLAURIN QUADRATURE USING  96 RADIAL POINTS:
 SMALLEST GAUSSIAN PRIMITIVE EXPONENT=        0.1001940000 OF TYPE -P-
 ON ATOM NUMBER   1 HAS RADIAL NORMALIZATION=  1.000000
  LARGEST GAUSSIAN PRIMITIVE EXPONENT=    49299.4000000000 OF TYPE -S-
 ON ATOM NUMBER   1 HAS RADIAL NORMALIZATION=  1.000000
 DFT IS SWITCHED OFF, PERFORMING PURE SCF UNTIL SWOFF THRESHOLD IS REACHED.

 ITER EX DEM     TOTAL ENERGY        E CHANGE  DENSITY CHANGE    DIIS ERROR
   1  0  0     -546.0423214550  -546.0423214550   0.670654767   0.897246017
          * * *   INITIATING DIIS PROCEDURE   * * *
   2  1  0     -546.7203602672    -0.6780388122   0.602725318   0.292906356
   3  2  0     -546.8020284379    -0.0816681707   0.220903876   0.263578467
   4  3  0     -547.0480044307    -0.2459759928   0.038829065   0.009384669
   5  4  0     -547.0494577114    -0.0014532807   0.016678259   0.005372939
   6  5  0     -547.0497856434    -0.0003279320   0.008349862   0.002748428
   7  6  0     -547.0498727705    -0.0000871271   0.004325685   0.001060890
 CONVERGED TO SWOFF, SO DFT CALCULATION IS NOW SWITCHED ON.
          * * *   INITIATING DIIS PROCEDURE   * * *
   8  7  0     -548.2037668717    -1.1538941012   0.386387427   0.104307082
   9  8  0     -548.2044479194    -0.0006810477   0.332553449   0.109543139
  10  9  0     -548.2080127510    -0.0035648316   0.116736369   0.111118514
  11 10  0     -548.2441007829    -0.0360880319   0.028431872   0.012929159
  12 11  0     -548.2447664478    -0.0006656648   0.001745925   0.000973251
  13 12  0     -548.2447695715    -0.0000031237   0.000507486   0.000252235
  14 13  0     -548.2447698171    -0.0000002456   0.000051279   0.000033824
 DFT CODE IS SWITCHING BACK TO THE FINE GRID
          * * *   INITIATING DIIS PROCEDURE   * * *
  15 14  0     -548.2310581217     0.0137116954   0.011328297   0.011471100
  16 15  0     -548.2312773542    -0.0002192326   0.018224284   0.004178258
  17 16  0     -548.2310549733     0.0002223809   0.012234020   0.009514746
  18 17  0     -548.2313241363    -0.0002691629   0.001612723   0.001120553
  19 18  0     -548.2313218775     0.0000022587   0.001039681   0.001600074
  20 19  0     -548.2313268994    -0.0000050219   0.000122658   0.000056240
  21 20  0     -548.2313269138    -0.0000000144   0.000014892   0.000005005
  22 21  0     -548.2313269139    -0.0000000001   0.000001971   0.000001023
  23 22  0     -548.2313269139    -0.0000000000   0.000000321   0.000000126

          -----------------
          DENSITY CONVERGED
          -----------------
     TIME TO FORM FOCK OPERATORS=       2.5 SECONDS (       0.1 SEC/ITER)
     TIME TO SOLVE SCF EQUATIONS=       0.0 SECONDS (       0.0 SEC/ITER)

 FINAL R-PBE ENERGY IS     -548.2313269139 AFTER  23 ITERATIONS
 DFT EXCHANGE + CORRELATION ENERGY =       -42.3948876051
 TOTAL ELECTRON NUMBER             =        32.0000212758

          ------------
          EIGENVECTORS
          ------------

                      1          2          3          4          5
                  -88.2297   -18.8193   -18.8193    -7.8420    -5.8687
                     A          A          A          A          A   
    1  S  1  S    0.997756  -0.000000  -0.000011  -0.308375  -0.000000
    2  S  1  S    0.008275  -0.000001  -0.000027   1.031701   0.000000
    3  S  1  S   -0.003081   0.000009   0.000201   0.027862   0.000000
    4  S  1  S    0.000707   0.000309   0.007170  -0.005375  -0.000000
    5  S  1  X   -0.000000  -0.000067   0.000003  -0.000000   0.994574
    6  S  1  Y    0.000137  -0.000004  -0.000098   0.012166  -0.000001
    7  S  1  Z    0.000000   0.000000   0.000000   0.000000   0.000000
    8  S  1  X    0.000000   0.001871  -0.000081   0.000000   0.017410
    9  S  1  Y   -0.000332   0.000050   0.001159   0.001236  -0.000000
   10  S  1  Z    0.000000   0.000000   0.000000   0.000000   0.000000
   11  S  1  X    0.000000   0.004748  -0.000205  -0.000000  -0.002383
   12  S  1  Y   -0.000018   0.000100   0.002309  -0.000212  -0.000000
   13  S  1  Z    0.000000   0.000000   0.000000   0.000000   0.000000
   14  S  1 XX   -0.000348   0.000021   0.000477   0.001006  -0.000000
   15  S  1 YY    0.000128  -0.000000  -0.000006  -0.000479   0.000000
   16  S  1 ZZ    0.000220  -0.000020  -0.000471  -0.000527   0.000000
   17  S  1 XY    0.000000   0.000198  -0.000009  -0.000000   0.001401
   18  S  1 XZ    0.000000   0.000000   0.000000   0.000000   0.000000
   19  S  1 YZ    0.000000   0.000000   0.000000   0.000000   0.000000
   20  O  2  S   -0.000017   0.731876   0.671456  -0.000033  -0.000287
   21  O  2  S   -0.000182   0.024826   0.022815  -0.000059  -0.000029
   22  O  2  S    0.000493  -0.012098  -0.011059  -0.000580  -0.000907
   23  O  2  X   -0.000047  -0.000843  -0.000971   0.000224  -0.000311
   24  O  2  Y   -0.000021  -0.000436  -0.000152   0.000089  -0.000126
   25  O  2  Z    0.000000   0.000000   0.000000   0.000000   0.000000
   26  O  2  X   -0.000476   0.001919   0.003029   0.000995   0.001067
   27  O  2  Y   -0.000200   0.001500   0.000319   0.000473   0.000457
   28  O  2  Z    0.000000   0.000000   0.000000   0.000000   0.000000
   29  O  2 XX    0.000219  -0.000133  -0.000345  -0.000076   0.000608
   30  O  2 YY   -0.000071  -0.000010   0.000158   0.000009  -0.000187
   31  O  2 ZZ   -0.000148   0.000143   0.000187   0.000067  -0.000421
   32  O  2 XY    0.000187  -0.000224  -0.000128  -0.000104   0.000547
   33  O  2 XZ    0.000000   0.000000   0.000000   0.000000   0.000000
   34  O  2 YZ    0.000000   0.000000   0.000000   0.000000   0.000000
   35  O  3  S   -0.000017  -0.671450   0.731881  -0.000033   0.000287
   36  O  3  S   -0.000182  -0.022772   0.024864  -0.000059   0.000029
   37  O  3  S    0.000493   0.011102  -0.012058  -0.000580   0.000907
   38  O  3  X    0.000047  -0.000757   0.001039  -0.000224  -0.000311
   39  O  3  Y   -0.000021   0.000422  -0.000189   0.000089   0.000126
   40  O  3  Z    0.000000   0.000000   0.000000   0.000000   0.000000
   41  O  3  X    0.000476   0.001651  -0.003183  -0.000995   0.001067
   42  O  3  Y   -0.000200  -0.001467   0.000447   0.000473  -0.000457
   43  O  3  Z    0.000000   0.000000   0.000000   0.000000   0.000000
   44  O  3 XX    0.000219   0.000102  -0.000355  -0.000076  -0.000608
   45  O  3 YY   -0.000071   0.000024   0.000157   0.000009   0.000187
   46  O  3 ZZ   -0.000148  -0.000126   0.000198   0.000067   0.000421
   47  O  3 XY   -0.000187  -0.000212   0.000146   0.000104   0.000547
   48  O  3 XZ    0.000000   0.000000   0.000000   0.000000   0.000000
   49  O  3 YZ    0.000000   0.000000   0.000000   0.000000   0.000000

                      6          7          8          9         10
                   -5.8669    -5.8624    -1.0129    -0.9508    -0.6029
                     A          A          A          A          A   
    1  S  1  S    0.000000   0.003824   0.049372   0.000000   0.067102
    2  S  1  S    0.000000  -0.013173  -0.303867  -0.000000  -0.429679
    3  S  1  S    0.000000   0.000203   0.425368  -0.000001   0.662714
    4  S  1  S    0.000000   0.000390   0.069236   0.000005   0.235557
    5  S  1  X    0.000000   0.000001  -0.000000   0.122627   0.000000
    6  S  1  Y    0.000000   0.994946  -0.046199  -0.000000   0.017651
    7  S  1  Z    0.995007   0.000000   0.000000   0.000000   0.000000
    8  S  1  X    0.000000   0.000000   0.000001  -0.274334  -0.000000
    9  S  1  Y    0.000000   0.015731   0.102629   0.000001  -0.035611
   10  S  1  Z    0.015783   0.000000   0.000000   0.000000   0.000000
   11  S  1  X    0.000000  -0.000000   0.000003   0.012358  -0.000002
   12  S  1  Y    0.000000  -0.002820  -0.012730   0.000002  -0.028939
   13  S  1  Z   -0.003027   0.000000   0.000000   0.000000   0.000000
   14  S  1 XX    0.000000  -0.000377   0.054830   0.000001  -0.016822
   15  S  1 YY    0.000000   0.000903  -0.019941  -0.000000   0.001206
   16  S  1 ZZ    0.000000  -0.000526  -0.034889  -0.000001   0.015616
   17  S  1 XY    0.000000   0.000000   0.000001  -0.059656  -0.000000
   18  S  1 XZ    0.000000   0.000000   0.000000   0.000000   0.000000
   19  S  1 YZ    0.000776   0.000000   0.000000   0.000000   0.000000
   20  O  2  S    0.000000  -0.000128  -0.137921   0.161779   0.115202
   21  O  2  S    0.000000  -0.000030   0.282009  -0.335505  -0.246074
   22  O  2  S    0.000000  -0.000102   0.256733  -0.305289  -0.319480
   23  O  2  X    0.000000  -0.000199  -0.100520   0.093184  -0.148427
   24  O  2  Y    0.000000  -0.000120  -0.036593   0.038120  -0.066759
   25  O  2  Z   -0.000053   0.000000   0.000000   0.000000   0.000000
   26  O  2  X    0.000000   0.000400  -0.037635   0.022097  -0.070594
   27  O  2  Y    0.000000  -0.000090  -0.010213   0.010523  -0.026162
   28  O  2  Z   -0.000149   0.000000   0.000000   0.000000   0.000000
   29  O  2 XX    0.000000   0.000264   0.010478  -0.007160   0.006407
   30  O  2 YY    0.000000  -0.000057  -0.005926   0.003677  -0.000998
   31  O  2 ZZ    0.000000  -0.000207  -0.004552   0.003483  -0.005409
   32  O  2 XY    0.000000   0.000370   0.005307  -0.006551   0.006011
   33  O  2 XZ    0.000104   0.000000   0.000000   0.000000   0.000000
   34  O  2 YZ    0.000025   0.000000   0.000000   0.000000   0.000000
   35  O  3  S    0.000000  -0.000128  -0.137921  -0.161778   0.115203
   36  O  3  S    0.000000  -0.000030   0.282008   0.335507  -0.246074
   37  O  3  S    0.000000  -0.000102   0.256740   0.305282  -0.319483
   38  O  3  X    0.000000   0.000199   0.100519   0.093184   0.148427
   39  O  3  Y    0.000000  -0.000120  -0.036593  -0.038120  -0.066759
   40  O  3  Z   -0.000053   0.000000   0.000000   0.000000   0.000000
   41  O  3  X    0.000000  -0.000400   0.037636   0.022094   0.070594
   42  O  3  Y    0.000000  -0.000090  -0.010214  -0.010522  -0.026161
   43  O  3  Z   -0.000149   0.000000   0.000000   0.000000   0.000000
   44  O  3 XX    0.000000   0.000264   0.010478   0.007159   0.006407
   45  O  3 YY    0.000000  -0.000057  -0.005926  -0.003677  -0.000998
   46  O  3 ZZ    0.000000  -0.000207  -0.004552  -0.003483  -0.005409
   47  O  3 XY    0.000000  -0.000370  -0.005307  -0.006551  -0.006011
   48  O  3 XZ   -0.000104   0.000000   0.000000   0.000000   0.000000
   49  O  3 YZ    0.000025   0.000000   0.000000   0.000000   0.000000

                     11         12         13         14         15
                   -0.4469    -0.4279    -0.4222    -0.3341    -0.3204
                     A          A          A          A          A   
    1  S  1  S   -0.000000   0.000000  -0.010426   0.000000  -0.000000
    2  S  1  S    0.000000   0.000000   0.066427   0.000000   0.000000
    3  S  1  S   -0.000000   0.000000  -0.086521   0.000000  -0.000001
    4  S  1  S   -0.000000   0.000000  -0.135911   0.000000   0.000001
    5  S  1  X   -0.177500   0.000000   0.000000   0.000000  -0.017661
    6  S  1  Y   -0.000000   0.000000  -0.209357   0.000000   0.000000
    7  S  1  Z    0.000000  -0.213736   0.000000  -0.000000   0.000000
    8  S  1  X    0.480033   0.000000  -0.000000   0.000000   0.045108
    9  S  1  Y    0.000000   0.000000   0.560157   0.000000  -0.000000
   10  S  1  Z    0.000000   0.575392   0.000000   0.000000   0.000000
   11  S  1  X   -0.020117   0.000000   0.000001   0.000000   0.083778
   12  S  1  Y    0.000000   0.000000   0.124075   0.000000   0.000001
   13  S  1  Z    0.000000   0.146929   0.000000  -0.000000   0.000000
   14  S  1 XX   -0.000000   0.000000  -0.032892   0.000000   0.000000
   15  S  1 YY    0.000000   0.000000   0.051370   0.000000  -0.000000
   16  S  1 ZZ    0.000000   0.000000  -0.018478   0.000000  -0.000000
   17  S  1 XY    0.043354   0.000000   0.000000   0.000000  -0.111525
   18  S  1 XZ    0.000000   0.000000   0.000000   0.118162   0.000000
   19  S  1 YZ    0.000000   0.041400   0.000000  -0.000000   0.000000
   20  O  2  S    0.071411   0.000000   0.018850   0.000000   0.000519
   21  O  2  S   -0.151381   0.000000  -0.040583   0.000000  -0.000220
   22  O  2  S   -0.235935   0.000000  -0.064046   0.000000  -0.026951
   23  O  2  X   -0.329177   0.000000  -0.226453   0.000000   0.249867
   24  O  2  Y   -0.179007   0.000000   0.211330   0.000000  -0.393840
   25  O  2  Z    0.000000   0.305395   0.000000   0.464763   0.000000
   26  O  2  X   -0.159744   0.000000  -0.137766   0.000000   0.165693
   27  O  2  Y   -0.098664   0.000000   0.132834   0.000000  -0.276421
   28  O  2  Z    0.000000   0.184913   0.000000   0.328391   0.000000
   29  O  2 XX    0.009077   0.000000   0.017490   0.000000  -0.010216
   30  O  2 YY   -0.000902   0.000000  -0.012797   0.000000   0.011248
   31  O  2 ZZ   -0.008176   0.000000  -0.004693   0.000000  -0.001032
   32  O  2 XY    0.012429   0.000000  -0.008725   0.000000   0.014556
   33  O  2 XZ    0.000000  -0.019088   0.000000  -0.017598   0.000000
   34  O  2 YZ    0.000000  -0.007086   0.000000  -0.007327   0.000000
   35  O  3  S   -0.071411   0.000000   0.018850   0.000000  -0.000519
   36  O  3  S    0.151380   0.000000  -0.040584   0.000000   0.000220
   37  O  3  S    0.235936   0.000000  -0.064045   0.000000   0.026950
   38  O  3  X   -0.329177   0.000000   0.226454   0.000000   0.249866
   39  O  3  Y    0.179007   0.000000   0.211329   0.000000   0.393840
   40  O  3  Z    0.000000   0.305396   0.000000  -0.464762   0.000000
   41  O  3  X   -0.159742   0.000000   0.137767   0.000000   0.165692
   42  O  3  Y    0.098664   0.000000   0.132833   0.000000   0.276421
   43  O  3  Z    0.000000   0.184913   0.000000  -0.328391   0.000000
   44  O  3 XX   -0.009077   0.000000   0.017490   0.000000   0.010216
   45  O  3 YY    0.000902   0.000000  -0.012797   0.000000  -0.011248
   46  O  3 ZZ    0.008176   0.000000  -0.004693   0.000000   0.001032
   47  O  3 XY    0.012429   0.000000   0.008725   0.000000   0.014556
   48  O  3 XZ    0.000000   0.019088   0.000000  -0.017598   0.000000
   49  O  3 YZ    0.000000  -0.007086   0.000000   0.007327   0.000000

                     16         17         18         19         20
                   -0.2756    -0.1850    -0.0849     0.0557     0.2124
                     A          A          A          A          A   
    1  S  1  S    0.024576   0.000000   0.024441  -0.000000   0.000000
    2  S  1  S   -0.159289   0.000000  -0.163469   0.000000   0.000000
    3  S  1  S    0.197000   0.000000   0.233257  -0.000002   0.000000
    4  S  1  S    0.472849   0.000000   0.548851  -0.000004   0.000000
    5  S  1  X   -0.000000   0.000000  -0.000000  -0.174098   0.000000
    6  S  1  Y    0.102906   0.000000  -0.197252  -0.000000   0.000000
    7  S  1  Z    0.000000  -0.227096   0.000000   0.000000   0.246380
    8  S  1  X    0.000000   0.000000   0.000001   0.548342   0.000000
    9  S  1  Y   -0.284725   0.000000   0.612229  -0.000001   0.000000
   10  S  1  Z    0.000000   0.672190   0.000000   0.000000  -0.975529
   11  S  1  X   -0.000001   0.000000  -0.000007   1.134422   0.000000
   12  S  1  Y   -0.027271   0.000000   0.448475   0.000000   0.000000
   13  S  1  Z    0.000000   0.294161   0.000000   0.000000   1.313171
   14  S  1 XX   -0.154104   0.000000  -0.143516  -0.000004   0.000000
   15  S  1 YY    0.082476   0.000000   0.015775   0.000001   0.000000
   16  S  1 ZZ    0.071628   0.000000   0.127741   0.000003   0.000000
   17  S  1 XY    0.000000   0.000000   0.000001  -0.189273   0.000000
   18  S  1 XZ    0.000000   0.000000   0.000000   0.000000   0.000000
   19  S  1 YZ    0.000000  -0.037230   0.000000   0.000000  -0.087117
   20  O  2  S    0.005155   0.000000   0.040827   0.064726   0.000000
   21  O  2  S   -0.012727   0.000000  -0.092804  -0.125701   0.000000
   22  O  2  S   -0.062758   0.000000  -0.280906  -0.621663   0.000000
   23  O  2  X    0.175428   0.000000   0.369600   0.124894   0.000000
   24  O  2  Y    0.398139   0.000000  -0.138657   0.236036   0.000000
   25  O  2  Z    0.000000  -0.393506   0.000000   0.000000  -0.052101
   26  O  2  X    0.120764   0.000000   0.332737   0.178861   0.000000
   27  O  2  Y    0.285410   0.000000  -0.119352   0.230961   0.000000
   28  O  2  Z    0.000000  -0.316051   0.000000   0.000000  -0.126229
   29  O  2 XX   -0.000539   0.000000   0.001655  -0.004481   0.000000
   30  O  2 YY   -0.002540   0.000000  -0.003533   0.006183   0.000000
   31  O  2 ZZ    0.003079   0.000000   0.001877  -0.001702   0.000000
   32  O  2 XY   -0.009290   0.000000  -0.003504   0.005127   0.000000
   33  O  2 XZ    0.000000   0.001622   0.000000   0.000000   0.017861
   34  O  2 YZ    0.000000  -0.000283   0.000000   0.000000   0.005315
   35  O  3  S    0.005155   0.000000   0.040827  -0.064725   0.000000
   36  O  3  S   -0.012728   0.000000  -0.092807   0.125690   0.000000
   37  O  3  S   -0.062759   0.000000  -0.280910   0.621677   0.000000
   38  O  3  X   -0.175429   0.000000  -0.369601   0.124888   0.000000
   39  O  3  Y    0.398138   0.000000  -0.138656  -0.236037   0.000000
   40  O  3  Z    0.000000  -0.393506   0.000000   0.000000  -0.052101
   41  O  3  X   -0.120764   0.000000  -0.332736   0.178869   0.000000
   42  O  3  Y    0.285410   0.000000  -0.119350  -0.230965   0.000000
   43  O  3  Z    0.000000  -0.316051   0.000000   0.000000  -0.126229
   44  O  3 XX   -0.000539   0.000000   0.001655   0.004482   0.000000
   45  O  3 YY   -0.002540   0.000000  -0.003533  -0.006183   0.000000
   46  O  3 ZZ    0.003079   0.000000   0.001877   0.001701   0.000000
   47  O  3 XY    0.009290   0.000000   0.003504   0.005127   0.000000
   48  O  3 XZ    0.000000  -0.001622   0.000000   0.000000  -0.017861
   49  O  3 YZ    0.000000  -0.000283   0.000000   0.000000   0.005315

                     21         22         23         24         25
                    0.2219     0.2446     0.2889     0.5065     0.5100
                     A          A          A          A          A   
    1  S  1  S    0.015485  -0.067295  -0.000001   0.000000   0.000453
    2  S  1  S   -0.112988   0.493444   0.000005   0.000000  -0.002713
    3  S  1  S    0.375883  -1.875370  -0.000018   0.000000  -0.010698
    4  S  1  S   -0.307568   2.178817   0.000010   0.000000   0.063759
    5  S  1  X   -0.000001  -0.000003   0.296564   0.000000  -0.000000
    6  S  1  Y    0.245688   0.037519   0.000001   0.000000   0.024252
    7  S  1  Z    0.000000   0.000000   0.000000   0.025510   0.000000
    8  S  1  X    0.000003   0.000015  -1.133258   0.000000   0.000001
    9  S  1  Y   -0.967719  -0.132953  -0.000005   0.000000  -0.101750
   10  S  1  Z    0.000000   0.000000   0.000000  -0.106625   0.000000
   11  S  1  X   -0.000002  -0.000010   1.352090   0.000000   0.000000
   12  S  1  Y    1.289208   0.420901   0.000004   0.000000   0.113040
   13  S  1  Z    0.000000   0.000000   0.000000   0.094036   0.000000
   14  S  1 XX    0.110824   0.039621  -0.000004   0.000000  -0.098897
   15  S  1 YY   -0.117113  -0.048879   0.000001   0.000000   0.868440
   16  S  1 ZZ    0.006289   0.009259   0.000003   0.000000  -0.769543
   17  S  1 XY    0.000000   0.000001   0.212805   0.000000   0.000000
   18  S  1 XZ    0.000000   0.000000   0.000000  -0.000001   0.000000
   19  S  1 YZ    0.000000   0.000000   0.000000   0.961486   0.000000
   20  O  2  S    0.004035   0.019351   0.001290   0.000000   0.004675
   21  O  2  S    0.013147  -0.012441   0.058733   0.000000  -0.019124
   22  O  2  S   -0.132184  -0.448053  -0.386480   0.000000  -0.023998
   23  O  2  X   -0.043963  -0.151250  -0.263360   0.000000   0.080301
   24  O  2  Y   -0.042270  -0.107413  -0.129605   0.000000  -0.195192
   25  O  2  Z    0.000000   0.000000   0.000000  -0.184479   0.000000
   26  O  2  X    0.017938   0.129533  -0.110332   0.000000  -0.010575
   27  O  2  Y   -0.110269   0.010932  -0.020421   0.000000   0.077958
   28  O  2  Z    0.000000   0.000000   0.000000   0.064947   0.000000
   29  O  2 XX   -0.018019  -0.034150  -0.023804   0.000000   0.017473
   30  O  2 YY    0.012901   0.011858   0.001178   0.000000   0.004517
   31  O  2 ZZ    0.005118   0.022292   0.022626   0.000000  -0.021991
   32  O  2 XY    0.009525  -0.024176  -0.035424   0.000000  -0.031996
   33  O  2 XZ    0.000000   0.000000   0.000000  -0.033766   0.000000
   34  O  2 YZ    0.000000   0.000000   0.000000   0.016650   0.000000
   35  O  3  S    0.004035   0.019351  -0.001289   0.000000   0.004675
   36  O  3  S    0.013145  -0.012448  -0.058743   0.000000  -0.019125
   37  O  3  S   -0.132182  -0.448046   0.386490   0.000000  -0.023997
   38  O  3  X    0.043963   0.151251  -0.263362   0.000000  -0.080301
   39  O  3  Y   -0.042271  -0.107415   0.129602   0.000000  -0.195192
   40  O  3  Z    0.000000   0.000000   0.000000  -0.184480   0.000000
   41  O  3  X   -0.017935  -0.129521  -0.110321   0.000000   0.010577
   42  O  3  Y   -0.110269   0.010929   0.020417   0.000000   0.077958
   43  O  3  Z    0.000000   0.000000   0.000000   0.064947   0.000000
   44  O  3 XX   -0.018019  -0.034150   0.023804   0.000000   0.017473
   45  O  3 YY    0.012901   0.011858  -0.001178   0.000000   0.004517
   46  O  3 ZZ    0.005119   0.022292  -0.022625   0.000000  -0.021991
   47  O  3 XY   -0.009525   0.024177  -0.035424   0.000000   0.031996
   48  O  3 XZ    0.000000   0.000000   0.000000   0.033766   0.000000
   49  O  3 YZ    0.000000   0.000000   0.000000   0.016650   0.000000

                     26         27         28         29         30
                    0.5188     0.6404     0.6602     0.7783     0.7983
                     A          A          A          A          A   
    1  S  1  S    0.000000  -0.000000   0.016243   0.000000  -0.000000
    2  S  1  S    0.000000   0.000000  -0.130017   0.000000   0.000000
    3  S  1  S    0.000000  -0.000001   0.461451   0.000000  -0.000002
    4  S  1  S    0.000000  -0.000012   0.834361   0.000000  -0.000003
    5  S  1  X    0.000000  -0.160598  -0.000001   0.000000  -0.034734
    6  S  1  Y    0.000000   0.000000  -0.075198   0.000000   0.000000
    7  S  1  Z    0.000000   0.000000   0.000000   0.000000   0.000000
    8  S  1  X    0.000000   0.828519   0.000006   0.000000   0.271244
    9  S  1  Y    0.000000  -0.000003   0.405163   0.000000  -0.000001
   10  S  1  Z   -0.000000   0.000000   0.000000  -0.000000   0.000000
   11  S  1  X    0.000000   0.190999   0.000007   0.000000  -0.273070
   12  S  1  Y    0.000000  -0.000003   0.107495   0.000000   0.000002
   13  S  1  Z    0.000000   0.000000   0.000000   0.000000   0.000000
   14  S  1 XX    0.000000  -0.000003   0.676760   0.000000  -0.000001
   15  S  1 YY    0.000000   0.000001  -0.210095   0.000000   0.000001
   16  S  1 ZZ    0.000000   0.000003  -0.466665   0.000000  -0.000000
   17  S  1 XY    0.000000   0.746094   0.000005   0.000000   0.228434
   18  S  1 XZ    0.862590   0.000000   0.000000  -0.526547   0.000000
   19  S  1 YZ    0.000001   0.000000   0.000000  -0.000000   0.000000
   20  O  2  S    0.000000   0.066885   0.072857   0.000000  -0.003693
   21  O  2  S    0.000000  -0.229431  -0.257679   0.000000   0.092670
   22  O  2  S    0.000000  -0.307866  -0.327390   0.000000  -0.105237
   23  O  2  X    0.000000  -0.047691  -0.320853   0.000000  -0.377843
   24  O  2  Y    0.000000  -0.266525   0.030420   0.000000   0.480637
   25  O  2  Z   -0.367315   0.000000   0.000000  -0.542567   0.000000
   26  O  2  X    0.000000   0.692774   0.949092   0.000000   0.649219
   27  O  2  Y    0.000000   0.451457   0.253900   0.000000  -0.557809
   28  O  2  Z    0.127183   0.000000   0.000000   0.778013   0.000000
   29  O  2 XX    0.000000   0.046335   0.002573   0.000000   0.036010
   30  O  2 YY    0.000000  -0.036170   0.011259   0.000000  -0.021664
   31  O  2 ZZ    0.000000  -0.010164  -0.013832   0.000000  -0.014346
   32  O  2 XY    0.000000  -0.002449   0.020268   0.000000  -0.001650
   33  O  2 XZ   -0.053982   0.000000   0.000000   0.055656   0.000000
   34  O  2 YZ   -0.033808   0.000000   0.000000   0.030266   0.000000
   35  O  3  S    0.000000  -0.066886   0.072856   0.000000   0.003691
   36  O  3  S    0.000000   0.229429  -0.257680   0.000000  -0.092659
   37  O  3  S    0.000000   0.307879  -0.327376   0.000000   0.105229
   38  O  3  X    0.000000  -0.047699   0.320842   0.000000  -0.377851
   39  O  3  Y    0.000000   0.266527   0.030419   0.000000  -0.480629
   40  O  3  Z    0.367314   0.000000   0.000000   0.542567   0.000000
   41  O  3  X    0.000000   0.692792  -0.949069   0.000000   0.649230
   42  O  3  Y    0.000000  -0.451463   0.253897   0.000000   0.557797
   43  O  3  Z   -0.127183   0.000000   0.000000  -0.778013   0.000000
   44  O  3 XX    0.000000  -0.046335   0.002572   0.000000  -0.036010
   45  O  3 YY    0.000000   0.036170   0.011259   0.000000   0.021664
   46  O  3 ZZ    0.000000   0.010164  -0.013831   0.000000   0.014346
   47  O  3 XY    0.000000  -0.002449  -0.020268   0.000000  -0.001649
   48  O  3 XZ   -0.053982   0.000000   0.000000   0.055656   0.000000
   49  O  3 YZ    0.033808   0.000000   0.000000  -0.030266   0.000000

                     31         32         33         34         35
                    0.8285     0.8538     0.8828     0.9374     1.4543
                     A          A          A          A          A   
    1  S  1  S    0.005863   0.000000   0.000000  -0.002196  -0.000001
    2  S  1  S   -0.051569   0.000000  -0.000000   0.032602   0.000007
    3  S  1  S    0.286564   0.000000   0.000002  -0.450081   0.000024
    4  S  1  S    0.000130   0.000000  -0.000004   0.506155  -0.000434
    5  S  1  X   -0.000000   0.000000  -0.027543  -0.000000  -0.071608
    6  S  1  Y   -0.006549   0.000000   0.000000  -0.039549   0.000010
    7  S  1  Z    0.000000   0.002239   0.000000   0.000000   0.000000
    8  S  1  X    0.000002   0.000000  -0.122512  -0.000000   0.534301
    9  S  1  Y    0.057271   0.000000  -0.000000   0.086540  -0.000071
   10  S  1  Z    0.000000  -0.027706   0.000000   0.000000   0.000000
   11  S  1  X   -0.000002   0.000000   0.246275   0.000005   1.130696
   12  S  1  Y   -0.539904   0.000000  -0.000002  -0.020263  -0.000144
   13  S  1  Z    0.000000  -0.592272   0.000000   0.000000   0.000000
   14  S  1 XX    0.161390   0.000000  -0.000002   0.886541  -0.000079
   15  S  1 YY   -0.318226   0.000000   0.000000  -0.364283   0.000014
   16  S  1 ZZ    0.156836   0.000000   0.000002  -0.522258   0.000065
   17  S  1 XY    0.000001   0.000000   0.697404   0.000001   0.219275
   18  S  1 XZ    0.000000   0.000000   0.000000   0.000000   0.000000
   19  S  1 YZ    0.000000  -0.270423   0.000000   0.000000   0.000000
   20  O  2  S   -0.010083   0.000000   0.012464   0.024995  -0.075827
   21  O  2  S    0.122771   0.000000  -0.013068  -0.044732   1.251204
   22  O  2  S   -0.095211   0.000000  -0.184699  -0.268931  -2.016147
   23  O  2  X    0.084929   0.000000   0.519732   0.523664   0.018984
   24  O  2  Y   -0.590453   0.000000   0.284984   0.173467  -0.104738
   25  O  2  Z    0.000000  -0.614785   0.000000   0.000000   0.000000
   26  O  2  X   -0.058149   0.000000  -0.438330  -0.354864   0.354631
   27  O  2  Y    0.901035   0.000000  -0.392724   0.047889   0.400106
   28  O  2  Z    0.000000   0.921947   0.000000   0.000000   0.000000
   29  O  2 XX   -0.006789   0.000000   0.032220  -0.049845   0.099286
   30  O  2 YY    0.009914   0.000000  -0.051324   0.058037  -0.026437
   31  O  2 ZZ   -0.003124   0.000000   0.019104  -0.008192  -0.072849
   32  O  2 XY    0.043912   0.000000  -0.056534   0.045188   0.111075
   33  O  2 XZ    0.000000   0.041129   0.000000   0.000000   0.000000
   34  O  2 YZ    0.000000   0.005469   0.000000   0.000000   0.000000
   35  O  3  S   -0.010084   0.000000  -0.012463   0.024996   0.075862
   36  O  3  S    0.122775   0.000000   0.013056  -0.044745  -1.251801
   37  O  3  S   -0.095215   0.000000   0.184714  -0.268914   2.017113
   38  O  3  X   -0.084935   0.000000   0.519736  -0.523657   0.018939
   39  O  3  Y   -0.590456   0.000000  -0.284988   0.173469   0.104700
   40  O  3  Z    0.000000  -0.614786   0.000000   0.000000   0.000000
   41  O  3  X    0.058158   0.000000  -0.438333   0.354857   0.354986
   42  O  3  Y    0.901039   0.000000   0.392728   0.047886  -0.400112
   43  O  3  Z    0.000000   0.921948   0.000000   0.000000   0.000000
   44  O  3 XX   -0.006790   0.000000  -0.032220  -0.049844  -0.099362
   45  O  3 YY    0.009914   0.000000   0.051324   0.058037   0.026469
   46  O  3 ZZ   -0.003124   0.000000  -0.019104  -0.008193   0.072893
   47  O  3 XY   -0.043912   0.000000  -0.056534  -0.045188   0.111106
   48  O  3 XZ    0.000000  -0.041129   0.000000   0.000000   0.000000
   49  O  3 YZ    0.000000   0.005469   0.000000   0.000000   0.000000

                     36         37         38         39         40
                    1.4608     2.0619     2.0619     2.0698     2.0778
                     A          A          A          A          A   
    1  S  1  S   -0.002890  -0.000000   0.000000   0.000000  -0.001137
    2  S  1  S    0.032879   0.000000   0.000000   0.000000   0.009749
    3  S  1  S    0.071533  -0.000000   0.000000   0.000000  -0.042112
    4  S  1  S   -1.733090   0.000000   0.000000   0.000000   0.019919
    5  S  1  X    0.000017  -0.001227   0.000000   0.000000  -0.000000
    6  S  1  Y    0.040457   0.000000   0.000000   0.000000   0.006222
    7  S  1  Z    0.000000   0.000000  -0.000000  -0.021638   0.000000
    8  S  1  X   -0.000128  -0.000055   0.000000   0.000000   0.000000
    9  S  1  Y   -0.288861  -0.000000   0.000000   0.000000  -0.027917
   10  S  1  Z    0.000000   0.000000   0.000000   0.076581   0.000000
   11  S  1  X   -0.000288   0.019115   0.000000   0.000000  -0.000000
   12  S  1  Y   -0.573955   0.000000   0.000000   0.000000   0.009641
   13  S  1  Z    0.000000   0.000000  -0.000000   0.009194   0.000000
   14  S  1 XX   -0.306003   0.000000   0.000000   0.000000   0.036393
   15  S  1 YY    0.053530   0.000000   0.000000   0.000000   0.052765
   16  S  1 ZZ    0.252473  -0.000000   0.000000   0.000000  -0.089157
   17  S  1 XY   -0.000057  -0.030005   0.000000   0.000000  -0.000000
   18  S  1 XZ    0.000000   0.000000   0.024972  -0.000000   0.000000
   19  S  1 YZ    0.000000   0.000000  -0.000000  -0.026562   0.000000
   20  O  2  S    0.071241  -0.001107   0.000000   0.000000   0.002429
   21  O  2  S   -1.220927   0.009665   0.000000   0.000000  -0.017622
   22  O  2  S    1.959882  -0.011908   0.000000   0.000000   0.005983
   23  O  2  X    0.097691   0.004354   0.000000   0.000000   0.018329
   24  O  2  Y   -0.072707  -0.010343   0.000000   0.000000   0.004374
   25  O  2  Z    0.000000   0.000000   0.006205   0.017934   0.000000
   26  O  2  X   -0.724142  -0.012730   0.000000   0.000000  -0.017297
   27  O  2  Y   -0.015574   0.014465   0.000000   0.000000  -0.004143
   28  O  2  Z    0.000000   0.000000  -0.009980  -0.028894   0.000000
   29  O  2 XX   -0.157828   0.182405   0.000000   0.000000  -0.027628
   30  O  2 YY    0.067385   0.426216   0.000000   0.000000  -0.566108
   31  O  2 ZZ    0.090443  -0.608621   0.000000   0.000000   0.593737
   32  O  2 XY   -0.062634  -0.331834   0.000000   0.000000   0.225677
   33  O  2 XZ    0.000000   0.000000   0.368573  -0.016623   0.000000
   34  O  2 YZ    0.000000   0.000000  -0.603645   0.707969   0.000000
   35  O  3  S    0.071205   0.001107   0.000000   0.000000   0.002429
   36  O  3  S   -1.220316  -0.009665   0.000000   0.000000  -0.017621
   37  O  3  S    1.958887   0.011908   0.000000   0.000000   0.005982
   38  O  3  X   -0.097705   0.004354   0.000000   0.000000  -0.018329
   39  O  3  Y   -0.072759   0.010343   0.000000   0.000000   0.004374
   40  O  3  Z    0.000000   0.000000  -0.006205   0.017934   0.000000
   41  O  3  X    0.723973  -0.012730   0.000000   0.000000   0.017297
   42  O  3  Y   -0.015374  -0.014465   0.000000   0.000000  -0.004142
   43  O  3  Z    0.000000   0.000000   0.009980  -0.028894   0.000000
   44  O  3 XX   -0.157779  -0.182405   0.000000   0.000000  -0.027628
   45  O  3 YY    0.067371  -0.426218   0.000000   0.000000  -0.566107
   46  O  3 ZZ    0.090408   0.608623   0.000000   0.000000   0.593735
   47  O  3 XY    0.062581  -0.331834   0.000000   0.000000  -0.225677
   48  O  3 XZ    0.000000   0.000000   0.368574   0.016621   0.000000
   49  O  3 YZ    0.000000   0.000000   0.603648   0.707967   0.000000

                     41         42         43         44         45
                    2.1382     2.1762     2.2525     2.2699     2.6938
                     A          A          A          A          A   
    1  S  1  S    0.000000  -0.000000  -0.005770   0.000000  -0.035588
    2  S  1  S    0.000000   0.000000   0.049241   0.000000   0.288269
    3  S  1  S    0.000000  -0.000001  -0.153477   0.000000  -0.789595
    4  S  1  S    0.000000   0.000001  -0.215607   0.000000  -0.854146
    5  S  1  X    0.000000   0.046103  -0.000000   0.000000  -0.000001
    6  S  1  Y    0.000000   0.000000   0.069857   0.000000   0.085968
    7  S  1  Z    0.056503   0.000000   0.000000  -0.000000   0.000000
    8  S  1  X    0.000000  -0.240308   0.000000   0.000000   0.000003
    9  S  1  Y    0.000000  -0.000000  -0.290513   0.000000  -0.490858
   10  S  1  Z   -0.199263   0.000000   0.000000   0.000000   0.000000
   11  S  1  X    0.000000  -0.030895  -0.000002   0.000000  -0.000004
   12  S  1  Y    0.000000   0.000000  -0.140738   0.000000  -0.090313
   13  S  1  Z   -0.065883   0.000000   0.000000  -0.000000   0.000000
   14  S  1 XX    0.000000   0.000000   0.213139   0.000000  -0.727403
   15  S  1 YY    0.000000  -0.000000  -0.279795   0.000000   0.296239
   16  S  1 ZZ    0.000000  -0.000000   0.066656   0.000000   0.431164
   17  S  1 XY    0.000000   0.297493  -0.000000   0.000000   0.000000
   18  S  1 XZ    0.000000   0.000000   0.000000   0.448913   0.000000
   19  S  1 YZ   -0.205669   0.000000   0.000000   0.000000   0.000000
   20  O  2  S    0.000000   0.009673   0.012337   0.000000   0.001664
   21  O  2  S    0.000000  -0.137642  -0.211568   0.000000  -0.507941
   22  O  2  S    0.000000   0.178659   0.322232   0.000000   1.130487
   23  O  2  X    0.000000   0.047499   0.090478   0.000000   0.002796
   24  O  2  Y    0.000000   0.065735  -0.030800   0.000000  -0.005185
   25  O  2  Z   -0.057158   0.000000   0.000000   0.039131   0.000000
   26  O  2  X    0.000000  -0.069595  -0.230562   0.000000  -0.640194
   27  O  2  Y    0.000000  -0.142823   0.104760   0.000000  -0.279407
   28  O  2  Z    0.125357   0.000000   0.000000  -0.135309   0.000000
   29  O  2 XX    0.000000  -0.329618   0.543690   0.000000   0.526930
   30  O  2 YY    0.000000   0.494355  -0.420985   0.000000  -0.109902
   31  O  2 ZZ    0.000000  -0.164737  -0.122705   0.000000  -0.417028
   32  O  2 XY    0.000000   0.510962  -0.445598   0.000000   0.595883
   33  O  2 XZ   -0.720048   0.000000   0.000000   0.628170   0.000000
   34  O  2 YZ   -0.023620   0.000000   0.000000   0.378228   0.000000
   35  O  3  S    0.000000  -0.009673   0.012337   0.000000   0.001664
   36  O  3  S    0.000000   0.137642  -0.211567   0.000000  -0.507942
   37  O  3  S    0.000000  -0.178660   0.322229   0.000000   1.130487
   38  O  3  X    0.000000   0.047499  -0.090478   0.000000  -0.002797
   39  O  3  Y    0.000000  -0.065735  -0.030801   0.000000  -0.005185
   40  O  3  Z   -0.057158   0.000000   0.000000  -0.039131   0.000000
   41  O  3  X    0.000000  -0.069595   0.230563   0.000000   0.640198
   42  O  3  Y    0.000000   0.142823   0.104761   0.000000  -0.279407
   43  O  3  Z    0.125357   0.000000   0.000000   0.135309   0.000000
   44  O  3 XX    0.000000   0.329619   0.543690   0.000000   0.526933
   45  O  3 YY    0.000000  -0.494356  -0.420985   0.000000  -0.109903
   46  O  3 ZZ    0.000000   0.164737  -0.122705   0.000000  -0.417030
   47  O  3 XY    0.000000   0.510962   0.445597   0.000000  -0.595886
   48  O  3 XZ    0.720048   0.000000   0.000000   0.628170   0.000000
   49  O  3 YZ   -0.023621   0.000000   0.000000  -0.378228   0.000000

                     46
                    2.7218
                     A   
    1  S  1  S    0.000000
    2  S  1  S   -0.000001
    3  S  1  S    0.000004
    4  S  1  S   -0.000000
    5  S  1  X   -0.224184
    6  S  1  Y   -0.000000
    7  S  1  Z    0.000000
    8  S  1  X    1.221718
    9  S  1  Y    0.000001
   10  S  1  Z    0.000000
   11  S  1  X    0.172590
   12  S  1  Y   -0.000001
   13  S  1  Z    0.000000
   14  S  1 XX    0.000001
   15  S  1 YY   -0.000000
   16  S  1 ZZ   -0.000000
   17  S  1 XY    0.553471
   18  S  1 XZ    0.000000
   19  S  1 YZ    0.000000
   20  O  2  S   -0.000965
   21  O  2  S    0.446299
   22  O  2  S   -1.017164
   23  O  2  X    0.004303
   24  O  2  Y   -0.005766
   25  O  2  Z    0.000000
   26  O  2  X    0.611528
   27  O  2  Y    0.244431
   28  O  2  Z    0.000000
   29  O  2 XX   -0.697220
   30  O  2 YY    0.327235
   31  O  2 ZZ    0.369984
   32  O  2 XY   -0.413325
   33  O  2 XZ    0.000000
   34  O  2 YZ    0.000000
   35  O  3  S    0.000965
   36  O  3  S   -0.446295
   37  O  3  S    1.017159
   38  O  3  X    0.004304
   39  O  3  Y    0.005766
   40  O  3  Z    0.000000
   41  O  3  X    0.611525
   42  O  3  Y   -0.244429
   43  O  3  Z    0.000000
   44  O  3 XX    0.697217
   45  O  3 YY   -0.327234
   46  O  3 ZZ   -0.369983
   47  O  3 XY   -0.413323
   48  O  3 XZ    0.000000
   49  O  3 YZ    0.000000
 ...... END OF RHF CALCULATION ......
 STEP CPU TIME =     2.54 TOTAL CPU TIME =          2.7 (      0.0 MIN)
 TOTAL WALL CLOCK TIME=          2.7 SECONDS, CPU UTILIZATION IS    98.53%

     ---------------------------------------------------------------------
     PROPERTIES FOR THE PBE      DFT FUNCTIONAL (RHF  TYPE) DENSITY MATRIX
     ---------------------------------------------------------------------

          -----------------
          ENERGY COMPONENTS
          -----------------

         WAVEFUNCTION NORMALIZATION =       1.0000000000

                ONE ELECTRON ENERGY =    -952.5991049687
                TWO ELECTRON ENERGY =     305.1431004585
           NUCLEAR REPULSION ENERGY =      99.2246775963
                                      ------------------
                       TOTAL ENERGY =    -548.2313269139

 ELECTRON-ELECTRON POTENTIAL ENERGY =     305.1431004585
  NUCLEUS-ELECTRON POTENTIAL ENERGY =   -1499.7073044996
   NUCLEUS-NUCLEUS POTENTIAL ENERGY =      99.2246775963
                                      ------------------
             TOTAL POTENTIAL ENERGY =   -1095.3395264448
               TOTAL KINETIC ENERGY =     547.1081995309
                 VIRIAL RATIO (V/T) =       2.0020528433

          ---------------------------------------
          MULLIKEN AND LOWDIN POPULATION ANALYSES
          ---------------------------------------

     ATOMIC MULLIKEN POPULATION IN EACH MOLECULAR ORBITAL

                      1          2          3          4          5

                  2.000000   2.000000   2.000000   2.000000   2.000000

    1             1.999944   0.001046   0.000992   2.000880   2.000330
    2             0.000028   1.085392   0.913589  -0.000440  -0.000165
    3             0.000028   0.913562   1.085419  -0.000440  -0.000165

                      6          7          8          9         10

                  2.000000   2.000000   2.000000   2.000000   2.000000

    1             2.000019   2.000042   0.659652   0.354740   0.956671
    2            -0.000009  -0.000021   0.670170   0.822634   0.521663
    3            -0.000009  -0.000021   0.670178   0.822626   0.521666

                     11         12         13         14         15

                  2.000000   2.000000   2.000000   2.000000   2.000000

    1             0.461962   1.052694   1.014558   0.085812   0.116354
    2             0.769020   0.473653   0.492720   0.957094   0.941823
    3             0.769017   0.473653   0.492722   0.957093   0.941823

                     16

                  2.000000

    1             0.625824
    2             0.687088
    3             0.687088

               ----- POPULATIONS IN EACH AO -----
                             MULLIKEN      LOWDIN
              1  S  1  S      1.99982     1.99926
              2  S  1  S      1.99231     1.88669
              3  S  1  S      1.32909     0.67127
              4  S  1  S      0.59163     0.48430
              5  S  1  X      1.99385     1.95684
              6  S  1  Y      1.99482     1.96550
              7  S  1  Z      1.99381     1.95994
              8  S  1  X      0.81159     0.67118
              9  S  1  Y      1.00192     0.92029
             10  S  1  Z      0.84764     0.75810
             11  S  1  X      0.01777     0.19089
             12  S  1  Y      0.15859     0.29386
             13  S  1  Z      0.20271     0.31102
             14  S  1 XX      0.04477     0.33736
             15  S  1 YY      0.14562     0.31290
             16  S  1 ZZ      0.11122     0.30883
             17  S  1 XY      0.08581     0.12908
             18  S  1 XZ      0.00856     0.10257
             19  S  1 YZ      0.00000     0.00822
             20  O  2  S      1.99560     1.97278
             21  O  2  S      0.95962     0.70240
             22  O  2  S      0.94129     0.53234
             23  O  2  X      0.84951     0.80832
             24  O  2  Y      1.08180     1.05052
             25  O  2  Z      0.85291     0.81667
             26  O  2  X      0.41417     0.54888
             27  O  2  Y      0.64920     0.69504
             28  O  2  Z      0.57252     0.60640
             29  O  2 XX      0.00187     0.21183
             30  O  2 YY      0.00562     0.20044
             31  O  2 ZZ      0.00482     0.20470
             32  O  2 XY      0.00458     0.00862
             33  O  2 XZ      0.00073     0.00605
             34  O  2 YZ      0.00000     0.00095
             35  O  3  S      1.99560     1.97278
             36  O  3  S      0.95962     0.70240
             37  O  3  S      0.94129     0.53234
             38  O  3  X      0.84951     0.80832
             39  O  3  Y      1.08180     1.05052
             40  O  3  Z      0.85291     0.81667
             41  O  3  X      0.41417     0.54888
             42  O  3  Y      0.64920     0.69504
             43  O  3  Z      0.57252     0.60640
             44  O  3 XX      0.00187     0.21183
             45  O  3 YY      0.00562     0.20044
             46  O  3 ZZ      0.00482     0.20470
             47  O  3 XY      0.00458     0.00862
             48  O  3 XZ      0.00073     0.00605
             49  O  3 YZ      0.00000     0.00095

          ----- MULLIKEN ATOMIC OVERLAP POPULATIONS -----
          (OFF-DIAGONAL ELEMENTS NEED TO BE MULTIPLIED BY 2)

             1           2           3

    1   14.7840887
    2    0.2737165   8.0663982
    3    0.2737152  -0.0058748   8.0663994

          TOTAL MULLIKEN AND LOWDIN ATOMIC POPULATIONS
       ATOM         MULL.POP.    CHARGE          LOW.POP.     CHARGE
    1 S            15.331520    0.668480        15.268105    0.731895
    2 O             8.334240   -0.334240         8.365948   -0.365948
    3 O             8.334240   -0.334240         8.365948   -0.365948

          MULLIKEN SPHERICAL HARMONIC POPULATIONS
       ATOM           S       P       D      F      G      H      I    TOTAL
    1 S             5.91    9.02    0.40   0.00   0.00   0.00   0.00   15.33
    2 O             3.90    4.42    0.02   0.00   0.00   0.00   0.00    8.33
    3 O             3.90    4.42    0.02   0.00   0.00   0.00   0.00    8.33

          -------------------------------
          BOND ORDER AND VALENCE ANALYSIS     BOND ORDER THRESHOLD=0.050
          -------------------------------

                   BOND                       BOND                       BOND
  ATOM PAIR DIST  ORDER      ATOM PAIR DIST  ORDER      ATOM PAIR DIST  ORDER
    1   2  1.550  1.803        1   3  1.550  1.803        2   3  2.864  0.339

                       TOTAL       BONDED        FREE
      ATOM            VALENCE     VALENCE     VALENCE
    1 S                 3.606       3.606      -0.000
    2 O                 2.143       2.143       0.000
    3 O                 2.143       2.143       0.000

          ---------------------
          ELECTROSTATIC MOMENTS
          ---------------------

 POINT   1           X           Y           Z (BOHR)    CHARGE
                -0.000000    0.000000    0.000000        0.00 (A.U.)
         DX          DY          DZ         /D/  (DEBYE)
    -0.000001   -1.118187    0.000000    1.118187
 ...... END OF PROPERTY EVALUATION ......
 STEP CPU TIME =     0.01 TOTAL CPU TIME =          2.7 (      0.0 MIN)
 TOTAL WALL CLOCK TIME=          2.7 SECONDS, CPU UTILIZATION IS    98.54%
                580000  WORDS OF DYNAMIC MEMORY USED
 EXECUTION OF GAMESS TERMINATED NORMALLY Sun Sep 29 10:50:26 2019
 DDI: 263640 bytes (0.3 MB / 0 MWords) used by master data server.

 ----------------------------------------
 CPU timing information for all processes
 ========================================
 0: 2.604 + 0.101 = 2.705
 ----------------------------------------
 ddikick.x: exited gracefully.
----- accounting info -----
Files used on the master node crcfe02.crc.nd.edu were:
-rw-r--r-- 1 cdrisko campus     208 Sep 29 10:50 /afs/crc.nd.edu/user/c/cdrisko/SO2.F05
-rw-r--r-- 1 cdrisko campus   37566 Sep 29 10:50 /afs/crc.nd.edu/user/c/cdrisko/SO2.F07
-rw-r--r-- 1 cdrisko campus 4140368 Sep 29 10:50 /afs/crc.nd.edu/user/c/cdrisko/SO2.F08
-rw-r--r-- 1 cdrisko campus 1766880 Sep 29 10:50 /afs/crc.nd.edu/user/c/cdrisko/SO2.F10
Sun Sep 29 10:50:29 EDT 2019
0.454u 0.238s 0:06.40 10.6%	0+0k 0+24io 0pf+0w
