----- GAMESS execution script 'rungms' -----
This job is running on host crcfe02.crc.nd.edu
under operating system Linux at Sun Sep 29 10:49:32 EDT 2019
Available scratch disk space (Kbyte units) at beginning of the job is
Filesystem      1K-blocks  Used  Available Use% Mounted on
AFS            2147483647     0 2147483647   0% /afs
GAMESS temporary binary files will be written to /afs/crc.nd.edu/user/c/cdrisko
GAMESS supplementary output files will be written to /afs/crc.nd.edu/user/c/cdrisko/scr
Copying input file SO2.inp to your run's scratch directory...

 Distributed Data Interface kickoff program.
 Initiating 1 compute processes on 1 nodes to run the following command:
 /afs/crc.nd.edu/x86_64_linux/g/gamess/nov-2017/gamess/gamess.00.x SO2 

          ******************************************************
          *         GAMESS VERSION = 11 NOV 2017 (R3)         *
          *             FROM IOWA STATE UNIVERSITY             *
          * M.W.SCHMIDT, K.K.BALDRIDGE, J.A.BOATZ, S.T.ELBERT, *
          *   M.S.GORDON, J.H.JENSEN, S.KOSEKI, N.MATSUNAGA,   *
          *          K.A.NGUYEN, S.J.SU, T.L.WINDUS,           *
          *       TOGETHER WITH M.DUPUIS, J.A.MONTGOMERY       *
          *         J.COMPUT.CHEM.  14, 1347-1363(1993)        *
          **************** 64 BIT INTEL VERSION ****************

  SINCE 1993, STUDENTS AND POSTDOCS WORKING AT IOWA STATE UNIVERSITY
  AND ALSO IN THEIR VARIOUS JOBS AFTER LEAVING ISU HAVE MADE IMPORTANT
  CONTRIBUTIONS TO THE CODE:
     IVANA ADAMOVIC, CHRISTINE AIKENS, YURI ALEXEEV, POOJA ARORA,
     ANDREY ASADCHEV, ROB BELL, PRADIPTA BANDYOPADHYAY, JONATHAN BENTZ,
     BRETT BODE, KURT BRORSEN, CALEB CARLIN, GALINA CHABAN, WEI CHEN,
     CHEOL HO CHOI, PAUL DAY, ALBERT DEFUSCO, NUWAN DESILVA, TIM DUDLEY,
     DMITRI FEDOROV, ALEX FINDLATER, GRAHAM FLETCHER, MARK FREITAG,
     KURT GLAESEMANN, ANASTASIA GUININA,
     DAN KEMP, GRANT MERRILL, NORIYUKI MINEZAWA, JONATHAN MULLIN,
     TAKESHI NAGATA, SEAN NEDD, HEATHER NETZLOFF, BOSILJKA NJEGIC, RYAN OLSON,
     MIKE PAK, BUU PHAM,
     SPENCER PRUITT, LUKE ROSKOP, JIM SHOEMAKER, LYUDMILA SLIPCHENKO,
     TONY SMITH, SAROM SOK LEANG, JIE SONG, TETSUYA TAKETSUGU, SIMON WEBB,
     PENG XU, SOOHAENG YOO, FEDERICO ZAHARIEV

  ADDITIONAL CODE HAS BEEN PROVIDED BY COLLABORATORS IN OTHER GROUPS:
     IOWA STATE UNIVERSITY:
          JOE IVANIC, AARON WEST, LAIMUTIS BYTAUTAS, KLAUS RUEDENBERG
     UNIVERSITY OF TOKYO: KIMIHIKO HIRAO, TAKAHITO NAKAJIMA,
          TAKAO TSUNEDA, MUNEAKI KAMIYA, SUSUMU YANAGISAWA,
          KIYOSHI YAGI, MAHITO CHIBA, SEIKEN TOKURA, NAOAKI KAWAKAMI
     UNIVERSITY OF AARHUS: FRANK JENSEN
     UNIVERSITY OF IOWA: VISVALDAS KAIRYS, HUI LI
     NATIONAL INST. OF STANDARDS AND TECHNOLOGY: WALT STEVENS, DAVID GARMER
     UNIVERSITY OF PISA: BENEDETTA MENNUCCI, JACOPO TOMASI
     UNIVERSITY OF MEMPHIS: HENRY KURTZ, PRAKASHAN KORAMBATH
     UNIVERSITY OF ALBERTA: TOBY ZENG, MARIUSZ KLOBUKOWSKI
     UNIVERSITY OF NEW ENGLAND: MARK SPACKMAN
     MIE UNIVERSITY: HIROAKI UMEDA
     NAT. INST. OF ADVANCED INDUSTRIAL SCIENCE AND TECHNOLOGY: KAZUO KITAURA
     MICHIGAN STATE UNIVERSITY:
          KAROL KOWALSKI, MARTA WLOCH, JEFFREY GOUR, JESSE LUTZ,
          WEI LI, PIOTR PIECUCH
     UNIVERSITY OF SILESIA: MONIKA MUSIAL, STANISLAW KUCHARSKI
     FACULTES UNIVERSITAIRES NOTRE-DAME DE LA PAIX:
          OLIVIER QUINET, BENOIT CHAMPAGNE
     UNIVERSITY OF CALIFORNIA - SANTA BARBARA: BERNARD KIRTMAN
     INSTITUTE FOR MOLECULAR SCIENCE:
          KAZUYA ISHIMURA, MICHIO KATOUDA, AND SHIGERU NAGASE
     UNIVERSITY OF NOTRE DAME: ANNA POMOGAEVA, DAN CHIPMAN
     KYUSHU UNIVERSITY:
          HARUYUKI NAKANO,
          FENG LONG GU, JACEK KORCHOWIEC, MARCIN MAKOWSKI, AND YURIKO AOKI,
          HIROTOSHI MORI AND EISAKU MIYOSHI
     PENNSYLVANIA STATE UNIVERSITY:
          TZVETELIN IORDANOV, CHET SWALINA, JONATHAN SKONE,
          SHARON HAMMES-SCHIFFER
     WASEDA UNIVERSITY:
          MASATO KOBAYASHI, TOMOKO AKAMA, TSUGUKI TOUMA,
          TAKESHI YOSHIKAWA, YASUHIRO IKABATA, JUNJI SEINO,
          YUYA NAKAJIMA, HIROMI NAKAI
     NANJING UNIVERSITY: SHUHUA LI
     UNIVERSITY OF NEBRASKA:
          PEIFENG SU, DEJUN SI, NANDUN THELLAMUREGE, YALI WANG, HUI LI
     UNIVERSITY OF ZURICH: ROBERTO PEVERATI, KIM BALDRIDGE
     N. COPERNICUS UNIVERSITY AND JACKSON STATE UNIVERSITY:
          MARIA BARYSZ
     UNIVERSITY OF COPENHAGEN: Jimmy Kromann, CASPER STEINMANN
     TOKYO INSTITUTE OF TECHNOLOGY: HIROYA NAKATA
     NAGOYA UNIVERSITY: YOSHIO NISHIMOTO, STEPHAN IRLE
     MOSCOW STATE UNIVERSITY: VLADIMIR MIRONOV

 EXECUTION OF GAMESS BEGUN Sun Sep 29 10:49:32 2019

            ECHO OF THE FIRST FEW INPUT CARDS -
 INPUT CARD> $BASIS GBASIS=PCSEG-1 $END                                                     
 INPUT CARD> $CONTRL COORD=ZMT ISPHER=1 RUNTYP=ENERGY DFTTYP=PBE MULT=1 $END                
 INPUT CARD>                                                                                
 INPUT CARD> $DATA                                                                          
 INPUT CARD>Title SO2 single-point calculation template with Z-Matrix                       
 INPUT CARD>C1                                                                              
 INPUT CARD>S                                                                               
 INPUT CARD>O 1 1.55                                                                        
 INPUT CARD>O 1 1.55 2 95                                                                   
 INPUT CARD> $END                                                                           
    1000000 WORDS OF MEMORY AVAILABLE

     BASIS OPTIONS
     -------------
     GBASIS=PCSEG-1      IGAUSS=       0      POLAR=NONE    
     NDFUNC=       0     NFFUNC=       0     DIFFSP=       F
     NPFUNC=       0      DIFFS=       F     BASNAM=        


     RUN TITLE
     ---------
 Title SO2 single-point calculation template with Z-Matrix                       

 THE POINT GROUP OF THE MOLECULE IS C1      
 THE ORDER OF THE PRINCIPAL AXIS IS     0

 YOUR FULLY SUBSTITUTED Z-MATRIX IS
 S   
 O      1   1.5500000
 O      1   1.5500000  2   95.0000

 THE MOMENTS OF INERTIA ARE (AMU-ANGSTROM**2)
 IXX=    17.534   IYY=    41.777   IZZ=    59.311

 ATOM      ATOMIC                      COORDINATES (BOHR)
           CHARGE         X                   Y                   Z
 S          16.0     0.0000000000       -0.9897018636        0.0000000000
 O           8.0     2.1595408225        0.9891527136        0.0000000000
 O           8.0    -2.1595408225        0.9891527136        0.0000000000

          INTERNUCLEAR DISTANCES (ANGS.)
          ------------------------------

                1 S          2 O          3 O     

   1 S       0.0000000    1.5500000 *  1.5500000 *
   2 O       1.5500000 *  0.0000000    2.2855597 *
   3 O       1.5500000 *  2.2855597 *  0.0000000  

  * ... LESS THAN  3.000


     ATOMIC BASIS SET
     ----------------
 THE CONTRACTED PRIMITIVE FUNCTIONS HAVE BEEN UNNORMALIZED
 THE CONTRACTED BASIS FUNCTIONS ARE NOW NORMALIZED TO UNITY

  SHELL TYPE  PRIMITIVE        EXPONENT          CONTRACTION COEFFICIENT(S)

 S         

      1   S       1         49299.4000000    0.000677492991
      1   S       2          7395.8400000    0.005232317766
      1   S       3          1683.3000000    0.026769459077
      1   S       4           476.1440000    0.102869580705
      1   S       5           154.3290000    0.286438127414
      1   S       6            55.0288000    0.454278639081
      1   S       7            20.5029000    0.271743121997

      2   S       8            45.9596000   -0.088421914560
      2   S       9             4.9274000    0.564350486135
      2   S      10             1.9179900    0.505415953466

      3   S      11             0.3684980    1.000000000000

      4   S      12             0.1291650    1.000000000000

      5   P      13           451.6620000    0.003707705453
      5   P      14           106.0980000    0.029219352245
      5   P      15            33.6996000    0.124444551509
      5   P      16            12.3054000    0.321808587656
      5   P      17             4.7141200    0.462822172957
      5   P      18             1.7810500    0.266513371364

      6   P      19             0.8722350    0.349265132972
      6   P      20             0.3102780    0.717115018770

      7   P      21             0.1001940    1.000000000000

      8   D      22             0.5500000    1.000000000000

 O         

      9   S      23          2288.6400000    0.005451138222
      9   S      24           344.4160000    0.040718922842
      9   S      25            78.2538000    0.181369420873
      9   S      26            21.7195000    0.465536820246
      9   S      27             6.5590700    0.451211321214

     10   S      28            10.4656000   -0.150211201174
     10   S      29             0.9643510    1.052867983385

     11   S      30             0.2851270    1.000000000000

     12   P      31            17.0590000    0.068749256972
     12   P      32             3.6899900    0.351671941499
     12   P      33             0.9929960    0.724532099722

     13   P      34             0.2449240    1.000000000000

     14   D      35             1.0000000    1.000000000000

 O         

     15   S      36          2288.6400000    0.005451138222
     15   S      37           344.4160000    0.040718922842
     15   S      38            78.2538000    0.181369420873
     15   S      39            21.7195000    0.465536820246
     15   S      40             6.5590700    0.451211321214

     16   S      41            10.4656000   -0.150211201174
     16   S      42             0.9643510    1.052867983385

     17   S      43             0.2851270    1.000000000000

     18   P      44            17.0590000    0.068749256972
     18   P      45             3.6899900    0.351671941499
     18   P      46             0.9929960    0.724532099722

     19   P      47             0.2449240    1.000000000000

     20   D      48             1.0000000    1.000000000000

 TOTAL NUMBER OF BASIS SET SHELLS             =   20
 NUMBER OF CARTESIAN GAUSSIAN BASIS FUNCTIONS =   49
 NOTE: THIS RUN WILL RESTRICT THE MO VARIATION SPACE TO SPHERICAL HARMONICS.
 THE NUMBER OF ORBITALS KEPT IN THE VARIATIONAL SPACE WILL BE PRINTED LATER.
 NUMBER OF ELECTRONS                          =   32
 CHARGE OF MOLECULE                           =    0
 SPIN MULTIPLICITY                            =    1
 NUMBER OF OCCUPIED ORBITALS (ALPHA)          =   16
 NUMBER OF OCCUPIED ORBITALS (BETA )          =   16
 TOTAL NUMBER OF ATOMS                        =    3
 THE NUCLEAR REPULSION ENERGY IS      102.2175621441

     LEBEDEV GRID-BASED DFT OPTIONS
     ------------------------------
     DFTTYP=PBE     
     NRAD  =      96     NLEB  =     302
     NRAD0 =      24     NLEB0 =     110
     SWOFF =    5.00E-03 (PURE SCF -> DFT)
     SWITCH=    3.00E-04 (COARSE -> TIGHT GRID)
     THRESH=    0.00E+00 GTHRE=    1.00E+00

 GRIMME'S EMPIRICAL DISPERSION CORRECTION= F

     $CONTRL OPTIONS
     ---------------
 SCFTYP=RHF          RUNTYP=ENERGY       EXETYP=RUN     
 MPLEVL=       0     CITYP =NONE         CCTYP =NONE         VBTYP =NONE    
 DFTTYP=PBE          TDDFT =NONE    
 MULT  =       1     ICHARG=       0     NZVAR =       0     COORD =ZMT     
 PP    =NONE         RELWFN=NONE         LOCAL =NONE         NUMGRD=       F
 ISPHER=       1     NOSYM =       0     MAXIT =      30     UNITS =ANGS    
 PLTORB=       F     MOLPLT=       F     AIMPAC=       F     FRIEND=        
 NPRINT=       7     IREST =       0     GEOM  =INPUT   
 NORMF =       0     NORMP =       0     ITOL  =      20     ICUT  =       9
 INTTYP=BEST         GRDTYP=BEST         QMTTOL= 1.0E-06

     $SYSTEM OPTIONS
     ---------------
  REPLICATED MEMORY=     1000000 WORDS (ON EVERY NODE).
 DISTRIBUTED MEMDDI=           0 MILLION WORDS IN AGGREGATE,
 MEMDDI DISTRIBUTED OVER   1 PROCESSORS IS           0 WORDS/PROCESSOR.
 TOTAL MEMORY REQUESTED ON EACH PROCESSOR=     1000000 WORDS.
 TIMLIM=      525600.00 MINUTES, OR     365.0 DAYS.
 PARALL= F  BALTYP=  DLB     KDIAG=    0  COREFL= F
 MXSEQ2=     300 MXSEQ3=     150  mem10=         0

          ----------------
          PROPERTIES INPUT
          ----------------

     MOMENTS            FIELD           POTENTIAL          DENSITY
 IEMOM =       1   IEFLD =       0   IEPOT =       0   IEDEN =       0
 WHERE =COMASS     WHERE =NUCLEI     WHERE =NUCLEI     WHERE =NUCLEI  
 OUTPUT=BOTH       OUTPUT=BOTH       OUTPUT=BOTH       OUTPUT=BOTH    
 IEMINT=       0   IEFINT=       0                     IEDINT=       0
                                                       MORB  =       0
          EXTRAPOLATION IN EFFECT
          DIIS IN EFFECT
 ORBITAL PRINTING OPTION: NPREO=     1    49     2     1

     -------------------------------
     INTEGRAL TRANSFORMATION OPTIONS
     -------------------------------
     NWORD  =            0
     CUTOFF = 1.0E-09     MPTRAN =       0
     DIRTRF =       F     AOINTS =DUP     

          ----------------------
          INTEGRAL INPUT OPTIONS
          ----------------------
 NOPK  =       1 NORDER=       0 SCHWRZ=       F

   --- ENCODED Z MATRIX ---
 COORD  TYPE   I   J   K   L   M   N
    1      1    2   1
    2      1    3   1
    3      2    3   1   2

 THE DETERMINANT OF THE G MATRIX IS 10**(    -4)

 THE DETERMINANT OF THE G MATRIX IS 10**(    -4)
 * * * WARNING * * *
 YOUR B MATRIX HAS A SMALL DETERMINANT.
 THIS SUGGESTS YOU MAY HAVE BADLY CHOSEN COORDINATES.

     ------------------------------------------
     THE POINT GROUP IS C1 , NAXIS= 0, ORDER= 1
     ------------------------------------------

 -- VARIATIONAL SPACE WILL BE RESTRICTED TO PURE SPHERICAL HARMONICS ONLY --
 AFTER EXCLUDING CONTAMINANT COMBINATIONS FROM THE CARTESIAN GAUSSIAN BASIS
 SET, THE NUMBER OF SPHERICAL HARMONICS KEPT IN THE VARIATION SPACE IS   46

     DIMENSIONS OF THE SYMMETRY SUBSPACES ARE
 A   =   46

 ..... DONE SETTING UP THE RUN .....
 STEP CPU TIME =     0.04 TOTAL CPU TIME =          0.0 (      0.0 MIN)
 TOTAL WALL CLOCK TIME=          0.0 SECONDS, CPU UTILIZATION IS   100.00%

          ********************
          1 ELECTRON INTEGRALS
          ********************
 ...... END OF ONE-ELECTRON INTEGRALS ......
 STEP CPU TIME =     0.00 TOTAL CPU TIME =          0.0 (      0.0 MIN)
 TOTAL WALL CLOCK TIME=          0.0 SECONDS, CPU UTILIZATION IS    80.00%

          -------------
          GUESS OPTIONS
          -------------
          GUESS =HUCKEL            NORB  =       0          NORDER=       0
          MIX   =       F          PRTMO =       F          PUNMO =       F
          TOLZ  = 1.0E-08          TOLE  = 1.0E-05
          SYMDEN=       F          PURIFY=       F

 INITIAL GUESS ORBITALS GENERATED BY HUCKEL   ROUTINE.
 HUCKEL GUESS REQUIRES     21634 WORDS.

 STATISTICS FOR GENERATION OF SYMMETRY ORBITAL -Q- MATRIX
 NUMBER OF CARTESIAN ATOMIC ORBITALS=         49
 NUMBER OF SPHERICAL CONTAMINANTS DROPPED=     3
 NUMBER OF LINEARLY DEPENDENT MOS DROPPED=     0
 TOTAL NUMBER OF MOS IN VARIATION SPACE=      46

 SYMMETRIES FOR INITIAL GUESS ORBITALS FOLLOW.   BOTH SET(S).
    16 ORBITALS ARE OCCUPIED (    7 CORE ORBITALS).
     8=A        9=A       10=A       11=A       12=A       13=A       14=A   
    15=A       16=A       17=A       18=A       19=A       20=A       21=A   
    22=A       23=A       24=A       25=A       26=A   
 ...... END OF INITIAL ORBITAL SELECTION ......
 STEP CPU TIME =     0.00 TOTAL CPU TIME =          0.0 (      0.0 MIN)
 TOTAL WALL CLOCK TIME=          0.0 SECONDS, CPU UTILIZATION IS    80.00%

                    ----------------------
                    AO INTEGRAL TECHNOLOGY
                    ----------------------
     S,P,L SHELL ROTATED AXIS INTEGRALS, REPROGRAMMED BY
        KAZUYA ISHIMURA (IMS) AND JOSE SIERRA (SYNSTAR).
     S,P,D,L SHELL ROTATED AXIS INTEGRALS PROGRAMMED BY
        KAZUYA ISHIMURA (INSTITUTE FOR MOLECULAR SCIENCE).
     S,P,D,F,G SHELL TO TOTAL QUARTET ANGULAR MOMENTUM SUM 5,
        ERIC PROGRAM BY GRAHAM FLETCHER (ELORET AND NASA ADVANCED
        SUPERCOMPUTING DIVISION, AMES RESEARCH CENTER).
     S,P,D,F,G,L SHELL GENERAL RYS QUADRATURE PROGRAMMED BY
        MICHEL DUPUIS (PACIFIC NORTHWEST NATIONAL LABORATORY).

          --------------------
          2 ELECTRON INTEGRALS
          --------------------

 THE -PK- OPTION IS OFF, THE INTEGRALS ARE NOT IN SUPERMATRIX FORM.
 STORING   15000 INTEGRALS/RECORD ON DISK, USING 12 BYTES/INTEGRAL.
 TWO ELECTRON INTEGRAL EVALUATION REQUIRES   90606 WORDS OF MEMORY.
 II,JST,KST,LST =  1  1  1  1 NREC =         1 INTLOC =    1
 II,JST,KST,LST =  2  1  1  1 NREC =         1 INTLOC =    2
 II,JST,KST,LST =  3  1  1  1 NREC =         1 INTLOC =    7
 II,JST,KST,LST =  4  1  1  1 NREC =         1 INTLOC =   22
 II,JST,KST,LST =  5  1  1  1 NREC =         1 INTLOC =   56
 II,JST,KST,LST =  6  1  1  1 NREC =         1 INTLOC =  125
 II,JST,KST,LST =  7  1  1  1 NREC =         1 INTLOC =  329
 II,JST,KST,LST =  8  1  1  1 NREC =         1 INTLOC =  776
 II,JST,KST,LST =  9  1  1  1 NREC =         1 INTLOC = 2864
 II,JST,KST,LST = 10  1  1  1 NREC =         1 INTLOC = 4952
 II,JST,KST,LST = 11  1  1  1 NREC =         1 INTLOC = 7617
 II,JST,KST,LST = 12  1  1  1 NREC =         1 INTLOC =10734
 II,JST,KST,LST = 13  1  1  1 NREC =         2 INTLOC = 6652
 II,JST,KST,LST = 14  1  1  1 NREC =         3 INTLOC = 6921
 II,JST,KST,LST = 15  1  1  1 NREC =         6 INTLOC = 8922
 II,JST,KST,LST = 16  1  1  1 NREC =         7 INTLOC = 2164
 II,JST,KST,LST = 17  1  1  1 NREC =         7 INTLOC =14308
 II,JST,KST,LST = 18  1  1  1 NREC =         8 INTLOC =12837
 II,JST,KST,LST = 19  1  1  1 NREC =        11 INTLOC = 9558
 II,JST,KST,LST = 20  1  1  1 NREC =        15 INTLOC = 2135
 TOTAL NUMBER OF NONZERO TWO-ELECTRON INTEGRALS =              348040
         24 INTEGRAL RECORDS WERE STORED ON DISK FILE  8.
  ...... END OF TWO-ELECTRON INTEGRALS .....
 STEP CPU TIME =     0.11 TOTAL CPU TIME =          0.2 (      0.0 MIN)
 TOTAL WALL CLOCK TIME=          0.2 SECONDS, CPU UTILIZATION IS    93.75%

          --------------------------
               R-PBE SCF CALCULATION
          --------------------------

     NUCLEAR ENERGY =       102.2175621441
     MAXIT =   30     NPUNCH=    2
     EXTRAP=T  DAMP=F  SHIFT=F  RSTRCT=F  DIIS=T  DEM=F  SOSCF=F
         DENSITY MATRIX CONVERGENCE THRESHOLD=  1.00E-05
     COARSE -> FINE DFT GRID SWITCH THRESHOLD=  3.00E-04 (SWITCH IN $DFT)
                   HF -> DFT SWITCH THRESHOLD=  5.00E-03 (SWOFF IN $DFT)
     MEMORY REQUIRED FOR RHF ITERS=    183108 WORDS.

 DFT CODE IS SWITCHING FROM THE FINE GRID NRAD= 96,  NLEB=  302
                      TO THE COARSE GRID NRAD0= 24, NLEB0=  110

     EXCHANGE FUNCTIONAL   =PBE       
     CORRELATION FUNCTIONAL=PBE       
     DFT THRESHOLD         =.460E-07
     GRID CHANGE THRESHOLD =.300E-03
 FOR AN EULER-MACLAURIN QUADRATURE USING  96 RADIAL POINTS:
 SMALLEST GAUSSIAN PRIMITIVE EXPONENT=        0.1001940000 OF TYPE -P-
 ON ATOM NUMBER   1 HAS RADIAL NORMALIZATION=  1.000000
  LARGEST GAUSSIAN PRIMITIVE EXPONENT=    49299.4000000000 OF TYPE -S-
 ON ATOM NUMBER   1 HAS RADIAL NORMALIZATION=  1.000000
 DFT IS SWITCHED OFF, PERFORMING PURE SCF UNTIL SWOFF THRESHOLD IS REACHED.

 ITER EX DEM     TOTAL ENERGY        E CHANGE  DENSITY CHANGE    DIIS ERROR
   1  0  0     -546.0495554560  -546.0495554560   0.607433777   0.951651203
          * * *   INITIATING DIIS PROCEDURE   * * *
   2  1  0     -546.7197842633    -0.6702288072   0.579795719   0.298102862
   3  2  0     -546.7907539745    -0.0709697112   0.218261518   0.247572449
   4  3  0     -547.0379159669    -0.2471619925   0.022217092   0.008995975
   5  4  0     -547.0384187487    -0.0005027818   0.003880257   0.003823090
 CONVERGED TO SWOFF, SO DFT CALCULATION IS NOW SWITCHED ON.
          * * *   INITIATING DIIS PROCEDURE   * * *
   6  5  0     -548.1963060514    -1.1578873026   0.393411946   0.097250064
   7  6  0     -548.1858917766     0.0104142748   0.345024060   0.122959322
   8  7  0     -548.1964055381    -0.0105137615   0.113712041   0.108659277
   9  8  0     -548.2339714400    -0.0375659019   0.025259098   0.011761366
  10  9  0     -548.2344809021    -0.0005094621   0.002200993   0.000760702
  11 10  0     -548.2344839671    -0.0000030649   0.000476622   0.000496185
  12 11  0     -548.2344845002    -0.0000005332   0.000226507   0.000126294
 DFT CODE IS SWITCHING BACK TO THE FINE GRID
          * * *   INITIATING DIIS PROCEDURE   * * *
  13 12  0     -548.2141875768     0.0202969234   0.005789759   0.011355089
  14 13  0     -548.2143918493    -0.0002042726   0.009998140   0.002487966
  15 14  0     -548.2142080783     0.0001837711   0.010730132   0.006821453
  16 15  0     -548.2143675578    -0.0001594795   0.004438258   0.004118216
  17 16  0     -548.2144088013    -0.0000412435   0.000803061   0.000749189
  18 17  0     -548.2144110134    -0.0000022121   0.000108232   0.000036163
  19 18  0     -548.2144110199    -0.0000000065   0.000029219   0.000011787
  20 19  0     -548.2144110204    -0.0000000004   0.000002508   0.000002144
  21 20  0     -548.2144110204    -0.0000000000   0.000000108   0.000000091

          -----------------
          DENSITY CONVERGED
          -----------------
     TIME TO FORM FOCK OPERATORS=       2.5 SECONDS (       0.1 SEC/ITER)
     TIME TO SOLVE SCF EQUATIONS=       0.0 SECONDS (       0.0 SEC/ITER)

 FINAL R-PBE ENERGY IS     -548.2144110204 AFTER  21 ITERATIONS
 DFT EXCHANGE + CORRELATION ENERGY =       -42.4199888541
 TOTAL ELECTRON NUMBER             =        32.0000419902

          ------------
          EIGENVECTORS
          ------------

                      1          2          3          4          5
                  -88.2271   -18.7921   -18.7921    -7.8446    -5.8701
                     A          A          A          A          A   
    1  S  1  S    0.997756  -0.000001  -0.000023  -0.308379  -0.000000
    2  S  1  S    0.008269   0.000002   0.000076   1.031653   0.000000
    3  S  1  S   -0.003064  -0.000014  -0.000527   0.028134  -0.000000
    4  S  1  S    0.000867   0.000210   0.008157  -0.006027  -0.000000
    5  S  1  X   -0.000000   0.000059  -0.000002  -0.000000   0.994627
    6  S  1  Y    0.000154  -0.000003  -0.000133   0.008426  -0.000002
    7  S  1  Z    0.000000   0.000000   0.000000   0.000000   0.000000
    8  S  1  X    0.000000  -0.001631   0.000042  -0.000000   0.017219
    9  S  1  Y   -0.000490   0.000047   0.001811   0.001155  -0.000000
   10  S  1  Z    0.000000   0.000000   0.000000   0.000000   0.000000
   11  S  1  X    0.000000  -0.002616   0.000067   0.000000  -0.002778
   12  S  1  Y    0.000021   0.000097   0.003775  -0.000242   0.000000
   13  S  1  Z    0.000000   0.000000   0.000000   0.000000   0.000000
   14  S  1 XX   -0.000123   0.000009   0.000353   0.000361  -0.000000
   15  S  1 YY   -0.000059   0.000007   0.000268   0.000020  -0.000000
   16  S  1 ZZ    0.000181  -0.000016  -0.000621  -0.000381   0.000000
   17  S  1 XY    0.000000  -0.000295   0.000008  -0.000000   0.001216
   18  S  1 XZ    0.000000   0.000000   0.000000   0.000000   0.000000
   19  S  1 YZ    0.000000   0.000000   0.000000   0.000000   0.000000
   20  O  2  S   -0.000015  -0.684000   0.720161  -0.000041  -0.000223
   21  O  2  S   -0.000125  -0.023078   0.024463  -0.000188  -0.000028
   22  O  2  S    0.000347   0.010196  -0.012609  -0.000129  -0.000712
   23  O  2  X   -0.000042   0.000796  -0.000609   0.000164  -0.000206
   24  O  2  Y   -0.000026   0.000716  -0.000680   0.000127  -0.000136
   25  O  2  Z    0.000000   0.000000   0.000000   0.000000   0.000000
   26  O  2  X   -0.000307  -0.001879   0.002145   0.000599   0.000718
   27  O  2  Y   -0.000313  -0.001617   0.001806   0.000644   0.000791
   28  O  2  Z    0.000000   0.000000   0.000000   0.000000   0.000000
   29  O  2 XX    0.000084   0.000237  -0.000011  -0.000014   0.000237
   30  O  2 YY    0.000047   0.000024  -0.000066  -0.000015   0.000056
   31  O  2 ZZ   -0.000131  -0.000261   0.000077   0.000028  -0.000293
   32  O  2 XY    0.000231   0.000174  -0.000326  -0.000047   0.000497
   33  O  2 XZ    0.000000   0.000000   0.000000   0.000000   0.000000
   34  O  2 YZ    0.000000   0.000000   0.000000   0.000000   0.000000
   35  O  3  S   -0.000015   0.720141   0.684021  -0.000041   0.000223
   36  O  3  S   -0.000125   0.024306   0.023243  -0.000188   0.000028
   37  O  3  S    0.000347  -0.010831  -0.012068  -0.000129   0.000712
   38  O  3  X    0.000042   0.000827   0.000567  -0.000164  -0.000206
   39  O  3  Y   -0.000026  -0.000750  -0.000642   0.000127   0.000136
   40  O  3  Z    0.000000   0.000000   0.000000   0.000000   0.000000
   41  O  3  X    0.000307  -0.001987  -0.002045  -0.000599   0.000718
   42  O  3  Y   -0.000313   0.001708   0.001720   0.000644  -0.000791
   43  O  3  Z    0.000000   0.000000   0.000000   0.000000   0.000000
   44  O  3 XX    0.000084  -0.000237   0.000001  -0.000014  -0.000237
   45  O  3 YY    0.000047  -0.000028  -0.000065  -0.000015  -0.000056
   46  O  3 ZZ   -0.000131   0.000264   0.000064   0.000028   0.000293
   47  O  3 XY   -0.000231   0.000190   0.000317   0.000047   0.000497
   48  O  3 XZ    0.000000   0.000000   0.000000   0.000000   0.000000
   49  O  3 YZ    0.000000   0.000000   0.000000   0.000000   0.000000

                      6          7          8          9         10
                   -5.8694    -5.8654    -1.0176    -0.9079    -0.6104
                     A          A          A          A          A   
    1  S  1  S    0.000000   0.002637   0.048720  -0.000000   0.070157
    2  S  1  S    0.000000  -0.009057  -0.300026   0.000000  -0.448903
    3  S  1  S    0.000000  -0.000447   0.421733  -0.000002   0.689712
    4  S  1  S    0.000000   0.002000   0.073473   0.000005   0.265266
    5  S  1  X    0.000000   0.000002  -0.000000   0.109162   0.000000
    6  S  1  Y    0.000000   0.994715  -0.072743  -0.000000   0.068103
    7  S  1  Z    0.994910   0.000000   0.000000   0.000000   0.000000
    8  S  1  X    0.000000   0.000000   0.000000  -0.248072  -0.000000
    9  S  1  Y    0.000000   0.016724   0.158845   0.000001  -0.165398
   10  S  1  Z    0.016097   0.000000   0.000000   0.000000   0.000000
   11  S  1  X    0.000000  -0.000000   0.000001   0.004679  -0.000001
   12  S  1  Y    0.000000  -0.002423  -0.016222   0.000003  -0.053102
   13  S  1  Z   -0.003136   0.000000   0.000000   0.000000   0.000000
   14  S  1 XX    0.000000  -0.000127   0.020855   0.000000  -0.003732
   15  S  1 YY    0.000000   0.000791   0.014332   0.000000  -0.015235
   16  S  1 ZZ    0.000000  -0.000664  -0.035187  -0.000001   0.018967
   17  S  1 XY    0.000000   0.000000   0.000001  -0.082414  -0.000000
   18  S  1 XZ   -0.000000   0.000000   0.000000   0.000000   0.000000
   19  S  1 YZ    0.000502   0.000000   0.000000   0.000000   0.000000
   20  O  2  S    0.000000  -0.000210  -0.134301   0.165291   0.104823
   21  O  2  S    0.000000   0.000086   0.273853  -0.343010  -0.222159
   22  O  2  S    0.000000  -0.000981   0.240712  -0.319304  -0.279772
   23  O  2  X    0.000000  -0.000172  -0.087271   0.059502  -0.065179
   24  O  2  Y    0.000000  -0.000233  -0.072157   0.076739  -0.097766
   25  O  2  Z   -0.000058   0.000000   0.000000   0.000000   0.000000
   26  O  2  X    0.000000   0.000774  -0.025510   0.016288  -0.028974
   27  O  2  Y    0.000000   0.000437  -0.023375   0.022164  -0.044094
   28  O  2  Z   -0.000157   0.000000   0.000000   0.000000   0.000000
   29  O  2 XX    0.000000   0.000083   0.002880   0.000140   0.000038
   30  O  2 YY    0.000000   0.000253   0.002201  -0.002207   0.003794
   31  O  2 ZZ    0.000000  -0.000337  -0.005081   0.002067  -0.003831
   32  O  2 XY    0.000000   0.000591   0.012057  -0.008508   0.005330
   33  O  2 XZ    0.000103   0.000000   0.000000   0.000000   0.000000
   34  O  2 YZ    0.000082   0.000000   0.000000   0.000000   0.000000
   35  O  3  S    0.000000  -0.000210  -0.134302  -0.165291   0.104823
   36  O  3  S    0.000000   0.000086   0.273853   0.343011  -0.222159
   37  O  3  S    0.000000  -0.000981   0.240716   0.319296  -0.279774
   38  O  3  X    0.000000   0.000172   0.087271   0.059502   0.065179
   39  O  3  Y    0.000000  -0.000233  -0.072157  -0.076739  -0.097766
   40  O  3  Z   -0.000058   0.000000   0.000000   0.000000   0.000000
   41  O  3  X    0.000000  -0.000774   0.025511   0.016285   0.028974
   42  O  3  Y    0.000000   0.000437  -0.023376  -0.022162  -0.044094
   43  O  3  Z   -0.000157   0.000000   0.000000   0.000000   0.000000
   44  O  3 XX    0.000000   0.000083   0.002880  -0.000140   0.000038
   45  O  3 YY    0.000000   0.000253   0.002201   0.002207   0.003794
   46  O  3 ZZ    0.000000  -0.000337  -0.005081  -0.002067  -0.003831
   47  O  3 XY    0.000000  -0.000591  -0.012057  -0.008508  -0.005330
   48  O  3 XZ   -0.000103   0.000000   0.000000   0.000000   0.000000
   49  O  3 YZ    0.000082   0.000000   0.000000   0.000000   0.000000

                     11         12         13         14         15
                   -0.4272    -0.4255    -0.4247    -0.3021    -0.3002
                     A          A          A          A          A   
    1  S  1  S    0.000000   0.000000  -0.007164   0.014283   0.000000
    2  S  1  S    0.000000  -0.000001   0.044214  -0.092660   0.000000
    3  S  1  S    0.000000   0.000001  -0.028044   0.117952   0.000000
    4  S  1  S    0.000000   0.000005  -0.212939   0.266440   0.000000
    5  S  1  X    0.000000  -0.189070  -0.000004   0.000000   0.000000
    6  S  1  Y    0.000000   0.000004  -0.203133   0.089361   0.000000
    7  S  1  Z   -0.220664   0.000000   0.000000   0.000000   0.000000
    8  S  1  X    0.000000   0.514428   0.000011  -0.000000   0.000000
    9  S  1  Y    0.000000  -0.000012   0.547404  -0.244778   0.000000
   10  S  1  Z    0.596485   0.000000   0.000000   0.000000  -0.000001
   11  S  1  X    0.000000   0.041201   0.000001   0.000001   0.000000
   12  S  1  Y    0.000000  -0.000001   0.066815  -0.031310   0.000000
   13  S  1  Z    0.152842   0.000000   0.000000   0.000000  -0.000000
   14  S  1 XX    0.000000   0.000001  -0.032931  -0.121551   0.000000
   15  S  1 YY    0.000000  -0.000001   0.055578   0.083418   0.000000
   16  S  1 ZZ    0.000000   0.000001  -0.022647   0.038133   0.000000
   17  S  1 XY    0.000000   0.051841   0.000001  -0.000000   0.000000
   18  S  1 XZ   -0.000000   0.000000   0.000000   0.000000  -0.105677
   19  S  1 YZ    0.053450   0.000000   0.000000   0.000000   0.000000
   20  O  2  S    0.000000   0.069742   0.050002  -0.001676   0.000000
   21  O  2  S    0.000000  -0.145268  -0.105100   0.002352   0.000000
   22  O  2  S    0.000000  -0.243661  -0.162578  -0.011661   0.000000
   23  O  2  X    0.000000  -0.181637  -0.323180  -0.119526   0.000000
   24  O  2  Y    0.000000  -0.305235  -0.028086   0.421230   0.000000
   25  O  2  Z    0.289129   0.000000   0.000000   0.000000  -0.472760
   26  O  2  X    0.000000  -0.090971  -0.183660  -0.097053   0.000000
   27  O  2  Y    0.000000  -0.159346  -0.005201   0.303666   0.000000
   28  O  2  Z    0.173193   0.000000   0.000000   0.000000  -0.338473
   29  O  2 XX    0.000000  -0.001728   0.014866   0.011046   0.000000
   30  O  2 YY    0.000000   0.009649  -0.008664  -0.015244   0.000000
   31  O  2 ZZ    0.000000  -0.007921  -0.006202   0.004198   0.000000
   32  O  2 XY    0.000000   0.010406   0.008529  -0.009150   0.000000
   33  O  2 XZ   -0.015024   0.000000   0.000000   0.000000   0.012699
   34  O  2 YZ   -0.013335   0.000000   0.000000   0.000000   0.015270
   35  O  3  S    0.000000  -0.069744   0.049999  -0.001676   0.000000
   36  O  3  S    0.000000   0.145271  -0.105095   0.002352   0.000000
   37  O  3  S    0.000000   0.243668  -0.162566  -0.011660   0.000000
   38  O  3  X    0.000000  -0.181651   0.323174   0.119529   0.000000
   39  O  3  Y    0.000000   0.305237  -0.028073   0.421230   0.000000
   40  O  3  Z    0.289129   0.000000   0.000000   0.000000   0.472760
   41  O  3  X    0.000000  -0.090978   0.183657   0.097055   0.000000
   42  O  3  Y    0.000000   0.159347  -0.005194   0.303666   0.000000
   43  O  3  Z    0.173194   0.000000   0.000000   0.000000   0.338473
   44  O  3 XX    0.000000   0.001727   0.014866   0.011046   0.000000
   45  O  3 YY    0.000000  -0.009649  -0.008664  -0.015244   0.000000
   46  O  3 ZZ    0.000000   0.007921  -0.006202   0.004198   0.000000
   47  O  3 XY    0.000000   0.010407  -0.008529   0.009149   0.000000
   48  O  3 XZ    0.015024   0.000000   0.000000   0.000000   0.012699
   49  O  3 YZ   -0.013335   0.000000   0.000000   0.000000  -0.015270

                     16         17         18         19         20
                   -0.2570    -0.1929    -0.0603     0.0168     0.2038
                     A          A          A          A          A   
    1  S  1  S   -0.000000   0.000000  -0.000000   0.031510   0.000000
    2  S  1  S    0.000000   0.000000   0.000001  -0.213845   0.000000
    3  S  1  S   -0.000002   0.000000  -0.000002   0.322646   0.000000
    4  S  1  S    0.000005   0.000000  -0.000006   0.738993   0.000000
    5  S  1  X   -0.015517   0.000000  -0.197210  -0.000002   0.000000
    6  S  1  Y   -0.000000   0.000000   0.000001  -0.144674   0.000000
    7  S  1  Z    0.000000  -0.218501   0.000000   0.000000   0.248431
    8  S  1  X    0.041677   0.000000   0.602360   0.000007   0.000000
    9  S  1  Y    0.000001   0.000000  -0.000004   0.459749   0.000000
   10  S  1  Z    0.000000   0.645285   0.000000   0.000000  -0.979631
   11  S  1  X    0.156319   0.000000   0.702447  -0.000001   0.000000
   12  S  1  Y    0.000004   0.000000  -0.000005   0.939547   0.000000
   13  S  1  Z    0.000000   0.301796   0.000000   0.000000   1.305489
   14  S  1 XX    0.000001   0.000000   0.000000  -0.083065   0.000000
   15  S  1 YY   -0.000000   0.000000   0.000000  -0.140786   0.000000
   16  S  1 ZZ   -0.000000   0.000000  -0.000000   0.223851   0.000000
   17  S  1 XY   -0.096834   0.000000  -0.217307  -0.000000   0.000000
   18  S  1 XZ    0.000000  -0.000000   0.000000   0.000000   0.000000
   19  S  1 YZ    0.000000  -0.089620   0.000000   0.000000  -0.108550
   20  O  2  S    0.008496   0.000000   0.038231   0.059443   0.000000
   21  O  2  S   -0.020858   0.000000  -0.076472  -0.103005   0.000000
   22  O  2  S   -0.060541   0.000000  -0.332717  -0.579022   0.000000
   23  O  2  X    0.445064   0.000000   0.016296   0.258357   0.000000
   24  O  2  Y   -0.199098   0.000000   0.322864   0.127049   0.000000
   25  O  2  Z    0.000000  -0.379419   0.000000   0.000000  -0.019043
   26  O  2  X    0.300774   0.000000  -0.000632   0.342101   0.000000
   27  O  2  Y   -0.142377   0.000000   0.289301   0.107890   0.000000
   28  O  2  Z    0.000000  -0.320177   0.000000   0.000000  -0.128509
   29  O  2 XX   -0.015501   0.000000   0.000487  -0.001034   0.000000
   30  O  2 YY    0.015101   0.000000   0.003638  -0.004878   0.000000
   31  O  2 ZZ    0.000400   0.000000  -0.004125   0.005912   0.000000
   32  O  2 XY   -0.005512   0.000000   0.003649   0.003954   0.000000
   33  O  2 XZ    0.000000   0.004473   0.000000   0.000000   0.016767
   34  O  2 YZ    0.000000   0.001572   0.000000   0.000000   0.011575
   35  O  3  S   -0.008496   0.000000  -0.038231   0.059443   0.000000
   36  O  3  S    0.020859   0.000000   0.076470  -0.103008   0.000000
   37  O  3  S    0.060534   0.000000   0.332727  -0.579016   0.000000
   38  O  3  X    0.445063   0.000000   0.016297  -0.258359   0.000000
   39  O  3  Y    0.199096   0.000000  -0.322866   0.127045   0.000000
   40  O  3  Z    0.000000  -0.379418   0.000000   0.000000  -0.019043
   41  O  3  X    0.300770   0.000000  -0.000626  -0.342097   0.000000
   42  O  3  Y    0.142377   0.000000  -0.289303   0.107886   0.000000
   43  O  3  Z    0.000000  -0.320177   0.000000   0.000000  -0.128509
   44  O  3 XX    0.015501   0.000000  -0.000487  -0.001034   0.000000
   45  O  3 YY   -0.015101   0.000000  -0.003638  -0.004878   0.000000
   46  O  3 ZZ   -0.000400   0.000000   0.004125   0.005912   0.000000
   47  O  3 XY   -0.005512   0.000000   0.003649  -0.003955   0.000000
   48  O  3 XZ    0.000000  -0.004473   0.000000   0.000000  -0.016767
   49  O  3 YZ    0.000000   0.001572   0.000000   0.000000   0.011575

                     21         22         23         24         25
                    0.2279     0.2544     0.2632     0.5075     0.5123
                     A          A          A          A          A   
    1  S  1  S   -0.041056   0.000002  -0.053615   0.000000   0.000000
    2  S  1  S    0.303846  -0.000012   0.392488   0.000000   0.000000
    3  S  1  S   -1.198771   0.000045  -1.506781   0.000000   0.000000
    4  S  1  S    1.510156  -0.000056   1.768522   0.000000   0.000000
    5  S  1  X   -0.000002   0.271145   0.000009   0.000000   0.000000
    6  S  1  Y   -0.232004  -0.000007   0.170991   0.000000   0.000000
    7  S  1  Z    0.000000   0.000000   0.000000  -0.000000   0.027129
    8  S  1  X    0.000008  -1.050063  -0.000033   0.000000   0.000000
    9  S  1  Y    0.911781   0.000027  -0.634368   0.000000   0.000000
   10  S  1  Z    0.000000   0.000000   0.000000   0.000001  -0.123999
   11  S  1  X   -0.000009   1.397778   0.000050   0.000000   0.000000
   12  S  1  Y   -0.717174  -0.000044   1.109440   0.000000   0.000000
   13  S  1  Z    0.000000   0.000000   0.000000  -0.000001   0.137165
   14  S  1 XX   -0.132216  -0.000005   0.106954   0.000000   0.000000
   15  S  1 YY   -0.016313   0.000000  -0.058639   0.000000   0.000000
   16  S  1 ZZ    0.148529   0.000005  -0.048315   0.000000   0.000000
   17  S  1 XY   -0.000001   0.160726   0.000009   0.000000   0.000000
   18  S  1 XZ    0.000000   0.000000   0.000000   0.920535   0.000006
   19  S  1 YZ    0.000000   0.000000   0.000000  -0.000006   0.900356
   20  O  2  S    0.020930   0.005494   0.014166   0.000000   0.000000
   21  O  2  S   -0.068895   0.043048   0.034443   0.000000   0.000000
   22  O  2  S   -0.143019  -0.354580  -0.576764   0.000000   0.000000
   23  O  2  X    0.065636  -0.188527  -0.217043   0.000000   0.000000
   24  O  2  Y    0.023471  -0.113557  -0.168054   0.000000   0.000000
   25  O  2  Z    0.000000   0.000000   0.000000  -0.290946  -0.310249
   26  O  2  X    0.114399  -0.111770   0.077732   0.000000   0.000000
   27  O  2  Y    0.148543   0.021412  -0.027603   0.000000   0.000000
   28  O  2  Z    0.000000   0.000000   0.000000   0.077929   0.098597
   29  O  2 XX    0.009642   0.003022  -0.031101   0.000000   0.000000
   30  O  2 YY   -0.015701  -0.019246   0.005103   0.000000   0.000000
   31  O  2 ZZ    0.006059   0.016224   0.025998   0.000000   0.000000
   32  O  2 XY   -0.004478  -0.026499  -0.034635   0.000000   0.000000
   33  O  2 XZ    0.000000   0.000000   0.000000  -0.022629  -0.046685
   34  O  2 YZ    0.000000   0.000000   0.000000  -0.048103  -0.013023
   35  O  3  S    0.020930  -0.005494   0.014166   0.000000   0.000000
   36  O  3  S   -0.068896  -0.043057   0.034433   0.000000   0.000000
   37  O  3  S   -0.143022   0.354627  -0.576727   0.000000   0.000000
   38  O  3  X   -0.065635  -0.188546   0.217026   0.000000   0.000000
   39  O  3  Y    0.023469   0.113570  -0.168046   0.000000   0.000000
   40  O  3  Z    0.000000   0.000000   0.000000   0.290951  -0.310245
   41  O  3  X   -0.114395  -0.111762  -0.077731   0.000000   0.000000
   42  O  3  Y    0.148543  -0.021411  -0.027609   0.000000   0.000000
   43  O  3  Z    0.000000   0.000000   0.000000  -0.077931   0.098596
   44  O  3 XX    0.009642  -0.003020  -0.031101   0.000000   0.000000
   45  O  3 YY   -0.015701   0.019245   0.005104   0.000000   0.000000
   46  O  3 ZZ    0.006059  -0.016226   0.025997   0.000000   0.000000
   47  O  3 XY    0.004478  -0.026502   0.034633   0.000000   0.000000
   48  O  3 XZ    0.000000   0.000000   0.000000  -0.022629   0.046685
   49  O  3 YZ    0.000000   0.000000   0.000000   0.048103  -0.013022

                     26         27         28         29         30
                    0.5405     0.6263     0.6879     0.7762     0.8196
                     A          A          A          A          A   
    1  S  1  S   -0.000946   0.011952   0.000000   0.000479   0.000000
    2  S  1  S    0.006646  -0.091438  -0.000000  -0.007565   0.000000
    3  S  1  S   -0.033416   0.214995   0.000001   0.063301   0.000000
    4  S  1  S    0.111108   0.929887  -0.000010   0.109692   0.000000
    5  S  1  X   -0.000000  -0.000001  -0.135763   0.000000   0.000000
    6  S  1  Y    0.027058  -0.118627   0.000001   0.003428   0.000000
    7  S  1  Z    0.000000   0.000000   0.000000   0.000000  -0.000000
    8  S  1  X    0.000001   0.000005   0.745134  -0.000001   0.000000
    9  S  1  Y   -0.113138   0.587390  -0.000003   0.046779   0.000000
   10  S  1  Z    0.000000   0.000000   0.000000   0.000000  -0.000000
   11  S  1  X    0.000000   0.000003   0.111091   0.000000   0.000000
   12  S  1  Y    0.202865   0.210792  -0.000003   0.376123   0.000000
   13  S  1  Z    0.000000   0.000000   0.000000   0.000000  -0.000003
   14  S  1 XX   -0.680143   0.536401  -0.000003  -0.497348   0.000000
   15  S  1 YY    0.783093   0.341394  -0.000001   0.425098   0.000000
   16  S  1 ZZ   -0.102950  -0.877795   0.000004   0.072250   0.000000
   17  S  1 XY    0.000001   0.000005   0.714274  -0.000001   0.000000
   18  S  1 XZ    0.000000   0.000000   0.000000   0.000000   0.411654
   19  S  1 YZ    0.000000   0.000000   0.000000   0.000000  -0.000003
   20  O  2  S    0.006730   0.070156   0.073714  -0.005578   0.000000
   21  O  2  S   -0.027455  -0.243431  -0.250498   0.055603   0.000000
   22  O  2  S   -0.049064  -0.379927  -0.297249  -0.139062   0.000000
   23  O  2  X    0.216864  -0.101272  -0.170531  -0.465010   0.000000
   24  O  2  Y   -0.318069  -0.055604  -0.207851   0.297072   0.000000
   25  O  2  Z    0.000000   0.000000   0.000000   0.000000   0.585541
   26  O  2  X   -0.028114   0.565522   0.730253   0.595439   0.000000
   27  O  2  Y    0.096854   0.488733   0.702073  -0.449051   0.000000
   28  O  2  Z    0.000000   0.000000   0.000000   0.000000  -0.808110
   29  O  2 XX    0.055565   0.008445   0.009876   0.032587   0.000000
   30  O  2 YY   -0.054988   0.015349   0.001118  -0.048415   0.000000
   31  O  2 ZZ   -0.000577  -0.023794  -0.010994   0.015828   0.000000
   32  O  2 XY   -0.013489   0.003431   0.022805   0.012619   0.000000
   33  O  2 XZ    0.000000   0.000000   0.000000   0.000000  -0.041685
   34  O  2 YZ    0.000000   0.000000   0.000000   0.000000  -0.033957
   35  O  3  S    0.006730   0.070155  -0.073715  -0.005578   0.000000
   36  O  3  S   -0.027456  -0.243433   0.250502   0.055602   0.000000
   37  O  3  S   -0.049063  -0.379915   0.297255  -0.139062   0.000000
   38  O  3  X   -0.216865   0.101265  -0.170534   0.465007   0.000000
   39  O  3  Y   -0.318069  -0.055603   0.207855   0.297071   0.000000
   40  O  3  Z    0.000000   0.000000   0.000000   0.000000  -0.585548
   41  O  3  X    0.028115  -0.565507   0.730262  -0.595435   0.000000
   42  O  3  Y    0.096853   0.488725  -0.702082  -0.449049   0.000000
   43  O  3  Z    0.000000   0.000000   0.000000   0.000000   0.808120
   44  O  3 XX    0.055565   0.008445  -0.009876   0.032587   0.000000
   45  O  3 YY   -0.054988   0.015349  -0.001119  -0.048415   0.000000
   46  O  3 ZZ   -0.000577  -0.023794   0.010994   0.015828   0.000000
   47  O  3 XY    0.013489  -0.003431   0.022805  -0.012619   0.000000
   48  O  3 XZ    0.000000   0.000000   0.000000   0.000000  -0.041685
   49  O  3 YZ    0.000000   0.000000   0.000000   0.000000   0.033958

                     31         32         33         34         35
                    0.8357     0.8513     0.9171     0.9968     1.4140
                     A          A          A          A          A   
    1  S  1  S    0.000000   0.010155   0.000000  -0.000000  -0.000000
    2  S  1  S    0.000000  -0.096795  -0.000000   0.000000   0.000002
    3  S  1  S    0.000000   0.685947   0.000001   0.000001   0.000010
    4  S  1  S    0.000000  -0.172622   0.000001  -0.000007  -0.000103
    5  S  1  X    0.000000  -0.000000  -0.023138  -0.046771   0.062276
    6  S  1  Y    0.000000  -0.000159  -0.000000   0.000000   0.000004
    7  S  1  Z    0.001630   0.000000   0.000000   0.000000   0.000000
    8  S  1  X    0.000000   0.000000   0.034309   0.057964  -0.480001
    9  S  1  Y    0.000000   0.206150   0.000001  -0.000002  -0.000029
   10  S  1  Z   -0.025532   0.000000   0.000000   0.000000   0.000000
   11  S  1  X    0.000000  -0.000000  -0.415625   0.535899  -0.561688
   12  S  1  Y    0.000000  -0.303108  -0.000000  -0.000003  -0.000045
   13  S  1  Z   -0.559696   0.000000   0.000000   0.000000   0.000000
   14  S  1 XX    0.000000  -0.161680   0.000000  -0.000001  -0.000009
   15  S  1 YY    0.000000  -0.339614  -0.000001  -0.000000  -0.000009
   16  S  1 ZZ    0.000000   0.501294   0.000000   0.000001   0.000019
   17  S  1 XY    0.000000   0.000000   0.336348   0.829631  -0.245000
   18  S  1 XZ   -0.000002   0.000000   0.000000   0.000000   0.000000
   19  S  1 YZ   -0.450770   0.000000   0.000000   0.000000   0.000000
   20  O  2  S    0.000000  -0.011934   0.017690   0.019166   0.078534
   21  O  2  S    0.000000   0.089815  -0.102948   0.030104  -1.200048
   22  O  2  S    0.000000   0.028272   0.094795  -0.412420   1.706146
   23  O  2  X    0.000000  -0.364310  -0.250615   0.560288   0.097789
   24  O  2  Y    0.000000  -0.475518   0.576916   0.215332   0.036122
   25  O  2  Z   -0.573810   0.000000   0.000000   0.000000   0.000000
   26  O  2  X    0.000000   0.377793   0.552510  -0.528333  -0.472613
   27  O  2  Y    0.000000   0.645605  -0.710401   0.073298  -0.373176
   28  O  2  Z    0.879031   0.000000   0.000000   0.000000   0.000000
   29  O  2 XX    0.000000  -0.019905   0.046287  -0.039428  -0.122512
   30  O  2 YY    0.000000   0.024539  -0.029826   0.016345  -0.012006
   31  O  2 ZZ    0.000000  -0.004634  -0.016461   0.023083   0.134519
   32  O  2 XY    0.000000   0.051496  -0.009353   0.031021  -0.101086
   33  O  2 XZ    0.036205   0.000000   0.000000   0.000000   0.000000
   34  O  2 YZ    0.036031   0.000000   0.000000   0.000000   0.000000
   35  O  3  S    0.000000  -0.011935  -0.017691  -0.019165  -0.078526
   36  O  3  S    0.000000   0.089821   0.102957  -0.030118   1.199907
   37  O  3  S    0.000000   0.028267  -0.094805   0.412440  -1.705906
   38  O  3  X    0.000000   0.364309  -0.250617   0.560290   0.097793
   39  O  3  Y    0.000000  -0.475517  -0.576916  -0.215332  -0.036121
   40  O  3  Z   -0.573803   0.000000   0.000000   0.000000   0.000000
   41  O  3  X    0.000000  -0.377791   0.552511  -0.528333  -0.472566
   42  O  3  Y    0.000000   0.645603   0.710403  -0.073301   0.373136
   43  O  3  Z    0.879022   0.000000   0.000000   0.000000   0.000000
   44  O  3 XX    0.000000  -0.019905  -0.046287   0.039428   0.122513
   45  O  3 YY    0.000000   0.024539   0.029826  -0.016345   0.012004
   46  O  3 ZZ    0.000000  -0.004634   0.016461  -0.023083  -0.134517
   47  O  3 XY    0.000000  -0.051496  -0.009353   0.031022  -0.101070
   48  O  3 XZ   -0.036204   0.000000   0.000000   0.000000   0.000000
   49  O  3 YZ    0.036031   0.000000   0.000000   0.000000   0.000000

                     36         37         38         39         40
                    1.4594     2.0852     2.0864     2.0947     2.0992
                     A          A          A          A          A   
    1  S  1  S   -0.000388   0.000000  -0.000000   0.000000   0.001423
    2  S  1  S    0.009981   0.000000   0.000000   0.000000  -0.009929
    3  S  1  S    0.275512   0.000000  -0.000001   0.000000   0.052400
    4  S  1  S   -2.010601   0.000000   0.000002   0.000000  -0.221334
    5  S  1  X   -0.000003   0.000000  -0.022253   0.000000  -0.000000
    6  S  1  Y    0.080178   0.000000  -0.000000   0.000000  -0.001162
    7  S  1  Z    0.000000  -0.010430   0.000000   0.000000   0.000000
    8  S  1  X    0.000027   0.000000   0.078000   0.000000   0.000001
    9  S  1  Y   -0.510881   0.000000   0.000000   0.000000  -0.017891
   10  S  1  Z    0.000000   0.037081   0.000000  -0.000001   0.000000
   11  S  1  X    0.000024   0.000000   0.034786   0.000000   0.000000
   12  S  1  Y   -0.895877   0.000000   0.000001   0.000000  -0.124795
   13  S  1  Z    0.000000   0.024451   0.000000  -0.000000   0.000000
   14  S  1 XX   -0.181975   0.000000  -0.000000   0.000000   0.018772
   15  S  1 YY   -0.190111   0.000000  -0.000000   0.000000   0.049743
   16  S  1 ZZ    0.372086   0.000000   0.000000   0.000000  -0.068515
   17  S  1 XY    0.000010   0.000000  -0.065488   0.000000  -0.000001
   18  S  1 XZ    0.000000   0.000000   0.000000   0.019588   0.000000
   19  S  1 YZ    0.000000  -0.011271   0.000000   0.000000   0.000000
   20  O  2  S    0.069842   0.000000  -0.001431   0.000000   0.008793
   21  O  2  S   -1.251012   0.000000   0.026102   0.000000  -0.136074
   22  O  2  S    2.200675   0.000000  -0.041673   0.000000   0.222944
   23  O  2  X   -0.037811   0.000000   0.015807   0.000000   0.035894
   24  O  2  Y    0.000643   0.000000  -0.022925   0.000000   0.002249
   25  O  2  Z    0.000000   0.024877   0.000000   0.027458   0.000000
   26  O  2  X   -0.443615   0.000000  -0.023418   0.000000  -0.080532
   27  O  2  Y   -0.353131   0.000000   0.034316   0.000000  -0.016659
   28  O  2  Z    0.000000  -0.041486   0.000000  -0.043100   0.000000
   29  O  2 XX    0.000854   0.000000   0.165057   0.000000  -0.345238
   30  O  2 YY   -0.021419   0.000000  -0.633141   0.000000  -0.286682
   31  O  2 ZZ    0.020565   0.000000   0.468084   0.000000   0.631919
   32  O  2 XY   -0.153418   0.000000   0.267692   0.000000   0.312162
   33  O  2 XZ    0.000000  -0.380950   0.000000   0.586985   0.000000
   34  O  2 YZ    0.000000   0.595847   0.000000  -0.395229   0.000000
   35  O  3  S    0.069851   0.000000   0.001431   0.000000   0.008793
   36  O  3  S   -1.251142   0.000000  -0.026099   0.000000  -0.136074
   37  O  3  S    2.200855   0.000000   0.041669   0.000000   0.222944
   38  O  3  X    0.037794   0.000000   0.015807   0.000000  -0.035893
   39  O  3  Y    0.000646   0.000000   0.022925   0.000000   0.002249
   40  O  3  Z    0.000000   0.024876   0.000000  -0.027459   0.000000
   41  O  3  X    0.443676   0.000000  -0.023420   0.000000   0.080531
   42  O  3  Y   -0.353166   0.000000  -0.034316   0.000000  -0.016659
   43  O  3  Z    0.000000  -0.041485   0.000000   0.043102   0.000000
   44  O  3 XX    0.000836   0.000000  -0.165053   0.000000  -0.345243
   45  O  3 YY   -0.021419   0.000000   0.633146   0.000000  -0.286672
   46  O  3 ZZ    0.020583   0.000000  -0.468092   0.000000   0.631915
   47  O  3 XY    0.153430   0.000000   0.267695   0.000000  -0.312160
   48  O  3 XZ    0.000000   0.380966   0.000000   0.586975   0.000000
   49  O  3 YZ    0.000000   0.595859   0.000000   0.395213   0.000000

                     41         42         43         44         45
                    2.1834     2.1939     2.2435     2.3353     2.6496
                     A          A          A          A          A   
    1  S  1  S   -0.000000   0.000000   0.000000  -0.002682  -0.033633
    2  S  1  S    0.000001   0.000000   0.000000   0.023069   0.272930
    3  S  1  S   -0.000003   0.000000   0.000000  -0.095201  -0.753537
    4  S  1  S    0.000005   0.000000   0.000000  -0.029811  -0.756266
    5  S  1  X   -0.026157   0.000000   0.000000   0.000000   0.000001
    6  S  1  Y    0.000000   0.000000   0.000000  -0.034088   0.161434
    7  S  1  Z    0.000000  -0.000000  -0.059681   0.000000   0.000000
    8  S  1  X    0.044596   0.000000   0.000000  -0.000000  -0.000003
    9  S  1  Y   -0.000000   0.000000   0.000000   0.084414  -0.876886
   10  S  1  Z    0.000000   0.000000   0.209925   0.000000   0.000000
   11  S  1  X    0.054068   0.000000   0.000000   0.000000  -0.000002
   12  S  1  Y    0.000003   0.000000   0.000000   0.064513  -0.153503
   13  S  1  Z    0.000000   0.000000   0.082250   0.000000   0.000000
   14  S  1 XX   -0.000000   0.000000   0.000000  -0.416455  -0.221724
   15  S  1 YY    0.000000   0.000000   0.000000   0.402477  -0.170162
   16  S  1 ZZ   -0.000000   0.000000   0.000000   0.013977   0.391886
   17  S  1 XY    0.007498   0.000000   0.000000  -0.000000  -0.000003
   18  S  1 XZ    0.000000  -0.351501   0.000001   0.000000   0.000000
   19  S  1 YZ    0.000000   0.000001   0.336938   0.000000   0.000000
   20  O  2  S    0.011120   0.000000   0.000000   0.005248   0.005699
   21  O  2  S   -0.160046   0.000000   0.000000  -0.072712  -0.475021
   22  O  2  S    0.174645   0.000000   0.000000   0.075570   1.046652
   23  O  2  X    0.123991   0.000000   0.000000   0.017790   0.013466
   24  O  2  Y   -0.034559   0.000000   0.000000   0.038605   0.026728
   25  O  2  Z    0.000000  -0.048491   0.046122   0.000000   0.000000
   26  O  2  X   -0.235774   0.000000   0.000000   0.019516  -0.467019
   27  O  2  Y    0.065607   0.000000   0.000000  -0.145649  -0.424245
   28  O  2  Z    0.000000   0.114567  -0.142489   0.000000   0.000000
   29  O  2 XX    0.648033   0.000000   0.000000  -0.596889   0.279041
   30  O  2 YY   -0.290031   0.000000   0.000000   0.672535   0.082439
   31  O  2 ZZ   -0.358002   0.000000   0.000000  -0.075646  -0.361480
   32  O  2 XY   -0.286959   0.000000   0.000000   0.073408   0.693721
   33  O  2 XZ    0.000000  -0.407182   0.613425   0.000000   0.000000
   34  O  2 YZ    0.000000  -0.598170   0.397384   0.000000   0.000000
   35  O  3  S   -0.011120   0.000000   0.000000   0.005248   0.005699
   36  O  3  S    0.160050   0.000000   0.000000  -0.072712  -0.475020
   37  O  3  S   -0.174652   0.000000   0.000000   0.075570   1.046647
   38  O  3  X    0.123991   0.000000   0.000000  -0.017790  -0.013468
   39  O  3  Y    0.034559   0.000000   0.000000   0.038605   0.026728
   40  O  3  Z    0.000000   0.048491   0.046122   0.000000   0.000000
   41  O  3  X   -0.235775   0.000000   0.000000  -0.019516   0.467018
   42  O  3  Y   -0.065607   0.000000   0.000000  -0.145649  -0.424241
   43  O  3  Z    0.000000  -0.114568  -0.142488   0.000000   0.000000
   44  O  3 XX   -0.648031   0.000000   0.000000  -0.596888   0.279041
   45  O  3 YY    0.290033   0.000000   0.000000   0.672534   0.082437
   46  O  3 ZZ    0.357998   0.000000   0.000000  -0.075645  -0.361478
   47  O  3 XY   -0.286960   0.000000   0.000000  -0.073408  -0.693716
   48  O  3 XZ    0.000000  -0.407185  -0.613423   0.000000   0.000000
   49  O  3 YZ    0.000000   0.598171   0.397382   0.000000   0.000000

                     46
                    2.7808
                     A   
    1  S  1  S   -0.000000
    2  S  1  S    0.000001
    3  S  1  S   -0.000000
    4  S  1  S   -0.000008
    5  S  1  X   -0.199310
    6  S  1  Y    0.000001
    7  S  1  Z    0.000000
    8  S  1  X    1.084647
    9  S  1  Y   -0.000003
   10  S  1  Z    0.000000
   11  S  1  X    0.150690
   12  S  1  Y   -0.000003
   13  S  1  Z    0.000000
   14  S  1 XX   -0.000001
   15  S  1 YY   -0.000001
   16  S  1 ZZ    0.000002
   17  S  1 XY    0.761419
   18  S  1 XZ    0.000000
   19  S  1 YZ    0.000000
   20  O  2  S   -0.000345
   21  O  2  S    0.519366
   22  O  2  S   -1.139478
   23  O  2  X   -0.009218
   24  O  2  Y    0.020140
   25  O  2  Z    0.000000
   26  O  2  X    0.573090
   27  O  2  Y    0.489076
   28  O  2  Z    0.000000
   29  O  2 XX   -0.259651
   30  O  2 YY   -0.178083
   31  O  2 ZZ    0.437735
   32  O  2 XY   -0.702483
   33  O  2 XZ    0.000000
   34  O  2 YZ    0.000000
   35  O  3  S    0.000345
   36  O  3  S   -0.519372
   37  O  3  S    1.139492
   38  O  3  X   -0.009218
   39  O  3  Y   -0.020140
   40  O  3  Z    0.000000
   41  O  3  X    0.573095
   42  O  3  Y   -0.489080
   43  O  3  Z    0.000000
   44  O  3 XX    0.259653
   45  O  3 YY    0.178084
   46  O  3 ZZ   -0.437737
   47  O  3 XY   -0.702487
   48  O  3 XZ    0.000000
   49  O  3 YZ    0.000000
 ...... END OF RHF CALCULATION ......
 STEP CPU TIME =     2.54 TOTAL CPU TIME =          2.7 (      0.0 MIN)
 TOTAL WALL CLOCK TIME=          2.7 SECONDS, CPU UTILIZATION IS    98.18%

     ---------------------------------------------------------------------
     PROPERTIES FOR THE PBE      DFT FUNCTIONAL (RHF  TYPE) DENSITY MATRIX
     ---------------------------------------------------------------------

          -----------------
          ENERGY COMPONENTS
          -----------------

         WAVEFUNCTION NORMALIZATION =       1.0000000000

                ONE ELECTRON ENERGY =    -958.8718870463
                TWO ELECTRON ENERGY =     308.4399138818
           NUCLEAR REPULSION ENERGY =     102.2175621441
                                      ------------------
                       TOTAL ENERGY =    -548.2144110204

 ELECTRON-ELECTRON POTENTIAL ENERGY =     308.4399138818
  NUCLEUS-ELECTRON POTENTIAL ENERGY =   -1506.1559874864
   NUCLEUS-NUCLEUS POTENTIAL ENERGY =     102.2175621441
                                      ------------------
             TOTAL POTENTIAL ENERGY =   -1095.4985114605
               TOTAL KINETIC ENERGY =     547.2841004401
                 VIRIAL RATIO (V/T) =       2.0016998677

          ---------------------------------------
          MULLIKEN AND LOWDIN POPULATION ANALYSES
          ---------------------------------------

     ATOMIC MULLIKEN POPULATION IN EACH MOLECULAR ORBITAL

                      1          2          3          4          5

                  2.000000   2.000000   2.000000   2.000000   2.000000

    1             1.999954   0.000524   0.001464   2.000628   2.000254
    2             0.000023   0.948321   1.050685  -0.000314  -0.000127
    3             0.000023   1.051155   0.947851  -0.000314  -0.000127

                      6          7          8          9         10

                  2.000000   2.000000   2.000000   2.000000   2.000000

    1             2.000020   2.000216   0.696352   0.322707   1.218639
    2            -0.000010  -0.000108   0.651819   0.838653   0.390679
    3            -0.000010  -0.000108   0.651829   0.838640   0.390681

                     11         12         13         14         15

                  2.000000   2.000000   2.000000   2.000000   2.000000

    1             1.118689   0.569081   0.842181   0.315323   0.064765
    2             0.440654   0.715444   0.578924   0.842335   0.967618
    3             0.440656   0.715476   0.578895   0.842341   0.967617

                     16

                  2.000000

    1             0.159138
    2             0.920438
    3             0.920425

               ----- POPULATIONS IN EACH AO -----
                             MULLIKEN      LOWDIN
              1  S  1  S      1.99982     1.99924
              2  S  1  S      1.99213     1.88482
              3  S  1  S      1.32845     0.67152
              4  S  1  S      0.53191     0.46713
              5  S  1  X      1.99379     1.95824
              6  S  1  Y      1.99484     1.96520
              7  S  1  Z      1.99389     1.96127
              8  S  1  X      0.83043     0.70528
              9  S  1  Y      1.02008     0.91702
             10  S  1  Z      0.89572     0.79815
             11  S  1  X      0.10645     0.22767
             12  S  1  Y      0.08066     0.24888
             13  S  1  Z      0.21237     0.31872
             14  S  1 XX      0.02639     0.29906
             15  S  1 YY      0.10047     0.29935
             16  S  1 ZZ      0.12103     0.27277
             17  S  1 XY      0.06476     0.14119
             18  S  1 XZ      0.01672     0.07673
             19  S  1 YZ      0.00000     0.01610
             20  O  2  S      1.99557     1.97274
             21  O  2  S      0.95449     0.69825
             22  O  2  S      0.94646     0.53673
             23  O  2  X      1.01660     0.98203
             24  O  2  Y      0.93390     0.90198
             25  O  2  Z      0.84519     0.81295
             26  O  2  X      0.53530     0.61752
             27  O  2  Y      0.54260     0.63625
             28  O  2  Z      0.55777     0.59402
             29  O  2 XX      0.00191     0.20379
             30  O  2 YY      0.00391     0.20402
             31  O  2 ZZ      0.00603     0.20603
             32  O  2 XY      0.00270     0.01198
             33  O  2 XZ      0.00260     0.00403
             34  O  2 YZ      0.00000     0.00350
             35  O  3  S      1.99557     1.97274
             36  O  3  S      0.95449     0.69825
             37  O  3  S      0.94646     0.53673
             38  O  3  X      1.01659     0.98203
             39  O  3  Y      0.93390     0.90198
             40  O  3  Z      0.84519     0.81295
             41  O  3  X      0.53530     0.61752
             42  O  3  Y      0.54260     0.63625
             43  O  3  Z      0.55777     0.59403
             44  O  3 XX      0.00191     0.20379
             45  O  3 YY      0.00391     0.20402
             46  O  3 ZZ      0.00603     0.20603
             47  O  3 XY      0.00270     0.01198
             48  O  3 XZ      0.00260     0.00403
             49  O  3 YZ      0.00000     0.00350

          ----- MULLIKEN ATOMIC OVERLAP POPULATIONS -----
          (OFF-DIAGONAL ELEMENTS NEED TO BE MULTIPLIED BY 2)

             1           2           3

    1   14.5978516
    2    0.3560368   8.0965222
    3    0.3560479  -0.1075255   8.0965078

          TOTAL MULLIKEN AND LOWDIN ATOMIC POPULATIONS
       ATOM         MULL.POP.    CHARGE          LOW.POP.     CHARGE
    1 S            15.309936    0.690064        15.228363    0.771637
    2 O             8.345034   -0.345034         8.385819   -0.385819
    3 O             8.345030   -0.345030         8.385818   -0.385818

          MULLIKEN SPHERICAL HARMONIC POPULATIONS
       ATOM           S       P       D      F      G      H      I    TOTAL
    1 S             5.85    9.13    0.33   0.00   0.00   0.00   0.00   15.31
    2 O             3.90    4.43    0.02   0.00   0.00   0.00   0.00    8.35
    3 O             3.90    4.43    0.02   0.00   0.00   0.00   0.00    8.35

          -------------------------------
          BOND ORDER AND VALENCE ANALYSIS     BOND ORDER THRESHOLD=0.050
          -------------------------------

                   BOND                       BOND                       BOND
  ATOM PAIR DIST  ORDER      ATOM PAIR DIST  ORDER      ATOM PAIR DIST  ORDER
    1   2  1.550  1.771        1   3  1.550  1.771        2   3  2.286  0.327

                       TOTAL       BONDED        FREE
      ATOM            VALENCE     VALENCE     VALENCE
    1 S                 3.542       3.542       0.000
    2 O                 2.098       2.098      -0.000
    3 O                 2.098       2.098      -0.000

          ---------------------
          ELECTROSTATIC MOMENTS
          ---------------------

 POINT   1           X           Y           Z (BOHR)    CHARGE
                 0.000000   -0.000000    0.000000       -0.00 (A.U.)
         DX          DY          DZ         /D/  (DEBYE)
    -0.000006   -2.899455    0.000000    2.899455
 ...... END OF PROPERTY EVALUATION ......
 STEP CPU TIME =     0.01 TOTAL CPU TIME =          2.7 (      0.0 MIN)
 TOTAL WALL CLOCK TIME=          2.7 SECONDS, CPU UTILIZATION IS    98.54%
                580000  WORDS OF DYNAMIC MEMORY USED
 EXECUTION OF GAMESS TERMINATED NORMALLY Sun Sep 29 10:49:35 2019
 DDI: 263640 bytes (0.3 MB / 0 MWords) used by master data server.

 ----------------------------------------
 CPU timing information for all processes
 ========================================
 0: 2.636 + 0.72 = 2.709
 ----------------------------------------
 ddikick.x: exited gracefully.
----- accounting info -----
Files used on the master node crcfe02.crc.nd.edu were:
-rw-r--r-- 1 cdrisko campus     207 Sep 29 10:49 /afs/crc.nd.edu/user/c/cdrisko/SO2.F05
-rw-r--r-- 1 cdrisko campus   37566 Sep 29 10:49 /afs/crc.nd.edu/user/c/cdrisko/SO2.F07
-rw-r--r-- 1 cdrisko campus 4320384 Sep 29 10:49 /afs/crc.nd.edu/user/c/cdrisko/SO2.F08
-rw-r--r-- 1 cdrisko campus 1766880 Sep 29 10:49 /afs/crc.nd.edu/user/c/cdrisko/SO2.F10
Sun Sep 29 10:49:38 EDT 2019
0.422u 0.252s 0:06.39 10.4%	0+0k 0+24io 0pf+0w
