----- GAMESS execution script 'rungms' -----
This job is running on host crcfe02.crc.nd.edu
under operating system Linux at Sun Sep 29 10:48:34 EDT 2019
Available scratch disk space (Kbyte units) at beginning of the job is
Filesystem      1K-blocks  Used  Available Use% Mounted on
AFS            2147483647     0 2147483647   0% /afs
GAMESS temporary binary files will be written to /afs/crc.nd.edu/user/c/cdrisko
GAMESS supplementary output files will be written to /afs/crc.nd.edu/user/c/cdrisko/scr
Copying input file SO2.inp to your run's scratch directory...

 Distributed Data Interface kickoff program.
 Initiating 1 compute processes on 1 nodes to run the following command:
 /afs/crc.nd.edu/x86_64_linux/g/gamess/nov-2017/gamess/gamess.00.x SO2 

          ******************************************************
          *         GAMESS VERSION = 11 NOV 2017 (R3)         *
          *             FROM IOWA STATE UNIVERSITY             *
          * M.W.SCHMIDT, K.K.BALDRIDGE, J.A.BOATZ, S.T.ELBERT, *
          *   M.S.GORDON, J.H.JENSEN, S.KOSEKI, N.MATSUNAGA,   *
          *          K.A.NGUYEN, S.J.SU, T.L.WINDUS,           *
          *       TOGETHER WITH M.DUPUIS, J.A.MONTGOMERY       *
          *         J.COMPUT.CHEM.  14, 1347-1363(1993)        *
          **************** 64 BIT INTEL VERSION ****************

  SINCE 1993, STUDENTS AND POSTDOCS WORKING AT IOWA STATE UNIVERSITY
  AND ALSO IN THEIR VARIOUS JOBS AFTER LEAVING ISU HAVE MADE IMPORTANT
  CONTRIBUTIONS TO THE CODE:
     IVANA ADAMOVIC, CHRISTINE AIKENS, YURI ALEXEEV, POOJA ARORA,
     ANDREY ASADCHEV, ROB BELL, PRADIPTA BANDYOPADHYAY, JONATHAN BENTZ,
     BRETT BODE, KURT BRORSEN, CALEB CARLIN, GALINA CHABAN, WEI CHEN,
     CHEOL HO CHOI, PAUL DAY, ALBERT DEFUSCO, NUWAN DESILVA, TIM DUDLEY,
     DMITRI FEDOROV, ALEX FINDLATER, GRAHAM FLETCHER, MARK FREITAG,
     KURT GLAESEMANN, ANASTASIA GUININA,
     DAN KEMP, GRANT MERRILL, NORIYUKI MINEZAWA, JONATHAN MULLIN,
     TAKESHI NAGATA, SEAN NEDD, HEATHER NETZLOFF, BOSILJKA NJEGIC, RYAN OLSON,
     MIKE PAK, BUU PHAM,
     SPENCER PRUITT, LUKE ROSKOP, JIM SHOEMAKER, LYUDMILA SLIPCHENKO,
     TONY SMITH, SAROM SOK LEANG, JIE SONG, TETSUYA TAKETSUGU, SIMON WEBB,
     PENG XU, SOOHAENG YOO, FEDERICO ZAHARIEV

  ADDITIONAL CODE HAS BEEN PROVIDED BY COLLABORATORS IN OTHER GROUPS:
     IOWA STATE UNIVERSITY:
          JOE IVANIC, AARON WEST, LAIMUTIS BYTAUTAS, KLAUS RUEDENBERG
     UNIVERSITY OF TOKYO: KIMIHIKO HIRAO, TAKAHITO NAKAJIMA,
          TAKAO TSUNEDA, MUNEAKI KAMIYA, SUSUMU YANAGISAWA,
          KIYOSHI YAGI, MAHITO CHIBA, SEIKEN TOKURA, NAOAKI KAWAKAMI
     UNIVERSITY OF AARHUS: FRANK JENSEN
     UNIVERSITY OF IOWA: VISVALDAS KAIRYS, HUI LI
     NATIONAL INST. OF STANDARDS AND TECHNOLOGY: WALT STEVENS, DAVID GARMER
     UNIVERSITY OF PISA: BENEDETTA MENNUCCI, JACOPO TOMASI
     UNIVERSITY OF MEMPHIS: HENRY KURTZ, PRAKASHAN KORAMBATH
     UNIVERSITY OF ALBERTA: TOBY ZENG, MARIUSZ KLOBUKOWSKI
     UNIVERSITY OF NEW ENGLAND: MARK SPACKMAN
     MIE UNIVERSITY: HIROAKI UMEDA
     NAT. INST. OF ADVANCED INDUSTRIAL SCIENCE AND TECHNOLOGY: KAZUO KITAURA
     MICHIGAN STATE UNIVERSITY:
          KAROL KOWALSKI, MARTA WLOCH, JEFFREY GOUR, JESSE LUTZ,
          WEI LI, PIOTR PIECUCH
     UNIVERSITY OF SILESIA: MONIKA MUSIAL, STANISLAW KUCHARSKI
     FACULTES UNIVERSITAIRES NOTRE-DAME DE LA PAIX:
          OLIVIER QUINET, BENOIT CHAMPAGNE
     UNIVERSITY OF CALIFORNIA - SANTA BARBARA: BERNARD KIRTMAN
     INSTITUTE FOR MOLECULAR SCIENCE:
          KAZUYA ISHIMURA, MICHIO KATOUDA, AND SHIGERU NAGASE
     UNIVERSITY OF NOTRE DAME: ANNA POMOGAEVA, DAN CHIPMAN
     KYUSHU UNIVERSITY:
          HARUYUKI NAKANO,
          FENG LONG GU, JACEK KORCHOWIEC, MARCIN MAKOWSKI, AND YURIKO AOKI,
          HIROTOSHI MORI AND EISAKU MIYOSHI
     PENNSYLVANIA STATE UNIVERSITY:
          TZVETELIN IORDANOV, CHET SWALINA, JONATHAN SKONE,
          SHARON HAMMES-SCHIFFER
     WASEDA UNIVERSITY:
          MASATO KOBAYASHI, TOMOKO AKAMA, TSUGUKI TOUMA,
          TAKESHI YOSHIKAWA, YASUHIRO IKABATA, JUNJI SEINO,
          YUYA NAKAJIMA, HIROMI NAKAI
     NANJING UNIVERSITY: SHUHUA LI
     UNIVERSITY OF NEBRASKA:
          PEIFENG SU, DEJUN SI, NANDUN THELLAMUREGE, YALI WANG, HUI LI
     UNIVERSITY OF ZURICH: ROBERTO PEVERATI, KIM BALDRIDGE
     N. COPERNICUS UNIVERSITY AND JACKSON STATE UNIVERSITY:
          MARIA BARYSZ
     UNIVERSITY OF COPENHAGEN: Jimmy Kromann, CASPER STEINMANN
     TOKYO INSTITUTE OF TECHNOLOGY: HIROYA NAKATA
     NAGOYA UNIVERSITY: YOSHIO NISHIMOTO, STEPHAN IRLE
     MOSCOW STATE UNIVERSITY: VLADIMIR MIRONOV

 EXECUTION OF GAMESS BEGUN Sun Sep 29 10:48:34 2019

            ECHO OF THE FIRST FEW INPUT CARDS -
 INPUT CARD> $BASIS GBASIS=PCSEG-1 $END                                                     
 INPUT CARD> $CONTRL COORD=ZMT ISPHER=1 RUNTYP=ENERGY DFTTYP=PBE MULT=1 $END                
 INPUT CARD>                                                                                
 INPUT CARD> $DATA                                                                          
 INPUT CARD>Title SO2 single-point calculation template with Z-Matrix                       
 INPUT CARD>C1                                                                              
 INPUT CARD>S                                                                               
 INPUT CARD>O 1 1.50                                                                        
 INPUT CARD>O 1 1.50 2 115                                                                  
 INPUT CARD> $END                                                                           
    1000000 WORDS OF MEMORY AVAILABLE

     BASIS OPTIONS
     -------------
     GBASIS=PCSEG-1      IGAUSS=       0      POLAR=NONE    
     NDFUNC=       0     NFFUNC=       0     DIFFSP=       F
     NPFUNC=       0      DIFFS=       F     BASNAM=        


     RUN TITLE
     ---------
 Title SO2 single-point calculation template with Z-Matrix                       

 THE POINT GROUP OF THE MOLECULE IS C1      
 THE ORDER OF THE PRINCIPAL AXIS IS     0

 YOUR FULLY SUBSTITUTED Z-MATRIX IS
 S   
 O      1   1.5000000
 O      1   1.5000000  2  115.0000

 THE MOMENTS OF INERTIA ARE (AMU-ANGSTROM**2)
 IXX=    10.387   IYY=    51.198   IZZ=    61.585

 ATOM      ATOMIC                      COORDINATES (BOHR)
           CHARGE         X                   Y                   Z
 S          16.0     0.0000000000       -0.7617231012        0.0000000000
 O           8.0     2.3906680995        0.7613004484        0.0000000000
 O           8.0    -2.3906680995        0.7613004484        0.0000000000

          INTERNUCLEAR DISTANCES (ANGS.)
          ------------------------------

                1 S          2 O          3 O     

   1 S       0.0000000    1.5000000 *  1.5000000 *
   2 O       1.5000000 *  0.0000000    2.5301743 *
   3 O       1.5000000 *  2.5301743 *  0.0000000  

  * ... LESS THAN  3.000


     ATOMIC BASIS SET
     ----------------
 THE CONTRACTED PRIMITIVE FUNCTIONS HAVE BEEN UNNORMALIZED
 THE CONTRACTED BASIS FUNCTIONS ARE NOW NORMALIZED TO UNITY

  SHELL TYPE  PRIMITIVE        EXPONENT          CONTRACTION COEFFICIENT(S)

 S         

      1   S       1         49299.4000000    0.000677492991
      1   S       2          7395.8400000    0.005232317766
      1   S       3          1683.3000000    0.026769459077
      1   S       4           476.1440000    0.102869580705
      1   S       5           154.3290000    0.286438127414
      1   S       6            55.0288000    0.454278639081
      1   S       7            20.5029000    0.271743121997

      2   S       8            45.9596000   -0.088421914560
      2   S       9             4.9274000    0.564350486135
      2   S      10             1.9179900    0.505415953466

      3   S      11             0.3684980    1.000000000000

      4   S      12             0.1291650    1.000000000000

      5   P      13           451.6620000    0.003707705453
      5   P      14           106.0980000    0.029219352245
      5   P      15            33.6996000    0.124444551509
      5   P      16            12.3054000    0.321808587656
      5   P      17             4.7141200    0.462822172957
      5   P      18             1.7810500    0.266513371364

      6   P      19             0.8722350    0.349265132972
      6   P      20             0.3102780    0.717115018770

      7   P      21             0.1001940    1.000000000000

      8   D      22             0.5500000    1.000000000000

 O         

      9   S      23          2288.6400000    0.005451138222
      9   S      24           344.4160000    0.040718922842
      9   S      25            78.2538000    0.181369420873
      9   S      26            21.7195000    0.465536820246
      9   S      27             6.5590700    0.451211321214

     10   S      28            10.4656000   -0.150211201174
     10   S      29             0.9643510    1.052867983385

     11   S      30             0.2851270    1.000000000000

     12   P      31            17.0590000    0.068749256972
     12   P      32             3.6899900    0.351671941499
     12   P      33             0.9929960    0.724532099722

     13   P      34             0.2449240    1.000000000000

     14   D      35             1.0000000    1.000000000000

 O         

     15   S      36          2288.6400000    0.005451138222
     15   S      37           344.4160000    0.040718922842
     15   S      38            78.2538000    0.181369420873
     15   S      39            21.7195000    0.465536820246
     15   S      40             6.5590700    0.451211321214

     16   S      41            10.4656000   -0.150211201174
     16   S      42             0.9643510    1.052867983385

     17   S      43             0.2851270    1.000000000000

     18   P      44            17.0590000    0.068749256972
     18   P      45             3.6899900    0.351671941499
     18   P      46             0.9929960    0.724532099722

     19   P      47             0.2449240    1.000000000000

     20   D      48             1.0000000    1.000000000000

 TOTAL NUMBER OF BASIS SET SHELLS             =   20
 NUMBER OF CARTESIAN GAUSSIAN BASIS FUNCTIONS =   49
 NOTE: THIS RUN WILL RESTRICT THE MO VARIATION SPACE TO SPHERICAL HARMONICS.
 THE NUMBER OF ORBITALS KEPT IN THE VARIATIONAL SPACE WILL BE PRINTED LATER.
 NUMBER OF ELECTRONS                          =   32
 CHARGE OF MOLECULE                           =    0
 SPIN MULTIPLICITY                            =    1
 NUMBER OF OCCUPIED ORBITALS (ALPHA)          =   16
 NUMBER OF OCCUPIED ORBITALS (BETA )          =   16
 TOTAL NUMBER OF ATOMS                        =    3
 THE NUCLEAR REPULSION ENERGY IS      103.6982967999

     LEBEDEV GRID-BASED DFT OPTIONS
     ------------------------------
     DFTTYP=PBE     
     NRAD  =      96     NLEB  =     302
     NRAD0 =      24     NLEB0 =     110
     SWOFF =    5.00E-03 (PURE SCF -> DFT)
     SWITCH=    3.00E-04 (COARSE -> TIGHT GRID)
     THRESH=    0.00E+00 GTHRE=    1.00E+00

 GRIMME'S EMPIRICAL DISPERSION CORRECTION= F

     $CONTRL OPTIONS
     ---------------
 SCFTYP=RHF          RUNTYP=ENERGY       EXETYP=RUN     
 MPLEVL=       0     CITYP =NONE         CCTYP =NONE         VBTYP =NONE    
 DFTTYP=PBE          TDDFT =NONE    
 MULT  =       1     ICHARG=       0     NZVAR =       0     COORD =ZMT     
 PP    =NONE         RELWFN=NONE         LOCAL =NONE         NUMGRD=       F
 ISPHER=       1     NOSYM =       0     MAXIT =      30     UNITS =ANGS    
 PLTORB=       F     MOLPLT=       F     AIMPAC=       F     FRIEND=        
 NPRINT=       7     IREST =       0     GEOM  =INPUT   
 NORMF =       0     NORMP =       0     ITOL  =      20     ICUT  =       9
 INTTYP=BEST         GRDTYP=BEST         QMTTOL= 1.0E-06

     $SYSTEM OPTIONS
     ---------------
  REPLICATED MEMORY=     1000000 WORDS (ON EVERY NODE).
 DISTRIBUTED MEMDDI=           0 MILLION WORDS IN AGGREGATE,
 MEMDDI DISTRIBUTED OVER   1 PROCESSORS IS           0 WORDS/PROCESSOR.
 TOTAL MEMORY REQUESTED ON EACH PROCESSOR=     1000000 WORDS.
 TIMLIM=      525600.00 MINUTES, OR     365.0 DAYS.
 PARALL= F  BALTYP=  DLB     KDIAG=    0  COREFL= F
 MXSEQ2=     300 MXSEQ3=     150  mem10=         0

          ----------------
          PROPERTIES INPUT
          ----------------

     MOMENTS            FIELD           POTENTIAL          DENSITY
 IEMOM =       1   IEFLD =       0   IEPOT =       0   IEDEN =       0
 WHERE =COMASS     WHERE =NUCLEI     WHERE =NUCLEI     WHERE =NUCLEI  
 OUTPUT=BOTH       OUTPUT=BOTH       OUTPUT=BOTH       OUTPUT=BOTH    
 IEMINT=       0   IEFINT=       0                     IEDINT=       0
                                                       MORB  =       0
          EXTRAPOLATION IN EFFECT
          DIIS IN EFFECT
 ORBITAL PRINTING OPTION: NPREO=     1    49     2     1

     -------------------------------
     INTEGRAL TRANSFORMATION OPTIONS
     -------------------------------
     NWORD  =            0
     CUTOFF = 1.0E-09     MPTRAN =       0
     DIRTRF =       F     AOINTS =DUP     

          ----------------------
          INTEGRAL INPUT OPTIONS
          ----------------------
 NOPK  =       1 NORDER=       0 SCHWRZ=       F

   --- ENCODED Z MATRIX ---
 COORD  TYPE   I   J   K   L   M   N
    1      1    2   1
    2      1    3   1
    3      2    3   1   2

 THE DETERMINANT OF THE G MATRIX IS 10**(    -4)

 THE DETERMINANT OF THE G MATRIX IS 10**(    -4)
 * * * WARNING * * *
 YOUR B MATRIX HAS A SMALL DETERMINANT.
 THIS SUGGESTS YOU MAY HAVE BADLY CHOSEN COORDINATES.

     ------------------------------------------
     THE POINT GROUP IS C1 , NAXIS= 0, ORDER= 1
     ------------------------------------------

 -- VARIATIONAL SPACE WILL BE RESTRICTED TO PURE SPHERICAL HARMONICS ONLY --
 AFTER EXCLUDING CONTAMINANT COMBINATIONS FROM THE CARTESIAN GAUSSIAN BASIS
 SET, THE NUMBER OF SPHERICAL HARMONICS KEPT IN THE VARIATION SPACE IS   46

     DIMENSIONS OF THE SYMMETRY SUBSPACES ARE
 A   =   46

 ..... DONE SETTING UP THE RUN .....
 STEP CPU TIME =     0.04 TOTAL CPU TIME =          0.0 (      0.0 MIN)
 TOTAL WALL CLOCK TIME=          0.0 SECONDS, CPU UTILIZATION IS    80.00%

          ********************
          1 ELECTRON INTEGRALS
          ********************
 ...... END OF ONE-ELECTRON INTEGRALS ......
 STEP CPU TIME =     0.00 TOTAL CPU TIME =          0.0 (      0.0 MIN)
 TOTAL WALL CLOCK TIME=          0.0 SECONDS, CPU UTILIZATION IS    80.00%

          -------------
          GUESS OPTIONS
          -------------
          GUESS =HUCKEL            NORB  =       0          NORDER=       0
          MIX   =       F          PRTMO =       F          PUNMO =       F
          TOLZ  = 1.0E-08          TOLE  = 1.0E-05
          SYMDEN=       F          PURIFY=       F

 INITIAL GUESS ORBITALS GENERATED BY HUCKEL   ROUTINE.
 HUCKEL GUESS REQUIRES     21634 WORDS.

 STATISTICS FOR GENERATION OF SYMMETRY ORBITAL -Q- MATRIX
 NUMBER OF CARTESIAN ATOMIC ORBITALS=         49
 NUMBER OF SPHERICAL CONTAMINANTS DROPPED=     3
 NUMBER OF LINEARLY DEPENDENT MOS DROPPED=     0
 TOTAL NUMBER OF MOS IN VARIATION SPACE=      46

 SYMMETRIES FOR INITIAL GUESS ORBITALS FOLLOW.   BOTH SET(S).
    16 ORBITALS ARE OCCUPIED (    7 CORE ORBITALS).
     8=A        9=A       10=A       11=A       12=A       13=A       14=A   
    15=A       16=A       17=A       18=A       19=A       20=A       21=A   
    22=A       23=A       24=A       25=A       26=A   
 ...... END OF INITIAL ORBITAL SELECTION ......
 STEP CPU TIME =     0.00 TOTAL CPU TIME =          0.0 (      0.0 MIN)
 TOTAL WALL CLOCK TIME=          0.0 SECONDS, CPU UTILIZATION IS    80.00%

                    ----------------------
                    AO INTEGRAL TECHNOLOGY
                    ----------------------
     S,P,L SHELL ROTATED AXIS INTEGRALS, REPROGRAMMED BY
        KAZUYA ISHIMURA (IMS) AND JOSE SIERRA (SYNSTAR).
     S,P,D,L SHELL ROTATED AXIS INTEGRALS PROGRAMMED BY
        KAZUYA ISHIMURA (INSTITUTE FOR MOLECULAR SCIENCE).
     S,P,D,F,G SHELL TO TOTAL QUARTET ANGULAR MOMENTUM SUM 5,
        ERIC PROGRAM BY GRAHAM FLETCHER (ELORET AND NASA ADVANCED
        SUPERCOMPUTING DIVISION, AMES RESEARCH CENTER).
     S,P,D,F,G,L SHELL GENERAL RYS QUADRATURE PROGRAMMED BY
        MICHEL DUPUIS (PACIFIC NORTHWEST NATIONAL LABORATORY).

          --------------------
          2 ELECTRON INTEGRALS
          --------------------

 THE -PK- OPTION IS OFF, THE INTEGRALS ARE NOT IN SUPERMATRIX FORM.
 STORING   15000 INTEGRALS/RECORD ON DISK, USING 12 BYTES/INTEGRAL.
 TWO ELECTRON INTEGRAL EVALUATION REQUIRES   90606 WORDS OF MEMORY.
 II,JST,KST,LST =  1  1  1  1 NREC =         1 INTLOC =    1
 II,JST,KST,LST =  2  1  1  1 NREC =         1 INTLOC =    2
 II,JST,KST,LST =  3  1  1  1 NREC =         1 INTLOC =    7
 II,JST,KST,LST =  4  1  1  1 NREC =         1 INTLOC =   22
 II,JST,KST,LST =  5  1  1  1 NREC =         1 INTLOC =   56
 II,JST,KST,LST =  6  1  1  1 NREC =         1 INTLOC =  125
 II,JST,KST,LST =  7  1  1  1 NREC =         1 INTLOC =  329
 II,JST,KST,LST =  8  1  1  1 NREC =         1 INTLOC =  776
 II,JST,KST,LST =  9  1  1  1 NREC =         1 INTLOC = 2864
 II,JST,KST,LST = 10  1  1  1 NREC =         1 INTLOC = 4967
 II,JST,KST,LST = 11  1  1  1 NREC =         1 INTLOC = 7633
 II,JST,KST,LST = 12  1  1  1 NREC =         1 INTLOC =10750
 II,JST,KST,LST = 13  1  1  1 NREC =         2 INTLOC = 6671
 II,JST,KST,LST = 14  1  1  1 NREC =         3 INTLOC = 6941
 II,JST,KST,LST = 15  1  1  1 NREC =         6 INTLOC = 8960
 II,JST,KST,LST = 16  1  1  1 NREC =         7 INTLOC = 1530
 II,JST,KST,LST = 17  1  1  1 NREC =         7 INTLOC =13317
 II,JST,KST,LST = 18  1  1  1 NREC =         8 INTLOC =11772
 II,JST,KST,LST = 19  1  1  1 NREC =        11 INTLOC = 7603
 II,JST,KST,LST = 20  1  1  1 NREC =        14 INTLOC =14898
 TOTAL NUMBER OF NONZERO TWO-ELECTRON INTEGRALS =              343738
         23 INTEGRAL RECORDS WERE STORED ON DISK FILE  8.
  ...... END OF TWO-ELECTRON INTEGRALS .....
 STEP CPU TIME =     0.11 TOTAL CPU TIME =          0.2 (      0.0 MIN)
 TOTAL WALL CLOCK TIME=          0.2 SECONDS, CPU UTILIZATION IS    93.75%

          --------------------------
               R-PBE SCF CALCULATION
          --------------------------

     NUCLEAR ENERGY =       103.6982967999
     MAXIT =   30     NPUNCH=    2
     EXTRAP=T  DAMP=F  SHIFT=F  RSTRCT=F  DIIS=T  DEM=F  SOSCF=F
         DENSITY MATRIX CONVERGENCE THRESHOLD=  1.00E-05
     COARSE -> FINE DFT GRID SWITCH THRESHOLD=  3.00E-04 (SWITCH IN $DFT)
                   HF -> DFT SWITCH THRESHOLD=  5.00E-03 (SWOFF IN $DFT)
     MEMORY REQUIRED FOR RHF ITERS=    183108 WORDS.

 DFT CODE IS SWITCHING FROM THE FINE GRID NRAD= 96,  NLEB=  302
                      TO THE COARSE GRID NRAD0= 24, NLEB0=  110

     EXCHANGE FUNCTIONAL   =PBE       
     CORRELATION FUNCTIONAL=PBE       
     DFT THRESHOLD         =.460E-07
     GRID CHANGE THRESHOLD =.300E-03
 FOR AN EULER-MACLAURIN QUADRATURE USING  96 RADIAL POINTS:
 SMALLEST GAUSSIAN PRIMITIVE EXPONENT=        0.1001940000 OF TYPE -P-
 ON ATOM NUMBER   1 HAS RADIAL NORMALIZATION=  1.000000
  LARGEST GAUSSIAN PRIMITIVE EXPONENT=    49299.4000000000 OF TYPE -S-
 ON ATOM NUMBER   1 HAS RADIAL NORMALIZATION=  1.000000
 DFT IS SWITCHED OFF, PERFORMING PURE SCF UNTIL SWOFF THRESHOLD IS REACHED.

 ITER EX DEM     TOTAL ENERGY        E CHANGE  DENSITY CHANGE    DIIS ERROR
   1  0  0     -546.0966906559  -546.0966906559   0.611384295   1.002539849
          * * *   INITIATING DIIS PROCEDURE   * * *
   2  1  0     -546.8416159891    -0.7449253332   0.482339869   0.263035482
   3  2  0     -546.9301174330    -0.0885014438   0.181901728   0.201225911
   4  3  0     -547.0906603598    -0.1605429269   0.025650447   0.011306426
   5  4  0     -547.0912758342    -0.0006154744   0.007394811   0.002814369
   6  5  0     -547.0913406662    -0.0000648320   0.002020129   0.000641971
 CONVERGED TO SWOFF, SO DFT CALCULATION IS NOW SWITCHED ON.
          * * *   INITIATING DIIS PROCEDURE   * * *
   7  6  0     -548.2320680762    -1.1407274100   0.355338290   0.100979418
   8  7  0     -548.2385745871    -0.0065065109   0.303417411   0.092367108
   9  8  0     -548.2384955424     0.0000790447   0.110860814   0.095324792
  10  9  0     -548.2684590133    -0.0299634709   0.023972782   0.011384994
  11 10  0     -548.2689341167    -0.0004751034   0.001086622   0.000742098
  12 11  0     -548.2689358784    -0.0000017617   0.000347911   0.000273646
  13 12  0     -548.2689360739    -0.0000001955   0.000084236   0.000024304
 DFT CODE IS SWITCHING BACK TO THE FINE GRID
          * * *   INITIATING DIIS PROCEDURE   * * *
  14 13  0     -548.2482160848     0.0207199890   0.011190309   0.011074873
  15 14  0     -548.2485285309    -0.0003124461   0.005053821   0.002231430
  16 15  0     -548.2485148523     0.0000136786   0.004452232   0.002107546
  17 16  0     -548.2485250727    -0.0000102205   0.002332546   0.002314084
  18 17  0     -548.2485357016    -0.0000106289   0.001073456   0.000879239
  19 18  0     -548.2485389534    -0.0000032518   0.000138730   0.000071405
  20 19  0     -548.2485389760    -0.0000000226   0.000024214   0.000009736
  21 20  0     -548.2485389762    -0.0000000002   0.000003275   0.000002435
  22 21  0     -548.2485389762    -0.0000000000   0.000000230   0.000000120

          -----------------
          DENSITY CONVERGED
          -----------------
     TIME TO FORM FOCK OPERATORS=       2.5 SECONDS (       0.1 SEC/ITER)
     TIME TO SOLVE SCF EQUATIONS=       0.0 SECONDS (       0.0 SEC/ITER)

 FINAL R-PBE ENERGY IS     -548.2485389762 AFTER  22 ITERATIONS
 DFT EXCHANGE + CORRELATION ENERGY =       -42.4683137497
 TOTAL ELECTRON NUMBER             =        31.9999568659

          ------------
          EIGENVECTORS
          ------------

                      1          2          3          4          5
                  -88.2265   -18.8036   -18.8035    -7.8426    -5.8686
                     A          A          A          A          A   
    1  S  1  S    0.997753  -0.000022  -0.000000  -0.308367  -0.000000
    2  S  1  S    0.008300   0.000057   0.000000   1.031619   0.000000
    3  S  1  S   -0.003191   0.000084   0.000000   0.028146  -0.000000
    4  S  1  S    0.000662   0.008643   0.000037  -0.005633  -0.000000
    5  S  1  X   -0.000000  -0.000000   0.000035  -0.000000   0.994501
    6  S  1  Y    0.000164  -0.000143  -0.000001   0.010950  -0.000001
    7  S  1  Z    0.000000   0.000000   0.000000   0.000000   0.000000
    8  S  1  X    0.000000  -0.000006   0.001413  -0.000000   0.017585
    9  S  1  Y   -0.000514   0.001790   0.000008   0.001333  -0.000000
   10  S  1  Z    0.000000   0.000000   0.000000   0.000000   0.000000
   11  S  1  X    0.000000  -0.000015   0.003571   0.000000  -0.002545
   12  S  1  Y   -0.000031   0.003489   0.000015  -0.000215  -0.000000
   13  S  1  Z    0.000000   0.000000   0.000000   0.000000   0.000000
   14  S  1 XX   -0.000277   0.000294   0.000001   0.000716  -0.000000
   15  S  1 YY    0.000038   0.000264   0.000001  -0.000255  -0.000000
   16  S  1 ZZ    0.000240  -0.000558  -0.000002  -0.000461   0.000000
   17  S  1 XY    0.000000   0.000001  -0.000184  -0.000000   0.001478
   18  S  1 XZ    0.000000   0.000000   0.000000   0.000000   0.000000
   19  S  1 YZ    0.000000   0.000000   0.000000   0.000000   0.000000
   20  O  2  S   -0.000019   0.699345   0.705254  -0.000087  -0.000369
   21  O  2  S   -0.000175   0.024084   0.023765  -0.000149   0.000055
   22  O  2  S    0.000565  -0.012862  -0.010726  -0.000412  -0.000938
   23  O  2  X   -0.000067  -0.000869  -0.000921   0.000138  -0.000435
   24  O  2  Y   -0.000038  -0.000432  -0.000648   0.000076  -0.000277
   25  O  2  Z    0.000000   0.000000   0.000000   0.000000   0.000000
   26  O  2  X   -0.000463   0.003068   0.001563   0.000832   0.000925
   27  O  2  Y   -0.000305   0.001045   0.001599   0.000614   0.000713
   28  O  2  Z    0.000000   0.000000   0.000000   0.000000   0.000000
   29  O  2 XX    0.000164  -0.000285  -0.000048   0.000090   0.000487
   30  O  2 YY   -0.000012   0.000127  -0.000084  -0.000037  -0.000019
   31  O  2 ZZ   -0.000152   0.000158   0.000132  -0.000053  -0.000468
   32  O  2 XY    0.000237  -0.000238  -0.000137   0.000078   0.000730
   33  O  2 XZ    0.000000   0.000000   0.000000   0.000000   0.000000
   34  O  2 YZ    0.000000   0.000000   0.000000   0.000000   0.000000
   35  O  3  S   -0.000019   0.705285  -0.699314  -0.000087   0.000369
   36  O  3  S   -0.000175   0.024284  -0.023560  -0.000149  -0.000055
   37  O  3  S    0.000565  -0.012953   0.010617  -0.000412   0.000938
   38  O  3  X    0.000067   0.000877  -0.000914  -0.000138  -0.000435
   39  O  3  Y   -0.000038  -0.000437   0.000644   0.000076   0.000277
   40  O  3  Z    0.000000   0.000000   0.000000   0.000000   0.000000
   41  O  3  X    0.000463  -0.003081   0.001537  -0.000832   0.000925
   42  O  3  Y   -0.000305   0.001058  -0.001590   0.000614  -0.000713
   43  O  3  Z    0.000000   0.000000   0.000000   0.000000   0.000000
   44  O  3 XX    0.000164  -0.000286   0.000045   0.000090  -0.000487
   45  O  3 YY   -0.000012   0.000126   0.000085  -0.000037   0.000019
   46  O  3 ZZ   -0.000152   0.000159  -0.000130  -0.000053   0.000468
   47  O  3 XY   -0.000237   0.000240  -0.000135  -0.000078   0.000730
   48  O  3 XZ    0.000000   0.000000   0.000000   0.000000   0.000000
   49  O  3 YZ    0.000000   0.000000   0.000000   0.000000   0.000000

                      6          7          8          9         10
                   -5.8675    -5.8625    -1.0375    -0.9512    -0.5924
                     A          A          A          A          A   
    1  S  1  S    0.000000   0.003452   0.050731  -0.000000   0.066773
    2  S  1  S    0.000000  -0.011888  -0.311425   0.000000  -0.427965
    3  S  1  S    0.000000  -0.000041   0.435249  -0.000001   0.663430
    4  S  1  S    0.000000   0.001329   0.061770   0.000005   0.238828
    5  S  1  X    0.000000   0.000001  -0.000000   0.127628   0.000000
    6  S  1  Y    0.000000   0.994798  -0.064806  -0.000000   0.050806
    7  S  1  Z    0.994933   0.000000   0.000000   0.000000   0.000000
    8  S  1  X    0.000000   0.000000   0.000001  -0.287679  -0.000000
    9  S  1  Y    0.000000   0.016280   0.139581   0.000001  -0.120336
   10  S  1  Z    0.016026   0.000000   0.000000   0.000000   0.000000
   11  S  1  X    0.000000  -0.000000   0.000002   0.010256  -0.000001
   12  S  1  Y    0.000000  -0.002556  -0.018307   0.000002  -0.049328
   13  S  1  Z   -0.003061   0.000000   0.000000   0.000000   0.000000
   14  S  1 XX    0.000000  -0.000261   0.041502   0.000001  -0.010934
   15  S  1 YY    0.000000   0.000900  -0.004913   0.000000  -0.008761
   16  S  1 ZZ    0.000000  -0.000639  -0.036589  -0.000001   0.019695
   17  S  1 XY    0.000000   0.000000   0.000001  -0.082911  -0.000000
   18  S  1 XZ   -0.000000   0.000000   0.000000   0.000000   0.000000
   19  S  1 YZ    0.000716   0.000000   0.000000   0.000000   0.000000
   20  O  2  S    0.000000  -0.000243  -0.134925   0.161539   0.111873
   21  O  2  S    0.000000   0.000148   0.274360  -0.335128  -0.238290
   22  O  2  S    0.000000  -0.000670   0.240575  -0.291358  -0.308694
   23  O  2  X    0.000000  -0.000367  -0.102019   0.086781  -0.116950
   24  O  2  Y    0.000000  -0.000256  -0.058766   0.063461  -0.101684
   25  O  2  Z   -0.000035   0.000000   0.000000   0.000000   0.000000
   26  O  2  X    0.000000   0.000729  -0.031533   0.015912  -0.055354
   27  O  2  Y    0.000000   0.000058  -0.017138   0.013272  -0.043670
   28  O  2  Z   -0.000212   0.000000   0.000000   0.000000   0.000000
   29  O  2 XX    0.000000   0.000310   0.008531  -0.003143   0.002976
   30  O  2 YY    0.000000   0.000033  -0.003056   0.000468   0.002037
   31  O  2 ZZ    0.000000  -0.000343  -0.005475   0.002675  -0.005013
   32  O  2 XY    0.000000   0.000619   0.010807  -0.008172   0.007171
   33  O  2 XZ    0.000066   0.000000   0.000000   0.000000   0.000000
   34  O  2 YZ    0.000021   0.000000   0.000000   0.000000   0.000000
   35  O  3  S    0.000000  -0.000243  -0.134926  -0.161538   0.111874
   36  O  3  S    0.000000   0.000148   0.274359   0.335129  -0.238291
   37  O  3  S    0.000000  -0.000670   0.240580   0.291350  -0.308696
   38  O  3  X    0.000000   0.000367   0.102019   0.086781   0.116951
   39  O  3  Y    0.000000  -0.000256  -0.058766  -0.063461  -0.101684
   40  O  3  Z   -0.000035   0.000000   0.000000   0.000000   0.000000
   41  O  3  X    0.000000  -0.000729   0.031535   0.015908   0.055354
   42  O  3  Y    0.000000   0.000058  -0.017139  -0.013271  -0.043670
   43  O  3  Z   -0.000212   0.000000   0.000000   0.000000   0.000000
   44  O  3 XX    0.000000   0.000310   0.008531   0.003143   0.002976
   45  O  3 YY    0.000000   0.000033  -0.003056  -0.000468   0.002037
   46  O  3 ZZ    0.000000  -0.000343  -0.005475  -0.002675  -0.005013
   47  O  3 XY    0.000000  -0.000619  -0.010807  -0.008172  -0.007171
   48  O  3 XZ   -0.000066   0.000000   0.000000   0.000000   0.000000
   49  O  3 YZ    0.000021   0.000000   0.000000   0.000000   0.000000

                     11         12         13         14         15
                   -0.4397    -0.4393    -0.4327    -0.3266    -0.3002
                     A          A          A          A          A   
    1  S  1  S    0.000000   0.000000  -0.008335   0.000000   0.000000
    2  S  1  S    0.000000  -0.000000   0.052385   0.000000  -0.000001
    3  S  1  S    0.000000   0.000000  -0.051150   0.000000   0.000001
    4  S  1  S    0.000000  -0.000000  -0.178746   0.000000   0.000008
    5  S  1  X    0.000000  -0.178995   0.000000   0.000000  -0.014175
    6  S  1  Y    0.000000  -0.000000  -0.204314   0.000000   0.000001
    7  S  1  Z   -0.216131   0.000000   0.000000  -0.000000   0.000000
    8  S  1  X    0.000000   0.487100   0.000000   0.000000   0.034694
    9  S  1  Y    0.000000  -0.000000   0.545699   0.000000  -0.000003
   10  S  1  Z    0.580358   0.000000   0.000000   0.000001   0.000000
   11  S  1  X    0.000000  -0.000174   0.000001   0.000000   0.120315
   12  S  1  Y    0.000000  -0.000000   0.084900   0.000000   0.000001
   13  S  1  Z    0.136719   0.000000   0.000000   0.000000   0.000000
   14  S  1 XX    0.000000  -0.000000  -0.042470   0.000000  -0.000001
   15  S  1 YY    0.000000   0.000000   0.062311   0.000000   0.000001
   16  S  1 ZZ    0.000000   0.000000  -0.019842   0.000000   0.000000
   17  S  1 XY    0.000000   0.048828   0.000000   0.000000  -0.113638
   18  S  1 XZ   -0.000000   0.000000   0.000000   0.122257   0.000000
   19  S  1 YZ    0.052385   0.000000   0.000000  -0.000000   0.000000
   20  O  2  S    0.000000   0.073072   0.035885   0.000000   0.001647
   21  O  2  S    0.000000  -0.151855  -0.075649   0.000000  -0.004869
   22  O  2  S    0.000000  -0.259046  -0.119269   0.000000  -0.029876
   23  O  2  X    0.000000  -0.260761  -0.300580   0.000000   0.362629
   24  O  2  Y    0.000000  -0.262669   0.111465   0.000000  -0.305861
   25  O  2  Z    0.301608   0.000000   0.000000   0.466139   0.000000
   26  O  2  X    0.000000  -0.120096  -0.172969   0.000000   0.234293
   27  O  2  Y    0.000000  -0.136791   0.076526   0.000000  -0.217395
   28  O  2  Z    0.178688   0.000000   0.000000   0.329421   0.000000
   29  O  2 XX    0.000000   0.002798   0.019629   0.000000  -0.016458
   30  O  2 YY    0.000000   0.005464  -0.013717   0.000000   0.017064
   31  O  2 ZZ    0.000000  -0.008262  -0.005912   0.000000  -0.000606
   32  O  2 XY    0.000000   0.013799   0.000365   0.000000   0.006968
   33  O  2 XZ   -0.018675   0.000000   0.000000  -0.016958   0.000000
   34  O  2 YZ   -0.011250   0.000000   0.000000  -0.012211   0.000000
   35  O  3  S    0.000000  -0.073071   0.035885   0.000000  -0.001647
   36  O  3  S    0.000000   0.151854  -0.075650   0.000000   0.004870
   37  O  3  S    0.000000   0.259046  -0.119267   0.000000   0.029872
   38  O  3  X    0.000000  -0.260760   0.300581   0.000000   0.362628
   39  O  3  Y    0.000000   0.262669   0.111465   0.000000   0.305871
   40  O  3  Z    0.301608   0.000000   0.000000  -0.466139   0.000000
   41  O  3  X    0.000000  -0.120095   0.172970   0.000000   0.234290
   42  O  3  Y    0.000000   0.136791   0.076526   0.000000   0.217402
   43  O  3  Z    0.178689   0.000000   0.000000  -0.329420   0.000000
   44  O  3 XX    0.000000  -0.002798   0.019629   0.000000   0.016458
   45  O  3 YY    0.000000  -0.005464  -0.013717   0.000000  -0.017065
   46  O  3 ZZ    0.000000   0.008262  -0.005912   0.000000   0.000606
   47  O  3 XY    0.000000   0.013799  -0.000365   0.000000   0.006968
   48  O  3 XZ    0.018675   0.000000   0.000000  -0.016957   0.000000
   49  O  3 YZ   -0.011250   0.000000   0.000000   0.012210   0.000000

                     16         17         18         19         20
                   -0.2912    -0.1755     0.0051     0.0120     0.2055
                     A          A          A          A          A   
    1  S  1  S    0.019992   0.000000   0.027553   0.000002   0.000000
    2  S  1  S   -0.129553   0.000000  -0.186094  -0.000013   0.000000
    3  S  1  S    0.155673   0.000000   0.252331   0.000016   0.000000
    4  S  1  S    0.412515   0.000000   0.791778   0.000051   0.000000
    5  S  1  X    0.000000   0.000000   0.000011  -0.174547   0.000000
    6  S  1  Y    0.105877   0.000000  -0.165575  -0.000011   0.000000
    7  S  1  Z    0.000000  -0.225129   0.000000   0.000000   0.246281
    8  S  1  X   -0.000000   0.000000  -0.000034   0.542171   0.000000
    9  S  1  Y   -0.290316   0.000000   0.533608   0.000035   0.000000
   10  S  1  Z    0.000000   0.670304   0.000000   0.000000  -0.971785
   11  S  1  X   -0.000001   0.000000  -0.000071   0.963150   0.000000
   12  S  1  Y   -0.024808   0.000000   0.759559   0.000052   0.000000
   13  S  1  Z    0.000000   0.319954   0.000000   0.000000   1.308418
   14  S  1 XX   -0.145092   0.000000  -0.142036  -0.000011   0.000000
   15  S  1 YY    0.087591   0.000000  -0.070067  -0.000005   0.000000
   16  S  1 ZZ    0.057501   0.000000   0.212103   0.000016   0.000000
   17  S  1 XY    0.000001   0.000000   0.000016  -0.224917   0.000000
   18  S  1 XZ    0.000000  -0.000000   0.000000   0.000000   0.000000
   19  S  1 YZ    0.000000  -0.073271   0.000000   0.000000  -0.101783
   20  O  2  S    0.000728   0.000000   0.058192   0.052438   0.000000
   21  O  2  S   -0.002317   0.000000  -0.118842  -0.102283   0.000000
   22  O  2  S   -0.038401   0.000000  -0.493786  -0.495423   0.000000
   23  O  2  X    0.035430   0.000000   0.334795   0.054401   0.000000
   24  O  2  Y    0.430221   0.000000  -0.010789   0.280714   0.000000
   25  O  2  Z    0.000000  -0.385780   0.000000   0.000000  -0.028342
   26  O  2  X    0.013189   0.000000   0.378894   0.055327   0.000000
   27  O  2  Y    0.308587   0.000000  -0.022644   0.270101   0.000000
   28  O  2  Z    0.000000  -0.326146   0.000000   0.000000  -0.122851
   29  O  2 XX    0.004304   0.000000   0.001852  -0.000608   0.000000
   30  O  2 YY   -0.008384   0.000000  -0.007073   0.004833   0.000000
   31  O  2 ZZ    0.004079   0.000000   0.005220  -0.004226   0.000000
   32  O  2 XY   -0.011740   0.000000  -0.001294   0.004118   0.000000
   33  O  2 XZ    0.000000   0.003212   0.000000   0.000000   0.019208
   34  O  2 YZ    0.000000   0.000203   0.000000   0.000000   0.009255
   35  O  3  S    0.000728   0.000000   0.058200  -0.052429   0.000000
   36  O  3  S   -0.002318   0.000000  -0.118860   0.102260   0.000000
   37  O  3  S   -0.038401   0.000000  -0.493853   0.495363   0.000000
   38  O  3  X   -0.035438   0.000000  -0.334804   0.054352   0.000000
   39  O  3  Y    0.430214   0.000000  -0.010751  -0.280716   0.000000
   40  O  3  Z    0.000000  -0.385780   0.000000   0.000000  -0.028342
   41  O  3  X   -0.013194   0.000000  -0.378898   0.055279   0.000000
   42  O  3  Y    0.308582   0.000000  -0.022607  -0.270106   0.000000
   43  O  3  Z    0.000000  -0.326146   0.000000   0.000000  -0.122851
   44  O  3 XX    0.004304   0.000000   0.001852   0.000608   0.000000
   45  O  3 YY   -0.008383   0.000000  -0.007072  -0.004834   0.000000
   46  O  3 ZZ    0.004079   0.000000   0.005220   0.004226   0.000000
   47  O  3 XY    0.011740   0.000000   0.001293   0.004118   0.000000
   48  O  3 XZ    0.000000  -0.003212   0.000000   0.000000  -0.019208
   49  O  3 YZ    0.000000   0.000203   0.000000   0.000000   0.009255

                     21         22         23         24         25
                    0.2223     0.2625     0.2846     0.5161     0.5303
                     A          A          A          A          A   
    1  S  1  S   -0.033650  -0.060533  -0.000001   0.000000   0.000000
    2  S  1  S    0.247559   0.442579   0.000006   0.000000   0.000000
    3  S  1  S   -0.928014  -1.675406  -0.000025   0.000000   0.000000
    4  S  1  S    1.076450   1.991857   0.000021   0.000000   0.000000
    5  S  1  X   -0.000000  -0.000005   0.280603   0.000000   0.000000
    6  S  1  Y   -0.239665   0.120673   0.000002   0.000000   0.000000
    7  S  1  Z    0.000000   0.000000   0.000000   0.025112   0.000000
    8  S  1  X    0.000001   0.000019  -1.072452   0.000000   0.000000
    9  S  1  Y    0.940762  -0.438842  -0.000007   0.000000   0.000000
   10  S  1  Z    0.000000   0.000000   0.000000  -0.114365  -0.000000
   11  S  1  X   -0.000001  -0.000016   1.368657   0.000000   0.000000
   12  S  1  Y   -1.002360   0.866623   0.000009   0.000000   0.000000
   13  S  1  Z    0.000000   0.000000   0.000000   0.131398   0.000000
   14  S  1 XX   -0.141716   0.134067  -0.000001   0.000000   0.000000
   15  S  1 YY    0.071635  -0.094753  -0.000002   0.000000   0.000000
   16  S  1 ZZ    0.070081  -0.039314   0.000002   0.000000   0.000000
   17  S  1 XY   -0.000000  -0.000000   0.260029   0.000000   0.000000
   18  S  1 XZ    0.000000   0.000000   0.000000  -0.000002   0.903896
   19  S  1 YZ    0.000000   0.000000   0.000000   0.933165   0.000002
   20  O  2  S    0.009638   0.017523   0.004548   0.000000   0.000000
   21  O  2  S   -0.046246   0.013942   0.051793   0.000000   0.000000
   22  O  2  S   -0.022517  -0.544904  -0.390978   0.000000   0.000000
   23  O  2  X    0.065200  -0.208353  -0.216792   0.000000   0.000000
   24  O  2  Y   -0.003111  -0.133082  -0.137404   0.000000   0.000000
   25  O  2  Z    0.000000   0.000000   0.000000  -0.261912  -0.334146
   26  O  2  X    0.067436   0.102848  -0.096107   0.000000   0.000000
   27  O  2  Y    0.110235  -0.012479  -0.008766   0.000000   0.000000
   28  O  2  Z    0.000000   0.000000   0.000000   0.071861   0.073835
   29  O  2 XX    0.014681  -0.036830  -0.009355   0.000000   0.000000
   30  O  2 YY   -0.016368   0.011731  -0.012830   0.000000   0.000000
   31  O  2 ZZ    0.001687   0.025099   0.022185   0.000000   0.000000
   32  O  2 XY   -0.010025  -0.029060  -0.037369   0.000000   0.000000
   33  O  2 XZ    0.000000   0.000000   0.000000  -0.043361  -0.038208
   34  O  2 YZ    0.000000   0.000000   0.000000   0.006176  -0.045787
   35  O  3  S    0.009638   0.017524  -0.004547   0.000000   0.000000
   36  O  3  S   -0.046247   0.013937  -0.051799   0.000000   0.000000
   37  O  3  S   -0.022517  -0.544900   0.390976   0.000000   0.000000
   38  O  3  X   -0.065200   0.208355  -0.216791   0.000000   0.000000
   39  O  3  Y   -0.003111  -0.133086   0.137400   0.000000   0.000000
   40  O  3  Z    0.000000   0.000000   0.000000  -0.261913   0.334145
   41  O  3  X   -0.067435  -0.102836  -0.096101   0.000000   0.000000
   42  O  3  Y    0.110235  -0.012484   0.008762   0.000000   0.000000
   43  O  3  Z    0.000000   0.000000   0.000000   0.071861  -0.073835
   44  O  3 XX    0.014681  -0.036830   0.009354   0.000000   0.000000
   45  O  3 YY   -0.016368   0.011731   0.012830   0.000000   0.000000
   46  O  3 ZZ    0.001687   0.025100  -0.022184   0.000000   0.000000
   47  O  3 XY    0.010025   0.029060  -0.037368   0.000000   0.000000
   48  O  3 XZ    0.000000   0.000000   0.000000   0.043361  -0.038208
   49  O  3 YZ    0.000000   0.000000   0.000000   0.006175   0.045787

                     26         27         28         29         30
                    0.5353     0.6410     0.6672     0.7882     0.8026
                     A          A          A          A          A   
    1  S  1  S    0.000840   0.018377  -0.000000   0.000000   0.006206
    2  S  1  S   -0.005317  -0.145931   0.000000   0.000000  -0.050367
    3  S  1  S   -0.020773   0.538421  -0.000002   0.000000   0.237922
    4  S  1  S    0.181495   0.888971  -0.000013   0.000000   0.030853
    5  S  1  X   -0.000000  -0.000001  -0.168244   0.000000  -0.000000
    6  S  1  Y    0.012585  -0.111494   0.000001   0.000000  -0.024055
    7  S  1  Z    0.000000   0.000000   0.000000  -0.000000   0.000000
    8  S  1  X    0.000001   0.000008   0.940999   0.000000   0.000001
    9  S  1  Y   -0.060833   0.605543  -0.000005   0.000000   0.115783
   10  S  1  Z    0.000000   0.000000   0.000000   0.000000   0.000000
   11  S  1  X    0.000000   0.000005   0.105757   0.000000  -0.000000
   12  S  1  Y    0.177406   0.147906  -0.000004   0.000000  -0.529315
   13  S  1  Z    0.000000   0.000000   0.000000  -0.000001   0.000000
   14  S  1 XX   -0.255759   0.625761  -0.000003   0.000000   0.475777
   15  S  1 YY    0.865538  -0.033093  -0.000000   0.000000  -0.505995
   16  S  1 ZZ   -0.609778  -0.592668   0.000004   0.000000   0.030218
   17  S  1 XY    0.000001   0.000005   0.636853   0.000000   0.000000
   18  S  1 XZ    0.000000   0.000000   0.000000   0.455343   0.000000
   19  S  1 YZ    0.000000   0.000000   0.000000  -0.000000   0.000000
   20  O  2  S    0.014055   0.068543   0.068477   0.000000   0.002137
   21  O  2  S   -0.061375  -0.205565  -0.211679   0.000000   0.037566
   22  O  2  S   -0.061812  -0.459661  -0.381725   0.000000  -0.046259
   23  O  2  X    0.171916  -0.295855  -0.145256   0.000000   0.260412
   24  O  2  Y   -0.286700   0.045055  -0.239801   0.000000  -0.447719
   25  O  2  Z    0.000000   0.000000   0.000000   0.564964   0.000000
   26  O  2  X    0.008689   0.886871   0.820562   0.000000  -0.258215
   27  O  2  Y    0.122093   0.373270   0.645630   0.000000   0.832178
   28  O  2  Z    0.000000   0.000000   0.000000  -0.800096   0.000000
   29  O  2 XX    0.037696  -0.003223   0.022929   0.000000  -0.036057
   30  O  2 YY   -0.019758   0.019814  -0.012582   0.000000   0.046983
   31  O  2 ZZ   -0.017938  -0.016591  -0.010348   0.000000  -0.010926
   32  O  2 XY   -0.035768   0.015529   0.019886   0.000000   0.038750
   33  O  2 XZ    0.000000   0.000000   0.000000  -0.044525   0.000000
   34  O  2 YZ    0.000000   0.000000   0.000000  -0.034191   0.000000
   35  O  3  S    0.014055   0.068542  -0.068478   0.000000   0.002137
   36  O  3  S   -0.061376  -0.205567   0.211681   0.000000   0.037567
   37  O  3  S   -0.061809  -0.459646   0.381738   0.000000  -0.046259
   38  O  3  X   -0.171917   0.295845  -0.145265   0.000000  -0.260411
   39  O  3  Y   -0.286700   0.045056   0.239805   0.000000  -0.447717
   40  O  3  Z    0.000000   0.000000   0.000000  -0.564964   0.000000
   41  O  3  X   -0.008687  -0.886850   0.820581   0.000000   0.258214
   42  O  3  Y    0.122091   0.373261  -0.645640   0.000000   0.832175
   43  O  3  Z    0.000000   0.000000   0.000000   0.800097   0.000000
   44  O  3 XX    0.037696  -0.003224  -0.022929   0.000000  -0.036057
   45  O  3 YY   -0.019758   0.019815   0.012581   0.000000   0.046983
   46  O  3 ZZ   -0.017938  -0.016591   0.010348   0.000000  -0.010926
   47  O  3 XY    0.035768  -0.015529   0.019887   0.000000  -0.038750
   48  O  3 XZ    0.000000   0.000000   0.000000  -0.044525   0.000000
   49  O  3 YZ    0.000000   0.000000   0.000000   0.034191   0.000000

                     31         32         33         34         35
                    0.8502     0.8748     0.8777     1.0317     1.3952
                     A          A          A          A          A   
    1  S  1  S    0.000000   0.000000  -0.001832  -0.000000  -0.000000
    2  S  1  S    0.000000  -0.000003   0.033277   0.000000   0.000001
    3  S  1  S    0.000000   0.000044  -0.515472   0.000001  -0.000004
    4  S  1  S    0.000000  -0.000025   0.296414  -0.000010  -0.000009
    5  S  1  X    0.000000   0.038425   0.000003  -0.084791   0.059327
    6  S  1  Y    0.000000   0.000004  -0.044158   0.000000   0.000000
    7  S  1  Z    0.002703   0.000000   0.000000   0.000000   0.000000
    8  S  1  X    0.000000  -0.181524  -0.000016   0.176357  -0.523875
    9  S  1  Y    0.000000  -0.000004   0.039765  -0.000002  -0.000004
   10  S  1  Z   -0.041775   0.000000   0.000000   0.000000   0.000000
   11  S  1  X    0.000000   0.374017   0.000034   0.451197  -0.860961
   12  S  1  Y    0.000000  -0.000009   0.115301  -0.000004  -0.000003
   13  S  1  Z   -0.613310   0.000000   0.000000   0.000000   0.000000
   14  S  1 XX    0.000000  -0.000058   0.677891  -0.000002   0.000001
   15  S  1 YY    0.000000   0.000007  -0.073134  -0.000000  -0.000001
   16  S  1 ZZ    0.000000   0.000052  -0.604757   0.000002  -0.000000
   17  S  1 XY    0.000000  -0.316926  -0.000027   0.868445  -0.180615
   18  S  1 XZ   -0.000000   0.000000   0.000000   0.000000   0.000000
   19  S  1 YZ   -0.370317   0.000000   0.000000   0.000000   0.000000
   20  O  2  S    0.000000  -0.002603   0.025576   0.028826   0.081015
   21  O  2  S    0.000000  -0.037565  -0.143483  -0.041161  -1.238919
   22  O  2  S    0.000000   0.052569  -0.080081  -0.415004   1.874710
   23  O  2  X    0.000000   0.281290   0.449676   0.591222   0.021882
   24  O  2  Y    0.000000  -0.544280   0.383394   0.208064   0.082569
   25  O  2  Z   -0.591863   0.000000   0.000000   0.000000   0.000000
   26  O  2  X    0.000000  -0.605070  -0.412199  -0.386891  -0.350342
   27  O  2  Y    0.000000   0.645311  -0.294101  -0.050049  -0.437425
   28  O  2  Z    0.928422   0.000000   0.000000   0.000000   0.000000
   29  O  2 XX    0.000000  -0.050861  -0.039296   0.025309  -0.064341
   30  O  2 YY    0.000000   0.034296   0.049721  -0.048193  -0.020251
   31  O  2 ZZ    0.000000   0.016565  -0.010426   0.022883   0.084593
   32  O  2 XY    0.000000   0.007980  -0.021078   0.010523  -0.107371
   33  O  2 XZ    0.046274   0.000000   0.000000   0.000000   0.000000
   34  O  2 YZ    0.019015   0.000000   0.000000   0.000000   0.000000
   35  O  3  S    0.000000   0.002600   0.025577  -0.028825  -0.081013
   36  O  3  S    0.000000   0.037580  -0.143487   0.041143   1.238894
   37  O  3  S    0.000000  -0.052546  -0.080079   0.415032  -1.874675
   38  O  3  X    0.000000   0.281371  -0.449623   0.591225   0.021880
   39  O  3  Y    0.000000   0.544214   0.383487  -0.208066  -0.082568
   40  O  3  Z   -0.591863   0.000000   0.000000   0.000000   0.000000
   41  O  3  X    0.000000  -0.605145   0.412090  -0.386889  -0.350331
   42  O  3  Y    0.000000  -0.645261  -0.294212   0.050048   0.437421
   43  O  3  Z    0.928421   0.000000   0.000000   0.000000   0.000000
   44  O  3 XX    0.000000   0.050868  -0.039286  -0.025309   0.064339
   45  O  3 YY    0.000000  -0.034305   0.049715   0.048193   0.020253
   46  O  3 ZZ    0.000000  -0.016563  -0.010429  -0.022883  -0.084592
   47  O  3 XY    0.000000   0.007976   0.021079   0.010523  -0.107369
   48  O  3 XZ   -0.046274   0.000000   0.000000   0.000000   0.000000
   49  O  3 YZ    0.019015   0.000000   0.000000   0.000000   0.000000

                     36         37         38         39         40
                    1.5123     2.0666     2.0723     2.0738     2.0877
                     A          A          A          A          A   
    1  S  1  S   -0.001647   0.000000   0.000000  -0.000000  -0.000414
    2  S  1  S    0.022690   0.000000   0.000000   0.000000   0.004762
    3  S  1  S    0.128774   0.000000   0.000000  -0.000001  -0.030294
    4  S  1  S   -2.030673   0.000000   0.000000   0.000001  -0.033173
    5  S  1  X   -0.000000   0.000000   0.000000  -0.006991   0.000000
    6  S  1  Y    0.064700   0.000000   0.000000   0.000000   0.002342
    7  S  1  Z    0.000000  -0.000000  -0.019498   0.000000   0.000000
    8  S  1  X    0.000005   0.000000   0.000000   0.003008  -0.000000
    9  S  1  Y   -0.451257   0.000000   0.000000  -0.000000  -0.022427
   10  S  1  Z    0.000000   0.000001   0.072205   0.000000   0.000000
   11  S  1  X   -0.000002   0.000000   0.000000   0.028844  -0.000001
   12  S  1  Y   -0.812749   0.000000   0.000000   0.000001  -0.017525
   13  S  1  Z    0.000000   0.000000   0.009901   0.000000   0.000000
   14  S  1 XX   -0.257245   0.000000   0.000000   0.000000   0.048801
   15  S  1 YY   -0.064655   0.000000   0.000000   0.000000   0.058176
   16  S  1 ZZ    0.321900   0.000000   0.000000  -0.000001  -0.106977
   17  S  1 XY   -0.000004   0.000000   0.000000  -0.020657   0.000000
   18  S  1 XZ    0.000000   0.031604  -0.000001   0.000000   0.000000
   19  S  1 YZ    0.000000  -0.000000  -0.018966   0.000000   0.000000
   20  O  2  S    0.067604   0.000000   0.000000   0.002000   0.004805
   21  O  2  S   -1.265741   0.000000   0.000000  -0.030513  -0.053712
   22  O  2  S    2.230891   0.000000   0.000000   0.031338   0.058954
   23  O  2  X    0.015117   0.000000   0.000000   0.040767   0.031393
   24  O  2  Y   -0.054235   0.000000   0.000000  -0.021268   0.006931
   25  O  2  Z    0.000000   0.015195   0.020670   0.000000   0.000000
   26  O  2  X   -0.646418   0.000000   0.000000  -0.073503  -0.043266
   27  O  2  Y   -0.156690   0.000000   0.000000   0.028615  -0.004735
   28  O  2  Z    0.000000  -0.024005  -0.033695   0.000000   0.000000
   29  O  2 XX   -0.118484   0.000000   0.000000   0.360487  -0.161016
   30  O  2 YY    0.046718   0.000000   0.000000   0.225570  -0.446025
   31  O  2 ZZ    0.071766   0.000000   0.000000  -0.586057   0.607042
   32  O  2 XY   -0.117795   0.000000   0.000000  -0.388496   0.323157
   33  O  2 XZ    0.000000   0.505234  -0.191687   0.000000   0.000000
   34  O  2 YZ    0.000000  -0.495202   0.681533   0.000000   0.000000
   35  O  3  S    0.067606   0.000000   0.000000  -0.002000   0.004805
   36  O  3  S   -1.265763   0.000000   0.000000   0.030514  -0.053712
   37  O  3  S    2.230915   0.000000   0.000000  -0.031339   0.058954
   38  O  3  X   -0.015126   0.000000   0.000000   0.040766  -0.031394
   39  O  3  Y   -0.054234   0.000000   0.000000   0.021268   0.006931
   40  O  3  Z    0.000000  -0.015195   0.020671   0.000000   0.000000
   41  O  3  X    0.646433   0.000000   0.000000  -0.073503   0.043267
   42  O  3  Y   -0.156693   0.000000   0.000000  -0.028615  -0.004735
   43  O  3  Z    0.000000   0.024004  -0.033696   0.000000   0.000000
   44  O  3 XX   -0.118486   0.000000   0.000000  -0.360489  -0.161010
   45  O  3 YY    0.046717   0.000000   0.000000  -0.225576  -0.446023
   46  O  3 ZZ    0.071769   0.000000   0.000000   0.586065   0.607034
   47  O  3 XY    0.117797   0.000000   0.000000  -0.388501  -0.323151
   48  O  3 XZ    0.000000   0.505241   0.191670   0.000000   0.000000
   49  O  3 YZ    0.000000   0.495225   0.681517   0.000000   0.000000

                     41         42         43         44         45
                    2.1146     2.2210     2.2609     2.4036     2.6976
                     A          A          A          A          A   
    1  S  1  S    0.000000   0.000000   0.000000  -0.001376  -0.037047
    2  S  1  S   -0.000000   0.000000   0.000000   0.013170   0.311095
    3  S  1  S    0.000000   0.000000   0.000000  -0.025774  -0.959263
    4  S  1  S    0.000000   0.000000   0.000000  -0.213633  -0.894711
    5  S  1  X    0.038334   0.000000   0.000000  -0.000000   0.000000
    6  S  1  Y    0.000000   0.000000   0.000000   0.068197   0.133349
    7  S  1  Z    0.000000   0.066217  -0.000000   0.000000   0.000000
    8  S  1  X   -0.176231   0.000000   0.000000   0.000001   0.000000
    9  S  1  Y   -0.000000   0.000000   0.000000  -0.282904  -0.795589
   10  S  1  Z    0.000000  -0.244507   0.000001   0.000000   0.000000
   11  S  1  X   -0.040521   0.000000   0.000000  -0.000001  -0.000002
   12  S  1  Y   -0.000000   0.000000   0.000000  -0.173243  -0.149892
   13  S  1  Z    0.000000  -0.080379   0.000000   0.000000   0.000000
   14  S  1 XX    0.000000   0.000000   0.000000   0.400579  -0.508638
   15  S  1 YY   -0.000000   0.000000   0.000000  -0.442489   0.078747
   16  S  1 ZZ    0.000000   0.000000   0.000000   0.041910   0.429891
   17  S  1 XY    0.220876   0.000000   0.000000  -0.000000  -0.000001
   18  S  1 XZ    0.000000   0.000001   0.446591   0.000000   0.000000
   19  S  1 YZ    0.000000  -0.306369   0.000001   0.000000   0.000000
   20  O  2  S    0.006869   0.000000   0.000000   0.006713   0.003499
   21  O  2  S   -0.091908   0.000000   0.000000  -0.141394  -0.547025
   22  O  2  S    0.109992   0.000000   0.000000   0.255354   1.257959
   23  O  2  X    0.006117   0.000000   0.000000   0.042952   0.001244
   24  O  2  Y    0.074547   0.000000   0.000000  -0.015072   0.002417
   25  O  2  Z    0.000000  -0.057597   0.040637   0.000000   0.000000
   26  O  2  X    0.013970   0.000000   0.000000  -0.179070  -0.626866
   27  O  2  Y   -0.121876   0.000000   0.000000   0.129045  -0.392773
   28  O  2  Z    0.000000   0.162552  -0.139787   0.000000   0.000000
   29  O  2 XX   -0.456782   0.000000   0.000000   0.613686   0.416446
   30  O  2 YY    0.671096   0.000000   0.000000  -0.581357   0.003588
   31  O  2 ZZ   -0.214314   0.000000   0.000000  -0.032329  -0.420035
   32  O  2 XY    0.204084   0.000000   0.000000  -0.295890   0.651688
   33  O  2 XZ    0.000000  -0.702185   0.520381   0.000000   0.000000
   34  O  2 YZ    0.000000  -0.205732   0.521212   0.000000   0.000000
   35  O  3  S   -0.006869   0.000000   0.000000   0.006713   0.003499
   36  O  3  S    0.091908   0.000000   0.000000  -0.141394  -0.547025
   37  O  3  S   -0.109992   0.000000   0.000000   0.255354   1.257958
   38  O  3  X    0.006117   0.000000   0.000000  -0.042952  -0.001246
   39  O  3  Y   -0.074547   0.000000   0.000000  -0.015072   0.002417
   40  O  3  Z    0.000000  -0.057597  -0.040636   0.000000   0.000000
   41  O  3  X    0.013970   0.000000   0.000000   0.179071   0.626868
   42  O  3  Y    0.121876   0.000000   0.000000   0.129045  -0.392772
   43  O  3  Z    0.000000   0.162552   0.139786   0.000000   0.000000
   44  O  3 XX    0.456782   0.000000   0.000000   0.613686   0.416447
   45  O  3 YY   -0.671096   0.000000   0.000000  -0.581357   0.003588
   46  O  3 ZZ    0.214313   0.000000   0.000000  -0.032329  -0.420035
   47  O  3 XY    0.204085   0.000000   0.000000   0.295889  -0.651687
   48  O  3 XZ    0.000000   0.702187   0.520378   0.000000   0.000000
   49  O  3 YZ    0.000000  -0.205734  -0.521211   0.000000   0.000000

                     46
                    2.8296
                     A   
    1  S  1  S    0.000000
    2  S  1  S   -0.000000
    3  S  1  S    0.000001
    4  S  1  S   -0.000003
    5  S  1  X   -0.231095
    6  S  1  Y    0.000000
    7  S  1  Z    0.000000
    8  S  1  X    1.335291
    9  S  1  Y   -0.000000
   10  S  1  Z    0.000000
   11  S  1  X    0.153817
   12  S  1  Y   -0.000001
   13  S  1  Z    0.000000
   14  S  1 XX   -0.000001
   15  S  1 YY    0.000000
   16  S  1 ZZ    0.000001
   17  S  1 XY    0.724126
   18  S  1 XZ    0.000000
   19  S  1 YZ    0.000000
   20  O  2  S    0.005239
   21  O  2  S    0.455104
   22  O  2  S   -1.162068
   23  O  2  X    0.043768
   24  O  2  Y    0.033496
   25  O  2  Z    0.000000
   26  O  2  X    0.643738
   27  O  2  Y    0.406178
   28  O  2  Z    0.000000
   29  O  2 XX   -0.505279
   30  O  2 YY    0.106544
   31  O  2 ZZ    0.398735
   32  O  2 XY   -0.665422
   33  O  2 XZ    0.000000
   34  O  2 YZ    0.000000
   35  O  3  S   -0.005239
   36  O  3  S   -0.455104
   37  O  3  S    1.162071
   38  O  3  X    0.043768
   39  O  3  Y   -0.033497
   40  O  3  Z    0.000000
   41  O  3  X    0.643739
   42  O  3  Y   -0.406178
   43  O  3  Z    0.000000
   44  O  3 XX    0.505279
   45  O  3 YY   -0.106543
   46  O  3 ZZ   -0.398736
   47  O  3 XY   -0.665423
   48  O  3 XZ    0.000000
   49  O  3 YZ    0.000000
 ...... END OF RHF CALCULATION ......
 STEP CPU TIME =     2.53 TOTAL CPU TIME =          2.7 (      0.0 MIN)
 TOTAL WALL CLOCK TIME=          2.7 SECONDS, CPU UTILIZATION IS    98.17%

     ---------------------------------------------------------------------
     PROPERTIES FOR THE PBE      DFT FUNCTIONAL (RHF  TYPE) DENSITY MATRIX
     ---------------------------------------------------------------------

          -----------------
          ENERGY COMPONENTS
          -----------------

         WAVEFUNCTION NORMALIZATION =       1.0000000000

                ONE ELECTRON ENERGY =    -961.5654646818
                TWO ELECTRON ENERGY =     309.6186289056
           NUCLEAR REPULSION ENERGY =     103.6982967999
                                      ------------------
                       TOTAL ENERGY =    -548.2485389762

 ELECTRON-ELECTRON POTENTIAL ENERGY =     309.6186289056
  NUCLEUS-ELECTRON POTENTIAL ENERGY =   -1508.9158860629
   NUCLEUS-NUCLEUS POTENTIAL ENERGY =     103.6982967999
                                      ------------------
             TOTAL POTENTIAL ENERGY =   -1095.5989603574
               TOTAL KINETIC ENERGY =     547.3504213811
                 VIRIAL RATIO (V/T) =       2.0016408457

          ---------------------------------------
          MULLIKEN AND LOWDIN POPULATION ANALYSES
          ---------------------------------------

     ATOMIC MULLIKEN POPULATION IN EACH MOLECULAR ORBITAL

                      1          2          3          4          5

                  2.000000   2.000000   2.000000   2.000000   2.000000

    1             1.999932   0.001463   0.000723   2.000851   2.000281
    2             0.000034   0.990816   1.008091  -0.000425  -0.000140
    3             0.000034   1.007721   0.991186  -0.000425  -0.000140

                      6          7          8          9         10

                  2.000000   2.000000   2.000000   2.000000   2.000000

    1             2.000028   2.000117   0.698953   0.400603   1.023721
    2            -0.000014  -0.000059   0.650519   0.799704   0.488138
    3            -0.000014  -0.000059   0.650528   0.799693   0.488141

                     11         12         13         14         15

                  2.000000   2.000000   2.000000   2.000000   2.000000

    1             1.061095   0.461028   0.904809   0.090576   0.147426
    2             0.469452   0.769487   0.547594   0.954713   0.926276
    3             0.469454   0.769484   0.547597   0.954711   0.926298

                     16

                  2.000000

    1             0.540600
    2             0.729713
    3             0.729687

               ----- POPULATIONS IN EACH AO -----
                             MULLIKEN      LOWDIN
              1  S  1  S      1.99981     1.99924
              2  S  1  S      1.99205     1.88386
              3  S  1  S      1.30980     0.65672
              4  S  1  S      0.56186     0.47620
              5  S  1  X      1.99394     1.95761
              6  S  1  Y      1.99502     1.96625
              7  S  1  Z      1.99382     1.96034
              8  S  1  X      0.82418     0.67739
              9  S  1  Y      1.02868     0.93798
             10  S  1  Z      0.86452     0.76687
             11  S  1  X      0.05528     0.20017
             12  S  1  Y      0.10689     0.26203
             13  S  1  Z      0.18741     0.29613
             14  S  1 XX      0.03734     0.32576
             15  S  1 YY      0.13900     0.30676
             16  S  1 ZZ      0.13666     0.28381
             17  S  1 XY      0.09058     0.15497
             18  S  1 XZ      0.01537     0.10847
             19  S  1 YZ      0.00000     0.01488
             20  O  2  S      1.99551     1.97265
             21  O  2  S      0.95098     0.69253
             22  O  2  S      0.92652     0.52575
             23  O  2  X      0.92674     0.88624
             24  O  2  Y      1.04339     1.01362
             25  O  2  Z      0.85332     0.81698
             26  O  2  X      0.45384     0.57446
             27  O  2  Y      0.59908     0.66912
             28  O  2  Z      0.56448     0.60098
             29  O  2 XX      0.00209     0.20755
             30  O  2 YY      0.00571     0.19947
             31  O  2 ZZ      0.00587     0.20229
             32  O  2 XY      0.00447     0.01196
             33  O  2 XZ      0.00188     0.00622
             34  O  2 YZ      0.00000     0.00248
             35  O  3  S      1.99551     1.97265
             36  O  3  S      0.95099     0.69253
             37  O  3  S      0.92652     0.52575
             38  O  3  X      0.92674     0.88624
             39  O  3  Y      1.04339     1.01362
             40  O  3  Z      0.85332     0.81698
             41  O  3  X      0.45384     0.57446
             42  O  3  Y      0.59908     0.66912
             43  O  3  Z      0.56448     0.60098
             44  O  3 XX      0.00209     0.20755
             45  O  3 YY      0.00571     0.19947
             46  O  3 ZZ      0.00587     0.20229
             47  O  3 XY      0.00447     0.01196
             48  O  3 XZ      0.00188     0.00622
             49  O  3 YZ      0.00000     0.00248

          ----- MULLIKEN ATOMIC OVERLAP POPULATIONS -----
          (OFF-DIAGONAL ELEMENTS NEED TO BE MULTIPLIED BY 2)

             1           2           3

    1   14.6309392
    2    0.3506307   8.0228738
    3    0.3506353  -0.0396060   8.0228669

          TOTAL MULLIKEN AND LOWDIN ATOMIC POPULATIONS
       ATOM         MULL.POP.    CHARGE          LOW.POP.     CHARGE
    1 S            15.332205    0.667795        15.235424    0.764576
    2 O             8.333899   -0.333899         8.382288   -0.382288
    3 O             8.333896   -0.333896         8.382288   -0.382288

          MULLIKEN SPHERICAL HARMONIC POPULATIONS
       ATOM           S       P       D      F      G      H      I    TOTAL
    1 S             5.86    9.05    0.42   0.00   0.00   0.00   0.00   15.33
    2 O             3.87    4.44    0.02   0.00   0.00   0.00   0.00    8.33
    3 O             3.87    4.44    0.02   0.00   0.00   0.00   0.00    8.33

          -------------------------------
          BOND ORDER AND VALENCE ANALYSIS     BOND ORDER THRESHOLD=0.050
          -------------------------------

                   BOND                       BOND                       BOND
  ATOM PAIR DIST  ORDER      ATOM PAIR DIST  ORDER      ATOM PAIR DIST  ORDER
    1   2  1.500  1.838        1   3  1.500  1.838        2   3  2.530  0.290

                       TOTAL       BONDED        FREE
      ATOM            VALENCE     VALENCE     VALENCE
    1 S                 3.677       3.677       0.000
    2 O                 2.128       2.128       0.000
    3 O                 2.128       2.128       0.000

          ---------------------
          ELECTROSTATIC MOMENTS
          ---------------------

 POINT   1           X           Y           Z (BOHR)    CHARGE
                 0.000000   -0.000000    0.000000        0.00 (A.U.)
         DX          DY          DZ         /D/  (DEBYE)
    -0.000004   -1.966819    0.000000    1.966819
 ...... END OF PROPERTY EVALUATION ......
 STEP CPU TIME =     0.01 TOTAL CPU TIME =          2.7 (      0.0 MIN)
 TOTAL WALL CLOCK TIME=          2.7 SECONDS, CPU UTILIZATION IS    98.18%
                580000  WORDS OF DYNAMIC MEMORY USED
 EXECUTION OF GAMESS TERMINATED NORMALLY Sun Sep 29 10:48:37 2019
 DDI: 263640 bytes (0.3 MB / 0 MWords) used by master data server.

 ----------------------------------------
 CPU timing information for all processes
 ========================================
 0: 2.622 + 0.79 = 2.701
 ----------------------------------------
 ddikick.x: exited gracefully.
----- accounting info -----
Files used on the master node crcfe02.crc.nd.edu were:
-rw-r--r-- 1 cdrisko campus     208 Sep 29 10:48 /afs/crc.nd.edu/user/c/cdrisko/SO2.F05
-rw-r--r-- 1 cdrisko campus   37566 Sep 29 10:48 /afs/crc.nd.edu/user/c/cdrisko/SO2.F07
-rw-r--r-- 1 cdrisko campus 4140368 Sep 29 10:48 /afs/crc.nd.edu/user/c/cdrisko/SO2.F08
-rw-r--r-- 1 cdrisko campus 1766880 Sep 29 10:48 /afs/crc.nd.edu/user/c/cdrisko/SO2.F10
Sun Sep 29 10:48:40 EDT 2019
0.446u 0.235s 0:06.38 10.5%	0+0k 0+24io 0pf+0w
