   1   1   0   0
  0.1728000E+04  0.1200000E-08  0.1200000E-08  0.1200000E-08  0.5000000E-15
  1.000000000000000E-004
  CAR 
 unknown system                          
      2.13727881    -25.42445897  301    -10.05879016      1.00000000
    -25.424  0.0000E+00  0.0000E+00
    -25.333  0.0000E+00  0.0000E+00
    -25.241  0.0000E+00  0.0000E+00
    -25.149  0.0000E+00  0.0000E+00
    -25.057  0.0000E+00  0.0000E+00
    -24.965  0.0000E+00  0.0000E+00
    -24.873  0.0000E+00  0.0000E+00
    -24.781  0.0000E+00  0.0000E+00
    -24.689  0.0000E+00  0.0000E+00
    -24.598  0.0000E+00  0.0000E+00
    -24.506  0.0000E+00  0.0000E+00
    -24.414  0.0000E+00  0.0000E+00
    -24.322  0.0000E+00  0.0000E+00
    -24.230  0.1208E-14  0.1110E-15
    -24.138  0.2177E+02  0.2000E+01
    -24.046  0.0000E+00  0.2000E+01
    -23.954  0.0000E+00  0.2000E+01
    -23.863  0.0000E+00  0.2000E+01
    -23.771  0.0000E+00  0.2000E+01
    -23.679  0.0000E+00  0.2000E+01
    -23.587  0.0000E+00  0.2000E+01
    -23.495  0.0000E+00  0.2000E+01
    -23.403  0.0000E+00  0.2000E+01
    -23.311  0.0000E+00  0.2000E+01
    -23.220  0.0000E+00  0.2000E+01
    -23.128  0.0000E+00  0.2000E+01
    -23.036  0.0000E+00  0.2000E+01
    -22.944  0.0000E+00  0.2000E+01
    -22.852  0.0000E+00  0.2000E+01
    -22.760  0.0000E+00  0.2000E+01
    -22.668  0.0000E+00  0.2000E+01
    -22.576  0.0000E+00  0.2000E+01
    -22.485  0.0000E+00  0.2000E+01
    -22.393  0.0000E+00  0.2000E+01
    -22.301  0.0000E+00  0.2000E+01
    -22.209  0.0000E+00  0.2000E+01
    -22.117  0.0000E+00  0.2000E+01
    -22.025  0.0000E+00  0.2000E+01
    -21.933  0.0000E+00  0.2000E+01
    -21.841  0.0000E+00  0.2000E+01
    -21.750  0.0000E+00  0.2000E+01
    -21.658  0.0000E+00  0.2000E+01
    -21.566  0.0000E+00  0.2000E+01
    -21.474  0.0000E+00  0.2000E+01
    -21.382  0.0000E+00  0.2000E+01
    -21.290  0.0000E+00  0.2000E+01
    -21.198  0.0000E+00  0.2000E+01
    -21.106  0.0000E+00  0.2000E+01
    -21.015  0.0000E+00  0.2000E+01
    -20.923  0.0000E+00  0.2000E+01
    -20.831  0.0000E+00  0.2000E+01
    -20.739  0.0000E+00  0.2000E+01
    -20.647  0.0000E+00  0.2000E+01
    -20.555  0.0000E+00  0.2000E+01
    -20.463  0.0000E+00  0.2000E+01
    -20.371  0.0000E+00  0.2000E+01
    -20.280  0.0000E+00  0.2000E+01
    -20.188  0.0000E+00  0.2000E+01
    -20.096  0.0000E+00  0.2000E+01
    -20.004  0.0000E+00  0.2000E+01
    -19.912  0.0000E+00  0.2000E+01
    -19.820  0.0000E+00  0.2000E+01
    -19.728  0.0000E+00  0.2000E+01
    -19.636  0.0000E+00  0.2000E+01
    -19.545  0.0000E+00  0.2000E+01
    -19.453  0.0000E+00  0.2000E+01
    -19.361  0.0000E+00  0.2000E+01
    -19.269  0.0000E+00  0.2000E+01
    -19.177  0.0000E+00  0.2000E+01
    -19.085  0.0000E+00  0.2000E+01
    -18.993  0.0000E+00  0.2000E+01
    -18.902  0.0000E+00  0.2000E+01
    -18.810  0.0000E+00  0.2000E+01
    -18.718  0.0000E+00  0.2000E+01
    -18.626  0.0000E+00  0.2000E+01
    -18.534  0.0000E+00  0.2000E+01
    -18.442  0.0000E+00  0.2000E+01
    -18.350  0.0000E+00  0.2000E+01
    -18.258  0.0000E+00  0.2000E+01
    -18.167  0.0000E+00  0.2000E+01
    -18.075  0.0000E+00  0.2000E+01
    -17.983  0.0000E+00  0.2000E+01
    -17.891  0.0000E+00  0.2000E+01
    -17.799  0.0000E+00  0.2000E+01
    -17.707  0.0000E+00  0.2000E+01
    -17.615  0.0000E+00  0.2000E+01
    -17.523  0.0000E+00  0.2000E+01
    -17.432  0.0000E+00  0.2000E+01
    -17.340  0.0000E+00  0.2000E+01
    -17.248  0.0000E+00  0.2000E+01
    -17.156  0.0000E+00  0.2000E+01
    -17.064  0.0000E+00  0.2000E+01
    -16.972  0.0000E+00  0.2000E+01
    -16.880  0.0000E+00  0.2000E+01
    -16.788  0.0000E+00  0.2000E+01
    -16.697  0.0000E+00  0.2000E+01
    -16.605  0.0000E+00  0.2000E+01
    -16.513  0.0000E+00  0.2000E+01
    -16.421  0.0000E+00  0.2000E+01
    -16.329  0.0000E+00  0.2000E+01
    -16.237  0.0000E+00  0.2000E+01
    -16.145  0.0000E+00  0.2000E+01
    -16.053  0.0000E+00  0.2000E+01
    -15.962  0.0000E+00  0.2000E+01
    -15.870  0.0000E+00  0.2000E+01
    -15.778  0.0000E+00  0.2000E+01
    -15.686  0.0000E+00  0.2000E+01
    -15.594  0.0000E+00  0.2000E+01
    -15.502  0.0000E+00  0.2000E+01
    -15.410  0.0000E+00  0.2000E+01
    -15.318  0.0000E+00  0.2000E+01
    -15.227  0.0000E+00  0.2000E+01
    -15.135  0.0000E+00  0.2000E+01
    -15.043  0.0000E+00  0.2000E+01
    -14.951  0.0000E+00  0.2000E+01
    -14.859  0.0000E+00  0.2000E+01
    -14.767  0.0000E+00  0.2000E+01
    -14.675  0.0000E+00  0.2000E+01
    -14.584  0.0000E+00  0.2000E+01
    -14.492  0.0000E+00  0.2000E+01
    -14.400  0.0000E+00  0.2000E+01
    -14.308  0.0000E+00  0.2000E+01
    -14.216  0.0000E+00  0.2000E+01
    -14.124  0.0000E+00  0.2000E+01
    -14.032  0.0000E+00  0.2000E+01
    -13.940  0.0000E+00  0.2000E+01
    -13.849  0.0000E+00  0.2000E+01
    -13.757  0.0000E+00  0.2000E+01
    -13.665  0.0000E+00  0.2000E+01
    -13.573  0.0000E+00  0.2000E+01
    -13.481  0.0000E+00  0.2000E+01
    -13.389  0.0000E+00  0.2000E+01
    -13.297  0.0000E+00  0.2000E+01
    -13.205  0.0000E+00  0.2000E+01
    -13.114  0.0000E+00  0.2000E+01
    -13.022  0.0000E+00  0.2000E+01
    -12.930  0.0000E+00  0.2000E+01
    -12.838  0.0000E+00  0.2000E+01
    -12.746  0.0000E+00  0.2000E+01
    -12.654  0.0000E+00  0.2000E+01
    -12.562  0.0000E+00  0.2000E+01
    -12.470  0.0000E+00  0.2000E+01
    -12.379  0.0000E+00  0.2000E+01
    -12.287  0.0000E+00  0.2000E+01
    -12.195  0.0000E+00  0.2000E+01
    -12.103  0.0000E+00  0.2000E+01
    -12.011  0.0000E+00  0.2000E+01
    -11.919  0.0000E+00  0.2000E+01
    -11.827  0.0000E+00  0.2000E+01
    -11.735  0.0000E+00  0.2000E+01
    -11.644  0.0000E+00  0.2000E+01
    -11.552  0.0000E+00  0.2000E+01
    -11.460  0.0000E+00  0.2000E+01
    -11.368  0.0000E+00  0.2000E+01
    -11.276  0.0000E+00  0.2000E+01
    -11.184  0.0000E+00  0.2000E+01
    -11.092  0.0000E+00  0.2000E+01
    -11.000  0.0000E+00  0.2000E+01
    -10.909  0.0000E+00  0.2000E+01
    -10.817  0.0000E+00  0.2000E+01
    -10.725  0.0000E+00  0.2000E+01
    -10.633  0.0000E+00  0.2000E+01
    -10.541  0.0000E+00  0.2000E+01
    -10.449  0.0000E+00  0.2000E+01
    -10.357  0.0000E+00  0.2000E+01
    -10.266  0.0000E+00  0.2000E+01
    -10.174  0.1816E+00  0.2017E+01
    -10.082  0.6513E+02  0.8000E+01
     -9.990  0.0000E+00  0.8000E+01
     -9.898  0.0000E+00  0.8000E+01
     -9.806  0.0000E+00  0.8000E+01
     -9.714  0.0000E+00  0.8000E+01
     -9.622  0.0000E+00  0.8000E+01
     -9.531  0.0000E+00  0.8000E+01
     -9.439  0.0000E+00  0.8000E+01
     -9.347  0.0000E+00  0.8000E+01
     -9.255  0.0000E+00  0.8000E+01
     -9.163  0.0000E+00  0.8000E+01
     -9.071  0.0000E+00  0.8000E+01
     -8.979  0.0000E+00  0.8000E+01
     -8.887  0.0000E+00  0.8000E+01
     -8.796  0.0000E+00  0.8000E+01
     -8.704  0.0000E+00  0.8000E+01
     -8.612  0.0000E+00  0.8000E+01
     -8.520  0.0000E+00  0.8000E+01
     -8.428  0.0000E+00  0.8000E+01
     -8.336  0.0000E+00  0.8000E+01
     -8.244  0.0000E+00  0.8000E+01
     -8.152  0.0000E+00  0.8000E+01
     -8.061  0.0000E+00  0.8000E+01
     -7.969  0.0000E+00  0.8000E+01
     -7.877  0.0000E+00  0.8000E+01
     -7.785  0.0000E+00  0.8000E+01
     -7.693  0.0000E+00  0.8000E+01
     -7.601  0.0000E+00  0.8000E+01
     -7.509  0.0000E+00  0.8000E+01
     -7.417  0.0000E+00  0.8000E+01
     -7.326  0.0000E+00  0.8000E+01
     -7.234  0.0000E+00  0.8000E+01
     -7.142  0.0000E+00  0.8000E+01
     -7.050  0.0000E+00  0.8000E+01
     -6.958  0.0000E+00  0.8000E+01
     -6.866  0.0000E+00  0.8000E+01
     -6.774  0.0000E+00  0.8000E+01
     -6.682  0.0000E+00  0.8000E+01
     -6.591  0.0000E+00  0.8000E+01
     -6.499  0.0000E+00  0.8000E+01
     -6.407  0.0000E+00  0.8000E+01
     -6.315  0.0000E+00  0.8000E+01
     -6.223  0.0000E+00  0.8000E+01
     -6.131  0.0000E+00  0.8000E+01
     -6.039  0.0000E+00  0.8000E+01
     -5.947  0.0000E+00  0.8000E+01
     -5.856  0.0000E+00  0.8000E+01
     -5.764  0.0000E+00  0.8000E+01
     -5.672  0.0000E+00  0.8000E+01
     -5.580  0.0000E+00  0.8000E+01
     -5.488  0.0000E+00  0.8000E+01
     -5.396  0.0000E+00  0.8000E+01
     -5.304  0.0000E+00  0.8000E+01
     -5.213  0.0000E+00  0.8000E+01
     -5.121  0.0000E+00  0.8000E+01
     -5.029  0.0000E+00  0.8000E+01
     -4.937  0.0000E+00  0.8000E+01
     -4.845  0.0000E+00  0.8000E+01
     -4.753  0.0000E+00  0.8000E+01
     -4.661  0.0000E+00  0.8000E+01
     -4.569  0.0000E+00  0.8000E+01
     -4.478  0.0000E+00  0.8000E+01
     -4.386  0.0000E+00  0.8000E+01
     -4.294  0.0000E+00  0.8000E+01
     -4.202  0.0000E+00  0.8000E+01
     -4.110  0.0000E+00  0.8000E+01
     -4.018  0.0000E+00  0.8000E+01
     -3.926  0.0000E+00  0.8000E+01
     -3.834  0.0000E+00  0.8000E+01
     -3.743  0.0000E+00  0.8000E+01
     -3.651  0.0000E+00  0.8000E+01
     -3.559  0.0000E+00  0.8000E+01
     -3.467  0.0000E+00  0.8000E+01
     -3.375  0.0000E+00  0.8000E+01
     -3.283  0.0000E+00  0.8000E+01
     -3.191  0.0000E+00  0.8000E+01
     -3.099  0.0000E+00  0.8000E+01
     -3.008  0.0000E+00  0.8000E+01
     -2.916  0.0000E+00  0.8000E+01
     -2.824  0.0000E+00  0.8000E+01
     -2.732  0.0000E+00  0.8000E+01
     -2.640  0.0000E+00  0.8000E+01
     -2.548  0.0000E+00  0.8000E+01
     -2.456  0.0000E+00  0.8000E+01
     -2.364  0.0000E+00  0.8000E+01
     -2.273  0.0000E+00  0.8000E+01
     -2.181  0.0000E+00  0.8000E+01
     -2.089  0.0000E+00  0.8000E+01
     -1.997  0.0000E+00  0.8000E+01
     -1.905  0.0000E+00  0.8000E+01
     -1.813  0.0000E+00  0.8000E+01
     -1.721  0.0000E+00  0.8000E+01
     -1.629  0.0000E+00  0.8000E+01
     -1.538  0.0000E+00  0.8000E+01
     -1.446  0.0000E+00  0.8000E+01
     -1.354  0.0000E+00  0.8000E+01
     -1.262  0.0000E+00  0.8000E+01
     -1.170  0.0000E+00  0.8000E+01
     -1.078  0.0000E+00  0.8000E+01
     -0.986  0.0000E+00  0.8000E+01
     -0.895  0.0000E+00  0.8000E+01
     -0.803  0.0000E+00  0.8000E+01
     -0.711  0.0000E+00  0.8000E+01
     -0.619  0.0000E+00  0.8000E+01
     -0.527  0.0000E+00  0.8000E+01
     -0.435  0.0000E+00  0.8000E+01
     -0.343  0.2464E-02  0.8000E+01
     -0.251  0.2177E+02  0.1000E+02
     -0.160  0.0000E+00  0.1000E+02
     -0.068  0.0000E+00  0.1000E+02
      0.024  0.0000E+00  0.1000E+02
      0.116  0.0000E+00  0.1000E+02
      0.208  0.0000E+00  0.1000E+02
      0.300  0.0000E+00  0.1000E+02
      0.392  0.0000E+00  0.1000E+02
      0.484  0.0000E+00  0.1000E+02
      0.575  0.0000E+00  0.1000E+02
      0.667  0.2177E+02  0.1200E+02
      0.759  0.0000E+00  0.1200E+02
      0.851  0.5022E-04  0.1200E+02
      0.943  0.4354E+02  0.1600E+02
      1.035  0.0000E+00  0.1600E+02
      1.127  0.0000E+00  0.1600E+02
      1.219  0.0000E+00  0.1600E+02
      1.310  0.0000E+00  0.1600E+02
      1.402  0.0000E+00  0.1600E+02
      1.494  0.0000E+00  0.1600E+02
      1.586  0.0000E+00  0.1600E+02
      1.678  0.0000E+00  0.1600E+02
      1.770  0.0000E+00  0.1600E+02
      1.862  0.0000E+00  0.1600E+02
      1.954  0.0000E+00  0.1600E+02
      2.045  0.0000E+00  0.1600E+02
      2.137  0.0000E+00  0.1600E+02
