       N       E                     dE             d eps       ncg     rms          rms(c)
DAV:   1     0.687883021145E+02    0.68788E+02   -0.15321E+03    24   0.406E+02
DAV:   2     0.142342512574E+02   -0.54554E+02   -0.54554E+02    32   0.771E+01
DAV:   3     0.543526524285E+00   -0.13691E+02   -0.13691E+02    16   0.578E+01
DAV:   4    -0.169031578697E-01   -0.56043E+00   -0.56043E+00    16   0.161E+01
DAV:   5    -0.245118520473E-01   -0.76087E-02   -0.76087E-02    16   0.204E+00    0.901E-02
DAV:   6    -0.246271609755E-01   -0.11531E-03   -0.19798E-03    16   0.364E-01    0.476E-02
DAV:   7    -0.248979439026E-01   -0.27078E-03   -0.15805E-04    24   0.128E-01    0.162E-02
DAV:   8    -0.249494528879E-01   -0.51509E-04   -0.46650E-06    16   0.342E-02
   1 F= -.24949453E-01 E0= -.24949453E-01  d E =-.690833E-41
