<?xml version="1.0" encoding="ISO-8859-1"?>
<modeling>
 <generator>
  <i name="program" type="string">vasp </i>
  <i name="version" type="string">5.4.1  </i>
  <i name="subversion" type="string">05Feb16 (build Feb 08 2018 09:21:51) complex                          parallel </i>
  <i name="platform" type="string">LinuxIFC </i>
  <i name="date" type="string">2019 11 07 </i>
  <i name="time" type="string">20:22:15 </i>
 </generator>
 <incar>
  <i type="string" name="PREC">normal</i>
  <i name="ENCUT">    400.00000000</i>
  <i type="int" name="ISMEAR">     0</i>
  <i name="SIGMA">      0.01000000</i>
  <i type="logical" name="LWAVE"> F  </i>
  <i type="logical" name="LCHARG"> F  </i>
  <v type="int" name="KPOINT_BSE">    -1     0     0     0</v>
 </incar>
 <kpoints>
  <generation param="Monkhorst-Pack">
   <v type="int" name="divisions">       1        1        1 </v>
   <v name="usershift">      0.00000000       0.00000000       0.00000000 </v>
   <v name="genvec1">      1.00000000       0.00000000       0.00000000 </v>
   <v name="genvec2">      0.00000000       1.00000000       0.00000000 </v>
   <v name="genvec3">      0.00000000       0.00000000       1.00000000 </v>
   <v name="shift">      0.00000000       0.00000000       0.00000000 </v>
  </generation>
  <varray name="kpointlist" >
   <v>       0.00000000       0.00000000       0.00000000 </v>
  </varray>
  <varray name="weights" >
   <v>       1.00000000 </v>
  </varray>
 </kpoints>
 <parameters>
  <separator name="general" >
   <i type="string" name="SYSTEM">unknown system</i>
   <i type="logical" name="LCOMPAT"> F  </i>
  </separator>
  <separator name="electronic" >
   <i type="string" name="PREC">normal</i>
   <i name="ENMAX">    400.00000000</i>
   <i name="ENAUG">    482.93000000</i>
   <i name="EDIFF">      0.00010000</i>
   <i type="int" name="IALGO">    38</i>
   <i type="int" name="IWAVPR">    10</i>
   <i type="int" name="NBANDS">     8</i>
   <i name="NELECT">      8.00000000</i>
   <i type="int" name="TURBO">     0</i>
   <i type="int" name="IRESTART">     0</i>
   <i type="int" name="NREBOOT">     0</i>
   <i type="int" name="NMIN">     0</i>
   <i name="EREF">      0.00000000</i>
   <separator name="electronic smearing" >
    <i type="int" name="ISMEAR">     0</i>
    <i name="SIGMA">      0.01000000</i>
    <i name="KSPACING">      0.50000000</i>
    <i type="logical" name="KGAMMA"> T  </i>
   </separator>
   <separator name="electronic projectors" >
    <i type="logical" name="LREAL"> F  </i>
    <v name="ROPT">      0.00000000</v>
    <i type="int" name="LMAXPAW">  -100</i>
    <i type="int" name="LMAXMIX">     2</i>
    <i type="logical" name="NLSPLINE"> F  </i>
   </separator>
   <separator name="electronic startup" >
    <i type="int" name="ISTART">     0</i>
    <i type="int" name="ICHARG">     2</i>
    <i type="int" name="INIWAV">     1</i>
   </separator>
   <separator name="electronic spin" >
    <i type="int" name="ISPIN">     1</i>
    <i type="logical" name="LNONCOLLINEAR"> F  </i>
    <v name="MAGMOM">      1.00000000</v>
    <i name="NUPDOWN">     -1.00000000</i>
    <i type="logical" name="LSORBIT"> F  </i>
    <v name="SAXIS">      0.00000000      0.00000000      1.00000000</v>
    <i type="logical" name="LSPIRAL"> F  </i>
    <v name="QSPIRAL">      0.00000000      0.00000000      0.00000000</v>
    <i type="logical" name="LZEROZ"> F  </i>
   </separator>
   <separator name="electronic exchange-correlation" >
    <i type="logical" name="LASPH"> F  </i>
    <i type="logical" name="LMETAGGA"> F  </i>
   </separator>
   <separator name="electronic convergence" >
    <i type="int" name="NELM">    60</i>
    <i type="int" name="NELMDL">    -5</i>
    <i type="int" name="NELMIN">     2</i>
    <i name="ENINI">    400.00000000</i>
    <separator name="electronic convergence detail" >
     <i type="logical" name="LDIAG"> T  </i>
     <i type="logical" name="LSUBROT"> F  </i>
     <i name="WEIMIN">      0.00000000</i>
     <i name="EBREAK">      0.00000313</i>
     <i name="DEPER">      0.30000000</i>
     <i type="int" name="NRMM">     4</i>
     <i name="TIME">      0.40000000</i>
    </separator>
   </separator>
   <separator name="electronic mixer" >
    <i name="AMIX">      0.40000000</i>
    <i name="BMIX">      1.00000000</i>
    <i name="AMIN">      0.10000000</i>
    <i name="AMIX_MAG">      1.60000000</i>
    <i name="BMIX_MAG">      1.00000000</i>
    <separator name="electronic mixer details" >
     <i type="int" name="IMIX">     4</i>
     <i type="logical" name="MIXFIRST"> F  </i>
     <i type="int" name="MAXMIX">   -45</i>
     <i name="WC">    100.00000000</i>
     <i type="int" name="INIMIX">     1</i>
     <i type="int" name="MIXPRE">     1</i>
     <i type="int" name="MREMOVE">     5</i>
    </separator>
   </separator>
   <separator name="electronic dipolcorrection" >
    <i type="logical" name="LDIPOL"> F  </i>
    <i type="logical" name="LMONO"> F  </i>
    <i type="int" name="IDIPOL">     0</i>
    <i name="EPSILON">      1.00000000</i>
    <v name="DIPOL">   -100.00000000   -100.00000000   -100.00000000</v>
    <i name="EFIELD">      0.00000000</i>
   </separator>
  </separator>
  <separator name="grids" >
   <i type="int" name="NGX">    60</i>
   <i type="int" name="NGY">    60</i>
   <i type="int" name="NGZ">    60</i>
   <i type="int" name="NGXF">   120</i>
   <i type="int" name="NGYF">   120</i>
   <i type="int" name="NGZF">   120</i>
   <i type="logical" name="ADDGRID"> F  </i>
  </separator>
  <separator name="ionic" >
   <i type="int" name="NSW">     0</i>
   <i type="int" name="IBRION">    -1</i>
   <i type="int" name="ISIF">     2</i>
   <i name="PSTRESS">      0.00000000</i>
   <i name="EDIFFG">      0.00100000</i>
   <i type="int" name="NFREE">     0</i>
   <i name="POTIM">      0.50000000</i>
   <i name="SMASS">     -3.00000000</i>
   <i name="SCALEE">      1.00000000</i>
  </separator>
  <separator name="ionic md" >
   <i name="TEBEG">      0.00010000</i>
   <i name="TEEND">      0.00010000</i>
   <i type="int" name="NBLOCK">     1</i>
   <i type="int" name="KBLOCK">     1</i>
   <i type="int" name="NPACO">   256</i>
   <i name="APACO">     16.00000000</i>
  </separator>
  <separator name="symmetry" >
   <i type="int" name="ISYM">     2</i>
   <i name="SYMPREC">      0.00001000</i>
  </separator>
  <separator name="dos" >
   <i type="logical" name="LORBIT"> F  </i>
   <v name="RWIGS">     -1.00000000</v>
   <i type="int" name="NEDOS">   301</i>
   <i name="EMIN">     10.00000000</i>
   <i name="EMAX">    -10.00000000</i>
   <i name="EFERMI">      0.00000000</i>
  </separator>
  <separator name="writing" >
   <i type="int" name="NWRITE">     2</i>
   <i type="logical" name="LWAVE"> F  </i>
   <i type="logical" name="LCHARG"> F  </i>
   <i type="logical" name="LPARD"> F  </i>
   <i type="logical" name="LVTOT"> F  </i>
   <i type="logical" name="LVHAR"> F  </i>
   <i type="logical" name="LELF"> F  </i>
   <i type="logical" name="LOPTICS"> F  </i>
   <v name="STM">      0.00000000      0.00000000      0.00000000      0.00000000      0.00000000      0.00000000      0.00000000</v>
  </separator>
  <separator name="performance" >
   <i type="int" name="NPAR">     8</i>
   <i type="int" name="NSIM">     4</i>
   <i type="int" name="NBLK">    -1</i>
   <i type="logical" name="LPLANE"> T  </i>
   <i type="logical" name="LSCALAPACK"> F  </i>
   <i type="logical" name="LSCAAWARE"> F  </i>
   <i type="logical" name="LSCALU"> F  </i>
   <i type="logical" name="LASYNC"> F  </i>
   <i type="logical" name="LORBITALREAL"> F  </i>
  </separator>
  <separator name="miscellaneous" >
   <i type="int" name="IDIOT">     3</i>
   <i type="logical" name="LMUSIC"> F  </i>
   <v name="POMASS">     39.94900000</v>
   <v name="DARWINR">      0.00000000</v>
   <v name="DARWINV">      1.00000000</v>
   <i type="logical" name="LCORR"> T  </i>
  </separator>
  <i type="logical" name="GGA_COMPAT"> T  </i>
  <i type="logical" name="LBERRY"> F  </i>
  <i type="int" name="ICORELEVEL">     0</i>
  <i type="logical" name="LDAU"> F  </i>
  <i type="int" name="I_CONSTRAINED_M">     0</i>
  <separator name="electronic exchange-correlation" >
   <i type="string" name="GGA">--</i>
   <i type="int" name="VOSKOWN">     0</i>
   <i type="logical" name="LHFCALC"> F  </i>
   <i type="string" name="PRECFOCK"></i>
   <i type="logical" name="LSYMGRAD"> F  </i>
   <i type="logical" name="LHFONE"> F  </i>
   <i type="logical" name="LRHFCALC"> F  </i>
   <i type="logical" name="LTHOMAS"> F  </i>
   <i type="logical" name="LMODELHF"> F  </i>
   <i name="ENCUT4O">     -1.00000000</i>
   <i type="int" name="EXXOEP">     0</i>
   <i type="int" name="FOURORBIT">     0</i>
   <i name="AEXX">      0.00000000</i>
   <i name="HFALPHA">      0.00000000</i>
   <i name="MCALPHA">      0.00000000</i>
   <i name="ALDAX">      1.00000000</i>
   <i name="AGGAX">      1.00000000</i>
   <i name="ALDAC">      1.00000000</i>
   <i name="AGGAC">      1.00000000</i>
   <i type="int" name="NKREDX">     1</i>
   <i type="int" name="NKREDY">     1</i>
   <i type="int" name="NKREDZ">     1</i>
   <i type="logical" name="SHIFTRED"> F  </i>
   <i type="logical" name="ODDONLY"> F  </i>
   <i type="logical" name="EVENONLY"> F  </i>
   <i type="int" name="LMAXFOCK">     0</i>
   <i type="int" name="NMAXFOCKAE">     0</i>
   <i type="logical" name="LFOCKAEDFT"> F  </i>
   <i name="HFSCREEN">      0.00000000</i>
   <i name="HFSCREENC">      0.00000000</i>
   <i type="int" name="NBANDSGWLOW">     0</i>
  </separator>
  <separator name="vdW DFT" >
   <i type="logical" name="LUSE_VDW"> F  </i>
   <i name="Zab_VDW">     -0.84910000</i>
   <i name="PARAM1">      0.12340000</i>
   <i name="PARAM2">      1.00000000</i>
   <i name="PARAM3">      0.00000000</i>
  </separator>
  <separator name="model GW" >
   <i type="int" name="MODEL_GW">     0</i>
   <i name="MODEL_EPS0">   1036.80000000</i>
   <i name="MODEL_ALPHA">      1.00000000</i>
  </separator>
  <separator name="linear response parameters" >
   <i type="logical" name="LEPSILON"> F  </i>
   <i type="logical" name="LRPA"> F  </i>
   <i type="logical" name="LNABLA"> F  </i>
   <i type="logical" name="LVEL"> F  </i>
   <i type="int" name="KINTER">     0</i>
   <i name="CSHIFT">      0.10000000</i>
   <i name="OMEGAMAX">     -1.00000000</i>
   <i name="DEG_THRESHOLD">      0.00200000</i>
  </separator>
  <separator name="orbital magnetization" >
   <i type="logical" name="NUCIND"> F  </i>
   <v name="MAGPOS">      0.00000000      0.00000000      0.00000000</v>
   <i type="logical" name="LNICSALL"> T  </i>
   <i type="logical" name="ORBITALMAG"> F  </i>
   <i type="logical" name="LMAGBLOCH"> F  </i>
   <i type="logical" name="LCHIMAG"> F  </i>
   <i type="logical" name="LGAUGE"> T  </i>
   <i type="int" name="MAGATOM">     0</i>
   <v name="MAGDIPOL">      0.00000000      0.00000000      0.00000000</v>
   <v name="AVECCONST">      0.00000000      0.00000000      0.00000000</v>
  </separator>
  <separator name="response functions" >
   <i type="logical" name="LADDER"> F  </i>
   <i type="logical" name="LFXC"> F  </i>
   <i type="logical" name="LHARTREE"> T  </i>
   <i type="int" name="IBSE">     0</i>
   <v type="int" name="KPOINT">    -1     0     0     0</v>
   <i type="logical" name="LTCTE"> F  </i>
   <i type="logical" name="LTETE"> F  </i>
   <i type="logical" name="LTRIPLET"> F  </i>
   <i type="logical" name="LFXCEPS"> F  </i>
   <i type="logical" name="LFXHEG"> F  </i>
   <i type="int" name="NATURALO">     0</i>
   <i type="logical" name="L2ORDER"> F  </i>
   <i type="logical" name="LUSEW"> F  </i>
   <i name="ENCUTGW">     -2.00000000</i>
   <i name="ENCUTGWSOFT">     -2.00000000</i>
   <i name="ENCUTLF">     -1.00000000</i>
   <i type="int" name="LMAXMP2">    -1</i>
   <i name="SCISSOR">      0.00000000</i>
   <i type="int" name="NOMEGA">     0</i>
   <i type="int" name="NOMEGAR">     0</i>
   <i type="int" name="NBANDSGW">    -1</i>
   <i type="int" name="NBANDSO">    -1</i>
   <i type="int" name="NBANDSV">    -1</i>
   <i type="int" name="NELM">     1</i>
   <i type="int" name="NELMHF">     1</i>
   <i type="int" name="DIM">     3</i>
   <i type="int" name="ANTIRES">     0</i>
   <i name="OMEGAMAX">    -30.00000000</i>
   <i name="OMEGAMIN">    -30.00000000</i>
   <i name="OMEGATL">   -200.00000000</i>
   <i type="int" name="OMEGAGRID">     0</i>
   <i name="CSHIFT">     -0.10000000</i>
   <i type="logical" name="SELFENERGY"> F  </i>
   <i type="logical" name="LSPECTRAL"> F  </i>
   <i type="logical" name="LSPECTRALGW"> F  </i>
   <i type="logical" name="LSINGLES"> F  </i>
   <i type="logical" name="LFERMIGW"> F  </i>
   <i type="logical" name="ODDONLYGW"> F  </i>
   <i type="logical" name="EVENONLYGW"> F  </i>
   <i type="int" name="NKREDLFX">     1</i>
   <i type="int" name="NKREDLFY">     1</i>
   <i type="int" name="NKREDLFZ">     1</i>
   <i type="int" name="MAXMEM">  1800</i>
   <i type="int" name="TELESCOPE">     0</i>
   <i type="int" name="TAUPAR">     1</i>
   <i type="int" name="OMEGAPAR">    -1</i>
   <i name="LAMBDA">      1.00000000</i>
  </separator>
  <separator name="External order field" >
   <i name="OFIELD_KAPPA">      0.00000000</i>
   <v name="OFIELD_K">      0.00000000      0.00000000      0.00000000</v>
   <i name="OFIELD_Q6_NEAR">      0.00000000</i>
   <i name="OFIELD_Q6_FAR">      0.00000000</i>
   <i name="OFIELD_A">      0.00000000</i>
  </separator>
 </parameters>
 <atominfo>
  <atoms>       1 </atoms>
  <types>       1 </types>
  <array name="atoms" >
   <dimension dim="1">ion</dimension>
   <field type="string">element</field>
   <field type="int">atomtype</field>
   <set>
    <rc><c>Ar</c><c>   1</c></rc>
   </set>
  </array>
  <array name="atomtypes" >
   <dimension dim="1">type</dimension>
   <field type="int">atomspertype</field>
   <field type="string">element</field>
   <field>mass</field>
   <field>valence</field>
   <field type="string">pseudopotential</field>
   <set>
    <rc><c>   1</c><c>Ar</c><c>     39.94900000</c><c>      8.00000000</c><c>  PAW_PBE Ar 07Sep2000                  </c></rc>
   </set>
  </array>
 </atominfo>
 <structure name="initialpos" >
  <crystal>
   <varray name="basis" >
    <v>      12.00000000       0.00000000       0.00000000 </v>
    <v>       0.00000000      12.00000000       0.00000000 </v>
    <v>       0.00000000       0.00000000      12.00000000 </v>
   </varray>
   <i name="volume">   1728.00000000 </i>
   <varray name="rec_basis" >
    <v>       0.08333333       0.00000000       0.00000000 </v>
    <v>       0.00000000       0.08333333       0.00000000 </v>
    <v>       0.00000000       0.00000000       0.08333333 </v>
   </varray>
  </crystal>
  <varray name="positions" >
   <v>       0.50000000       0.50000000       0.50000000 </v>
  </varray>
 </structure>
 <calculation>
  <scstep>
   <time name="dav">    0.07    0.07</time>
   <time name="total">    0.22    0.22</time>
   <energy>
    <i name="alphaZ">      0.08552978 </i>
    <i name="ewald">   -108.95061336 </i>
    <i name="hartreedc">   -385.56052840 </i>
    <i name="XCdc">     29.15729211 </i>
    <i name="pawpsdc">    464.39213177 </i>
    <i name="pawaedc">   -468.88429268 </i>
    <i name="eentropy">     -0.00000000 </i>
    <i name="bandstr">    -40.48267792 </i>
    <i name="atom">    579.03146082 </i>
    <i name="e_fr_energy">     68.78830211 </i>
    <i name="e_wo_entrp">     68.78830211 </i>
    <i name="e_0_energy">     68.78830211 </i>
   </energy>
  </scstep>
  <scstep>
   <time name="dav">    0.07    0.07</time>
   <time name="total">    0.07    0.08</time>
   <energy>
    <i name="e_fr_energy">     14.23425126 </i>
    <i name="e_wo_entrp">     14.23425126 </i>
    <i name="e_0_energy">     14.23425126 </i>
   </energy>
  </scstep>
  <scstep>
   <time name="dav">    0.04    0.04</time>
   <time name="total">    0.04    0.05</time>
   <energy>
    <i name="e_fr_energy">      0.54352652 </i>
    <i name="e_wo_entrp">      0.54352652 </i>
    <i name="e_0_energy">      0.54352652 </i>
   </energy>
  </scstep>
  <scstep>
   <time name="dav">    0.05    0.05</time>
   <time name="total">    0.05    0.05</time>
   <energy>
    <i name="e_fr_energy">     -0.01690316 </i>
    <i name="e_wo_entrp">     -0.01690316 </i>
    <i name="e_0_energy">     -0.01690316 </i>
   </energy>
  </scstep>
  <scstep>
   <time name="dav">    0.05    0.05</time>
   <time name="total">    0.10    0.10</time>
   <energy>
    <i name="e_fr_energy">     -0.02451185 </i>
    <i name="e_wo_entrp">     -0.02451185 </i>
    <i name="e_0_energy">     -0.02451185 </i>
   </energy>
  </scstep>
  <scstep>
   <time name="dav">    0.04    0.04</time>
   <time name="total">    0.23    0.23</time>
   <energy>
    <i name="e_fr_energy">     -0.02462716 </i>
    <i name="e_wo_entrp">     -0.02462716 </i>
    <i name="e_0_energy">     -0.02462716 </i>
   </energy>
  </scstep>
  <scstep>
   <time name="dav">    0.06    0.06</time>
   <time name="total">    0.23    0.24</time>
   <energy>
    <i name="e_fr_energy">     -0.02489794 </i>
    <i name="e_wo_entrp">     -0.02489794 </i>
    <i name="e_0_energy">     -0.02489794 </i>
   </energy>
  </scstep>
  <scstep>
   <time name="dav">    0.04    0.04</time>
   <time name="total">    0.17    0.17</time>
   <energy>
    <i name="alphaZ">      0.08552978 </i>
    <i name="ewald">   -108.95061336 </i>
    <i name="hartreedc">   -385.57439643 </i>
    <i name="XCdc">     29.15535906 </i>
    <i name="pawpsdc">    466.68378837 </i>
    <i name="pawaedc">   -471.18862175 </i>
    <i name="eentropy">     -0.00000000 </i>
    <i name="bandstr">   -109.26745594 </i>
    <i name="atom">    579.03146082 </i>
    <i name="e_fr_energy">     -0.02494945 </i>
    <i name="e_wo_entrp">     -0.02494945 </i>
    <i name="e_0_energy">     -0.02494945 </i>
   </energy>
  </scstep>
  <structure>
   <crystal>
    <varray name="basis" >
     <v>      12.00000000       0.00000000       0.00000000 </v>
     <v>       0.00000000      12.00000000       0.00000000 </v>
     <v>       0.00000000       0.00000000      12.00000000 </v>
    </varray>
    <i name="volume">   1728.00000000 </i>
    <varray name="rec_basis" >
     <v>       0.08333333       0.00000000       0.00000000 </v>
     <v>       0.00000000       0.08333333       0.00000000 </v>
     <v>       0.00000000       0.00000000       0.08333333 </v>
    </varray>
   </crystal>
   <varray name="positions" >
    <v>       0.50000000       0.50000000       0.50000000 </v>
   </varray>
  </structure>
  <varray name="forces" >
   <v>       0.00000000       0.00000000       0.00000000 </v>
  </varray>
  <varray name="stress" >
   <v>      -0.04120628       0.00000000      -0.00000000 </v>
   <v>       0.00000000      -0.04120628       0.00000000 </v>
   <v>       0.00000000       0.00000000      -0.04120628 </v>
  </varray>
  <energy>
   <i name="e_fr_energy">     -0.02494945 </i>
   <i name="e_wo_entrp">     -0.02494945 </i>
   <i name="e_0_energy">     -0.00000000 </i>
  </energy>
  <time name="totalsc">    1.61    1.64</time>
  <eigenvalues>
   <array>
    <dimension dim="1">band</dimension>
    <dimension dim="2">kpoint</dimension>
    <dimension dim="3">spin</dimension>
    <field>eigene</field>
    <field>occ</field>
    <set>
     <set comment="spin 1">
      <set comment="kpoint 1">
       <r>  -24.1717    1.0000 </r>
       <r>  -10.1540    1.0000 </r>
       <r>  -10.1540    1.0000 </r>
       <r>  -10.1540    1.0000 </r>
       <r>   -0.3172    0.0000 </r>
       <r>    0.6389    0.0000 </r>
       <r>    0.8845    0.0000 </r>
       <r>    0.8845    0.0000 </r>
      </set>
     </set>
    </set>
   </array>
  </eigenvalues>
  <separator name="orbital magnetization" >
   <v name="MAGDIPOLOUT">      0.00000000      0.00000000      0.00000000</v>
  </separator>
  <dos>
   <i name="efermi">    -10.05879016 </i>
   <total>
    <array>
     <dimension dim="1">gridpoints</dimension>
     <dimension dim="2">spin</dimension>
     <field>energy</field>
     <field>total</field>
     <field>integrated</field>
     <set>
      <set comment="spin 1">
       <r>   -25.4245     0.0000     0.0000 </r>
       <r>   -25.3326     0.0000     0.0000 </r>
       <r>   -25.2407     0.0000     0.0000 </r>
       <r>   -25.1488     0.0000     0.0000 </r>
       <r>   -25.0570     0.0000     0.0000 </r>
       <r>   -24.9651     0.0000     0.0000 </r>
       <r>   -24.8732     0.0000     0.0000 </r>
       <r>   -24.7814     0.0000     0.0000 </r>
       <r>   -24.6895     0.0000     0.0000 </r>
       <r>   -24.5976     0.0000     0.0000 </r>
       <r>   -24.5057     0.0000     0.0000 </r>
       <r>   -24.4139     0.0000     0.0000 </r>
       <r>   -24.3220     0.0000     0.0000 </r>
       <r>   -24.2301     0.0000     0.0000 </r>
       <r>   -24.1382    21.7693     2.0000 </r>
       <r>   -24.0464     0.0000     2.0000 </r>
       <r>   -23.9545     0.0000     2.0000 </r>
       <r>   -23.8626     0.0000     2.0000 </r>
       <r>   -23.7708     0.0000     2.0000 </r>
       <r>   -23.6789     0.0000     2.0000 </r>
       <r>   -23.5870     0.0000     2.0000 </r>
       <r>   -23.4951     0.0000     2.0000 </r>
       <r>   -23.4033     0.0000     2.0000 </r>
       <r>   -23.3114     0.0000     2.0000 </r>
       <r>   -23.2195     0.0000     2.0000 </r>
       <r>   -23.1276     0.0000     2.0000 </r>
       <r>   -23.0358     0.0000     2.0000 </r>
       <r>   -22.9439     0.0000     2.0000 </r>
       <r>   -22.8520     0.0000     2.0000 </r>
       <r>   -22.7602     0.0000     2.0000 </r>
       <r>   -22.6683     0.0000     2.0000 </r>
       <r>   -22.5764     0.0000     2.0000 </r>
       <r>   -22.4845     0.0000     2.0000 </r>
       <r>   -22.3927     0.0000     2.0000 </r>
       <r>   -22.3008     0.0000     2.0000 </r>
       <r>   -22.2089     0.0000     2.0000 </r>
       <r>   -22.1171     0.0000     2.0000 </r>
       <r>   -22.0252     0.0000     2.0000 </r>
       <r>   -21.9333     0.0000     2.0000 </r>
       <r>   -21.8414     0.0000     2.0000 </r>
       <r>   -21.7496     0.0000     2.0000 </r>
       <r>   -21.6577     0.0000     2.0000 </r>
       <r>   -21.5658     0.0000     2.0000 </r>
       <r>   -21.4739     0.0000     2.0000 </r>
       <r>   -21.3821     0.0000     2.0000 </r>
       <r>   -21.2902     0.0000     2.0000 </r>
       <r>   -21.1983     0.0000     2.0000 </r>
       <r>   -21.1065     0.0000     2.0000 </r>
       <r>   -21.0146     0.0000     2.0000 </r>
       <r>   -20.9227     0.0000     2.0000 </r>
       <r>   -20.8308     0.0000     2.0000 </r>
       <r>   -20.7390     0.0000     2.0000 </r>
       <r>   -20.6471     0.0000     2.0000 </r>
       <r>   -20.5552     0.0000     2.0000 </r>
       <r>   -20.4633     0.0000     2.0000 </r>
       <r>   -20.3715     0.0000     2.0000 </r>
       <r>   -20.2796     0.0000     2.0000 </r>
       <r>   -20.1877     0.0000     2.0000 </r>
       <r>   -20.0959     0.0000     2.0000 </r>
       <r>   -20.0040     0.0000     2.0000 </r>
       <r>   -19.9121     0.0000     2.0000 </r>
       <r>   -19.8202     0.0000     2.0000 </r>
       <r>   -19.7284     0.0000     2.0000 </r>
       <r>   -19.6365     0.0000     2.0000 </r>
       <r>   -19.5446     0.0000     2.0000 </r>
       <r>   -19.4527     0.0000     2.0000 </r>
       <r>   -19.3609     0.0000     2.0000 </r>
       <r>   -19.2690     0.0000     2.0000 </r>
       <r>   -19.1771     0.0000     2.0000 </r>
       <r>   -19.0853     0.0000     2.0000 </r>
       <r>   -18.9934     0.0000     2.0000 </r>
       <r>   -18.9015     0.0000     2.0000 </r>
       <r>   -18.8096     0.0000     2.0000 </r>
       <r>   -18.7178     0.0000     2.0000 </r>
       <r>   -18.6259     0.0000     2.0000 </r>
       <r>   -18.5340     0.0000     2.0000 </r>
       <r>   -18.4422     0.0000     2.0000 </r>
       <r>   -18.3503     0.0000     2.0000 </r>
       <r>   -18.2584     0.0000     2.0000 </r>
       <r>   -18.1665     0.0000     2.0000 </r>
       <r>   -18.0747     0.0000     2.0000 </r>
       <r>   -17.9828     0.0000     2.0000 </r>
       <r>   -17.8909     0.0000     2.0000 </r>
       <r>   -17.7990     0.0000     2.0000 </r>
       <r>   -17.7072     0.0000     2.0000 </r>
       <r>   -17.6153     0.0000     2.0000 </r>
       <r>   -17.5234     0.0000     2.0000 </r>
       <r>   -17.4316     0.0000     2.0000 </r>
       <r>   -17.3397     0.0000     2.0000 </r>
       <r>   -17.2478     0.0000     2.0000 </r>
       <r>   -17.1559     0.0000     2.0000 </r>
       <r>   -17.0641     0.0000     2.0000 </r>
       <r>   -16.9722     0.0000     2.0000 </r>
       <r>   -16.8803     0.0000     2.0000 </r>
       <r>   -16.7884     0.0000     2.0000 </r>
       <r>   -16.6966     0.0000     2.0000 </r>
       <r>   -16.6047     0.0000     2.0000 </r>
       <r>   -16.5128     0.0000     2.0000 </r>
       <r>   -16.4210     0.0000     2.0000 </r>
       <r>   -16.3291     0.0000     2.0000 </r>
       <r>   -16.2372     0.0000     2.0000 </r>
       <r>   -16.1453     0.0000     2.0000 </r>
       <r>   -16.0535     0.0000     2.0000 </r>
       <r>   -15.9616     0.0000     2.0000 </r>
       <r>   -15.8697     0.0000     2.0000 </r>
       <r>   -15.7779     0.0000     2.0000 </r>
       <r>   -15.6860     0.0000     2.0000 </r>
       <r>   -15.5941     0.0000     2.0000 </r>
       <r>   -15.5022     0.0000     2.0000 </r>
       <r>   -15.4104     0.0000     2.0000 </r>
       <r>   -15.3185     0.0000     2.0000 </r>
       <r>   -15.2266     0.0000     2.0000 </r>
       <r>   -15.1347     0.0000     2.0000 </r>
       <r>   -15.0429     0.0000     2.0000 </r>
       <r>   -14.9510     0.0000     2.0000 </r>
       <r>   -14.8591     0.0000     2.0000 </r>
       <r>   -14.7673     0.0000     2.0000 </r>
       <r>   -14.6754     0.0000     2.0000 </r>
       <r>   -14.5835     0.0000     2.0000 </r>
       <r>   -14.4916     0.0000     2.0000 </r>
       <r>   -14.3998     0.0000     2.0000 </r>
       <r>   -14.3079     0.0000     2.0000 </r>
       <r>   -14.2160     0.0000     2.0000 </r>
       <r>   -14.1241     0.0000     2.0000 </r>
       <r>   -14.0323     0.0000     2.0000 </r>
       <r>   -13.9404     0.0000     2.0000 </r>
       <r>   -13.8485     0.0000     2.0000 </r>
       <r>   -13.7567     0.0000     2.0000 </r>
       <r>   -13.6648     0.0000     2.0000 </r>
       <r>   -13.5729     0.0000     2.0000 </r>
       <r>   -13.4810     0.0000     2.0000 </r>
       <r>   -13.3892     0.0000     2.0000 </r>
       <r>   -13.2973     0.0000     2.0000 </r>
       <r>   -13.2054     0.0000     2.0000 </r>
       <r>   -13.1135     0.0000     2.0000 </r>
       <r>   -13.0217     0.0000     2.0000 </r>
       <r>   -12.9298     0.0000     2.0000 </r>
       <r>   -12.8379     0.0000     2.0000 </r>
       <r>   -12.7461     0.0000     2.0000 </r>
       <r>   -12.6542     0.0000     2.0000 </r>
       <r>   -12.5623     0.0000     2.0000 </r>
       <r>   -12.4704     0.0000     2.0000 </r>
       <r>   -12.3786     0.0000     2.0000 </r>
       <r>   -12.2867     0.0000     2.0000 </r>
       <r>   -12.1948     0.0000     2.0000 </r>
       <r>   -12.1030     0.0000     2.0000 </r>
       <r>   -12.0111     0.0000     2.0000 </r>
       <r>   -11.9192     0.0000     2.0000 </r>
       <r>   -11.8273     0.0000     2.0000 </r>
       <r>   -11.7355     0.0000     2.0000 </r>
       <r>   -11.6436     0.0000     2.0000 </r>
       <r>   -11.5517     0.0000     2.0000 </r>
       <r>   -11.4598     0.0000     2.0000 </r>
       <r>   -11.3680     0.0000     2.0000 </r>
       <r>   -11.2761     0.0000     2.0000 </r>
       <r>   -11.1842     0.0000     2.0000 </r>
       <r>   -11.0924     0.0000     2.0000 </r>
       <r>   -11.0005     0.0000     2.0000 </r>
       <r>   -10.9086     0.0000     2.0000 </r>
       <r>   -10.8167     0.0000     2.0000 </r>
       <r>   -10.7249     0.0000     2.0000 </r>
       <r>   -10.6330     0.0000     2.0000 </r>
       <r>   -10.5411     0.0000     2.0000 </r>
       <r>   -10.4492     0.0000     2.0000 </r>
       <r>   -10.3574     0.0000     2.0000 </r>
       <r>   -10.2655     0.0000     2.0000 </r>
       <r>   -10.1736     0.1816     2.0167 </r>
       <r>   -10.0818    65.1264     8.0000 </r>
       <r>    -9.9899     0.0000     8.0000 </r>
       <r>    -9.8980     0.0000     8.0000 </r>
       <r>    -9.8061     0.0000     8.0000 </r>
       <r>    -9.7143     0.0000     8.0000 </r>
       <r>    -9.6224     0.0000     8.0000 </r>
       <r>    -9.5305     0.0000     8.0000 </r>
       <r>    -9.4387     0.0000     8.0000 </r>
       <r>    -9.3468     0.0000     8.0000 </r>
       <r>    -9.2549     0.0000     8.0000 </r>
       <r>    -9.1630     0.0000     8.0000 </r>
       <r>    -9.0712     0.0000     8.0000 </r>
       <r>    -8.9793     0.0000     8.0000 </r>
       <r>    -8.8874     0.0000     8.0000 </r>
       <r>    -8.7955     0.0000     8.0000 </r>
       <r>    -8.7037     0.0000     8.0000 </r>
       <r>    -8.6118     0.0000     8.0000 </r>
       <r>    -8.5199     0.0000     8.0000 </r>
       <r>    -8.4281     0.0000     8.0000 </r>
       <r>    -8.3362     0.0000     8.0000 </r>
       <r>    -8.2443     0.0000     8.0000 </r>
       <r>    -8.1524     0.0000     8.0000 </r>
       <r>    -8.0606     0.0000     8.0000 </r>
       <r>    -7.9687     0.0000     8.0000 </r>
       <r>    -7.8768     0.0000     8.0000 </r>
       <r>    -7.7849     0.0000     8.0000 </r>
       <r>    -7.6931     0.0000     8.0000 </r>
       <r>    -7.6012     0.0000     8.0000 </r>
       <r>    -7.5093     0.0000     8.0000 </r>
       <r>    -7.4175     0.0000     8.0000 </r>
       <r>    -7.3256     0.0000     8.0000 </r>
       <r>    -7.2337     0.0000     8.0000 </r>
       <r>    -7.1418     0.0000     8.0000 </r>
       <r>    -7.0500     0.0000     8.0000 </r>
       <r>    -6.9581     0.0000     8.0000 </r>
       <r>    -6.8662     0.0000     8.0000 </r>
       <r>    -6.7743     0.0000     8.0000 </r>
       <r>    -6.6825     0.0000     8.0000 </r>
       <r>    -6.5906     0.0000     8.0000 </r>
       <r>    -6.4987     0.0000     8.0000 </r>
       <r>    -6.4069     0.0000     8.0000 </r>
       <r>    -6.3150     0.0000     8.0000 </r>
       <r>    -6.2231     0.0000     8.0000 </r>
       <r>    -6.1312     0.0000     8.0000 </r>
       <r>    -6.0394     0.0000     8.0000 </r>
       <r>    -5.9475     0.0000     8.0000 </r>
       <r>    -5.8556     0.0000     8.0000 </r>
       <r>    -5.7638     0.0000     8.0000 </r>
       <r>    -5.6719     0.0000     8.0000 </r>
       <r>    -5.5800     0.0000     8.0000 </r>
       <r>    -5.4881     0.0000     8.0000 </r>
       <r>    -5.3963     0.0000     8.0000 </r>
       <r>    -5.3044     0.0000     8.0000 </r>
       <r>    -5.2125     0.0000     8.0000 </r>
       <r>    -5.1206     0.0000     8.0000 </r>
       <r>    -5.0288     0.0000     8.0000 </r>
       <r>    -4.9369     0.0000     8.0000 </r>
       <r>    -4.8450     0.0000     8.0000 </r>
       <r>    -4.7532     0.0000     8.0000 </r>
       <r>    -4.6613     0.0000     8.0000 </r>
       <r>    -4.5694     0.0000     8.0000 </r>
       <r>    -4.4775     0.0000     8.0000 </r>
       <r>    -4.3857     0.0000     8.0000 </r>
       <r>    -4.2938     0.0000     8.0000 </r>
       <r>    -4.2019     0.0000     8.0000 </r>
       <r>    -4.1100     0.0000     8.0000 </r>
       <r>    -4.0182     0.0000     8.0000 </r>
       <r>    -3.9263     0.0000     8.0000 </r>
       <r>    -3.8344     0.0000     8.0000 </r>
       <r>    -3.7426     0.0000     8.0000 </r>
       <r>    -3.6507     0.0000     8.0000 </r>
       <r>    -3.5588     0.0000     8.0000 </r>
       <r>    -3.4669     0.0000     8.0000 </r>
       <r>    -3.3751     0.0000     8.0000 </r>
       <r>    -3.2832     0.0000     8.0000 </r>
       <r>    -3.1913     0.0000     8.0000 </r>
       <r>    -3.0995     0.0000     8.0000 </r>
       <r>    -3.0076     0.0000     8.0000 </r>
       <r>    -2.9157     0.0000     8.0000 </r>
       <r>    -2.8238     0.0000     8.0000 </r>
       <r>    -2.7320     0.0000     8.0000 </r>
       <r>    -2.6401     0.0000     8.0000 </r>
       <r>    -2.5482     0.0000     8.0000 </r>
       <r>    -2.4563     0.0000     8.0000 </r>
       <r>    -2.3645     0.0000     8.0000 </r>
       <r>    -2.2726     0.0000     8.0000 </r>
       <r>    -2.1807     0.0000     8.0000 </r>
       <r>    -2.0889     0.0000     8.0000 </r>
       <r>    -1.9970     0.0000     8.0000 </r>
       <r>    -1.9051     0.0000     8.0000 </r>
       <r>    -1.8132     0.0000     8.0000 </r>
       <r>    -1.7214     0.0000     8.0000 </r>
       <r>    -1.6295     0.0000     8.0000 </r>
       <r>    -1.5376     0.0000     8.0000 </r>
       <r>    -1.4457     0.0000     8.0000 </r>
       <r>    -1.3539     0.0000     8.0000 </r>
       <r>    -1.2620     0.0000     8.0000 </r>
       <r>    -1.1701     0.0000     8.0000 </r>
       <r>    -1.0783     0.0000     8.0000 </r>
       <r>    -0.9864     0.0000     8.0000 </r>
       <r>    -0.8945     0.0000     8.0000 </r>
       <r>    -0.8026     0.0000     8.0000 </r>
       <r>    -0.7108     0.0000     8.0000 </r>
       <r>    -0.6189     0.0000     8.0000 </r>
       <r>    -0.5270     0.0000     8.0000 </r>
       <r>    -0.4352     0.0000     8.0000 </r>
       <r>    -0.3433     0.0025     8.0002 </r>
       <r>    -0.2514    21.7668    10.0000 </r>
       <r>    -0.1595     0.0000    10.0000 </r>
       <r>    -0.0677     0.0000    10.0000 </r>
       <r>     0.0242     0.0000    10.0000 </r>
       <r>     0.1161     0.0000    10.0000 </r>
       <r>     0.2080     0.0000    10.0000 </r>
       <r>     0.2998     0.0000    10.0000 </r>
       <r>     0.3917     0.0000    10.0000 </r>
       <r>     0.4836     0.0000    10.0000 </r>
       <r>     0.5754     0.0000    10.0000 </r>
       <r>     0.6673    21.7687    11.9999 </r>
       <r>     0.7592     0.0000    12.0000 </r>
       <r>     0.8511     0.0001    12.0000 </r>
       <r>     0.9429    43.5386    16.0000 </r>
       <r>     1.0348     0.0000    16.0000 </r>
       <r>     1.1267     0.0000    16.0000 </r>
       <r>     1.2186     0.0000    16.0000 </r>
       <r>     1.3104     0.0000    16.0000 </r>
       <r>     1.4023     0.0000    16.0000 </r>
       <r>     1.4942     0.0000    16.0000 </r>
       <r>     1.5860     0.0000    16.0000 </r>
       <r>     1.6779     0.0000    16.0000 </r>
       <r>     1.7698     0.0000    16.0000 </r>
       <r>     1.8617     0.0000    16.0000 </r>
       <r>     1.9535     0.0000    16.0000 </r>
       <r>     2.0454     0.0000    16.0000 </r>
       <r>     2.1373     0.0000    16.0000 </r>
      </set>
     </set>
    </array>
   </total>
  </dos>
 </calculation>
 <structure name="finalpos" >
  <crystal>
   <varray name="basis" >
    <v>      12.00000000       0.00000000       0.00000000 </v>
    <v>       0.00000000      12.00000000       0.00000000 </v>
    <v>       0.00000000       0.00000000      12.00000000 </v>
   </varray>
   <i name="volume">   1728.00000000 </i>
   <varray name="rec_basis" >
    <v>       0.08333333       0.00000000       0.00000000 </v>
    <v>       0.00000000       0.08333333       0.00000000 </v>
    <v>       0.00000000       0.00000000       0.08333333 </v>
   </varray>
  </crystal>
  <varray name="positions" >
   <v>       0.50000000       0.50000000       0.50000000 </v>
  </varray>
 </structure>
</modeling>
