----- GAMESS execution script 'rungms' -----
This job is running on host crcfe02.crc.nd.edu
under operating system Linux at Sun Sep 29 10:47:17 EDT 2019
Available scratch disk space (Kbyte units) at beginning of the job is
Filesystem      1K-blocks  Used  Available Use% Mounted on
AFS            2147483647     0 2147483647   0% /afs
GAMESS temporary binary files will be written to /afs/crc.nd.edu/user/c/cdrisko
GAMESS supplementary output files will be written to /afs/crc.nd.edu/user/c/cdrisko/scr
Copying input file SO2.inp to your run's scratch directory...

 Distributed Data Interface kickoff program.
 Initiating 1 compute processes on 1 nodes to run the following command:
 /afs/crc.nd.edu/x86_64_linux/g/gamess/nov-2017/gamess/gamess.00.x SO2 

          ******************************************************
          *         GAMESS VERSION = 11 NOV 2017 (R3)         *
          *             FROM IOWA STATE UNIVERSITY             *
          * M.W.SCHMIDT, K.K.BALDRIDGE, J.A.BOATZ, S.T.ELBERT, *
          *   M.S.GORDON, J.H.JENSEN, S.KOSEKI, N.MATSUNAGA,   *
          *          K.A.NGUYEN, S.J.SU, T.L.WINDUS,           *
          *       TOGETHER WITH M.DUPUIS, J.A.MONTGOMERY       *
          *         J.COMPUT.CHEM.  14, 1347-1363(1993)        *
          **************** 64 BIT INTEL VERSION ****************

  SINCE 1993, STUDENTS AND POSTDOCS WORKING AT IOWA STATE UNIVERSITY
  AND ALSO IN THEIR VARIOUS JOBS AFTER LEAVING ISU HAVE MADE IMPORTANT
  CONTRIBUTIONS TO THE CODE:
     IVANA ADAMOVIC, CHRISTINE AIKENS, YURI ALEXEEV, POOJA ARORA,
     ANDREY ASADCHEV, ROB BELL, PRADIPTA BANDYOPADHYAY, JONATHAN BENTZ,
     BRETT BODE, KURT BRORSEN, CALEB CARLIN, GALINA CHABAN, WEI CHEN,
     CHEOL HO CHOI, PAUL DAY, ALBERT DEFUSCO, NUWAN DESILVA, TIM DUDLEY,
     DMITRI FEDOROV, ALEX FINDLATER, GRAHAM FLETCHER, MARK FREITAG,
     KURT GLAESEMANN, ANASTASIA GUININA,
     DAN KEMP, GRANT MERRILL, NORIYUKI MINEZAWA, JONATHAN MULLIN,
     TAKESHI NAGATA, SEAN NEDD, HEATHER NETZLOFF, BOSILJKA NJEGIC, RYAN OLSON,
     MIKE PAK, BUU PHAM,
     SPENCER PRUITT, LUKE ROSKOP, JIM SHOEMAKER, LYUDMILA SLIPCHENKO,
     TONY SMITH, SAROM SOK LEANG, JIE SONG, TETSUYA TAKETSUGU, SIMON WEBB,
     PENG XU, SOOHAENG YOO, FEDERICO ZAHARIEV

  ADDITIONAL CODE HAS BEEN PROVIDED BY COLLABORATORS IN OTHER GROUPS:
     IOWA STATE UNIVERSITY:
          JOE IVANIC, AARON WEST, LAIMUTIS BYTAUTAS, KLAUS RUEDENBERG
     UNIVERSITY OF TOKYO: KIMIHIKO HIRAO, TAKAHITO NAKAJIMA,
          TAKAO TSUNEDA, MUNEAKI KAMIYA, SUSUMU YANAGISAWA,
          KIYOSHI YAGI, MAHITO CHIBA, SEIKEN TOKURA, NAOAKI KAWAKAMI
     UNIVERSITY OF AARHUS: FRANK JENSEN
     UNIVERSITY OF IOWA: VISVALDAS KAIRYS, HUI LI
     NATIONAL INST. OF STANDARDS AND TECHNOLOGY: WALT STEVENS, DAVID GARMER
     UNIVERSITY OF PISA: BENEDETTA MENNUCCI, JACOPO TOMASI
     UNIVERSITY OF MEMPHIS: HENRY KURTZ, PRAKASHAN KORAMBATH
     UNIVERSITY OF ALBERTA: TOBY ZENG, MARIUSZ KLOBUKOWSKI
     UNIVERSITY OF NEW ENGLAND: MARK SPACKMAN
     MIE UNIVERSITY: HIROAKI UMEDA
     NAT. INST. OF ADVANCED INDUSTRIAL SCIENCE AND TECHNOLOGY: KAZUO KITAURA
     MICHIGAN STATE UNIVERSITY:
          KAROL KOWALSKI, MARTA WLOCH, JEFFREY GOUR, JESSE LUTZ,
          WEI LI, PIOTR PIECUCH
     UNIVERSITY OF SILESIA: MONIKA MUSIAL, STANISLAW KUCHARSKI
     FACULTES UNIVERSITAIRES NOTRE-DAME DE LA PAIX:
          OLIVIER QUINET, BENOIT CHAMPAGNE
     UNIVERSITY OF CALIFORNIA - SANTA BARBARA: BERNARD KIRTMAN
     INSTITUTE FOR MOLECULAR SCIENCE:
          KAZUYA ISHIMURA, MICHIO KATOUDA, AND SHIGERU NAGASE
     UNIVERSITY OF NOTRE DAME: ANNA POMOGAEVA, DAN CHIPMAN
     KYUSHU UNIVERSITY:
          HARUYUKI NAKANO,
          FENG LONG GU, JACEK KORCHOWIEC, MARCIN MAKOWSKI, AND YURIKO AOKI,
          HIROTOSHI MORI AND EISAKU MIYOSHI
     PENNSYLVANIA STATE UNIVERSITY:
          TZVETELIN IORDANOV, CHET SWALINA, JONATHAN SKONE,
          SHARON HAMMES-SCHIFFER
     WASEDA UNIVERSITY:
          MASATO KOBAYASHI, TOMOKO AKAMA, TSUGUKI TOUMA,
          TAKESHI YOSHIKAWA, YASUHIRO IKABATA, JUNJI SEINO,
          YUYA NAKAJIMA, HIROMI NAKAI
     NANJING UNIVERSITY: SHUHUA LI
     UNIVERSITY OF NEBRASKA:
          PEIFENG SU, DEJUN SI, NANDUN THELLAMUREGE, YALI WANG, HUI LI
     UNIVERSITY OF ZURICH: ROBERTO PEVERATI, KIM BALDRIDGE
     N. COPERNICUS UNIVERSITY AND JACKSON STATE UNIVERSITY:
          MARIA BARYSZ
     UNIVERSITY OF COPENHAGEN: Jimmy Kromann, CASPER STEINMANN
     TOKYO INSTITUTE OF TECHNOLOGY: HIROYA NAKATA
     NAGOYA UNIVERSITY: YOSHIO NISHIMOTO, STEPHAN IRLE
     MOSCOW STATE UNIVERSITY: VLADIMIR MIRONOV

 EXECUTION OF GAMESS BEGUN Sun Sep 29 10:47:17 2019

            ECHO OF THE FIRST FEW INPUT CARDS -
 INPUT CARD> $BASIS GBASIS=PCSEG-1 $END                                                     
 INPUT CARD> $CONTRL COORD=ZMT ISPHER=1 RUNTYP=ENERGY DFTTYP=PBE MULT=1 $END                
 INPUT CARD>                                                                                
 INPUT CARD> $DATA                                                                          
 INPUT CARD>Title SO2 single-point calculation template with Z-Matrix                       
 INPUT CARD>C1                                                                              
 INPUT CARD>S                                                                               
 INPUT CARD>O 1 1.45                                                                        
 INPUT CARD>O 1 1.45 2 120                                                                  
 INPUT CARD> $END                                                                           
    1000000 WORDS OF MEMORY AVAILABLE

     BASIS OPTIONS
     -------------
     GBASIS=PCSEG-1      IGAUSS=       0      POLAR=NONE    
     NDFUNC=       0     NFFUNC=       0     DIFFSP=       F
     NPFUNC=       0      DIFFS=       F     BASNAM=        


     RUN TITLE
     ---------
 Title SO2 single-point calculation template with Z-Matrix                       

 THE POINT GROUP OF THE MOLECULE IS C1      
 THE ORDER OF THE PRINCIPAL AXIS IS     0

 YOUR FULLY SUBSTITUTED Z-MATRIX IS
 S   
 O      1   1.4500000
 O      1   1.4500000  2  120.0000

 THE MOMENTS OF INERTIA ARE (AMU-ANGSTROM**2)
 IXX=     8.405   IYY=    50.444   IZZ=    58.849

 ATOM      ATOMIC                      COORDINATES (BOHR)
           CHARGE         X                   Y                   Z
 S          16.0     0.0000000000       -0.6852157713        0.0000000000
 O           8.0     2.3729985318        0.6848355698        0.0000000000
 O           8.0    -2.3729985318        0.6848355698        0.0000000000

          INTERNUCLEAR DISTANCES (ANGS.)
          ------------------------------

                1 S          2 O          3 O     

   1 S       0.0000000    1.4500000 *  1.4500000 *
   2 O       1.4500000 *  0.0000000    2.5114737 *
   3 O       1.4500000 *  2.5114737 *  0.0000000  

  * ... LESS THAN  3.000


     ATOMIC BASIS SET
     ----------------
 THE CONTRACTED PRIMITIVE FUNCTIONS HAVE BEEN UNNORMALIZED
 THE CONTRACTED BASIS FUNCTIONS ARE NOW NORMALIZED TO UNITY

  SHELL TYPE  PRIMITIVE        EXPONENT          CONTRACTION COEFFICIENT(S)

 S         

      1   S       1         49299.4000000    0.000677492991
      1   S       2          7395.8400000    0.005232317766
      1   S       3          1683.3000000    0.026769459077
      1   S       4           476.1440000    0.102869580705
      1   S       5           154.3290000    0.286438127414
      1   S       6            55.0288000    0.454278639081
      1   S       7            20.5029000    0.271743121997

      2   S       8            45.9596000   -0.088421914560
      2   S       9             4.9274000    0.564350486135
      2   S      10             1.9179900    0.505415953466

      3   S      11             0.3684980    1.000000000000

      4   S      12             0.1291650    1.000000000000

      5   P      13           451.6620000    0.003707705453
      5   P      14           106.0980000    0.029219352245
      5   P      15            33.6996000    0.124444551509
      5   P      16            12.3054000    0.321808587656
      5   P      17             4.7141200    0.462822172957
      5   P      18             1.7810500    0.266513371364

      6   P      19             0.8722350    0.349265132972
      6   P      20             0.3102780    0.717115018770

      7   P      21             0.1001940    1.000000000000

      8   D      22             0.5500000    1.000000000000

 O         

      9   S      23          2288.6400000    0.005451138222
      9   S      24           344.4160000    0.040718922842
      9   S      25            78.2538000    0.181369420873
      9   S      26            21.7195000    0.465536820246
      9   S      27             6.5590700    0.451211321214

     10   S      28            10.4656000   -0.150211201174
     10   S      29             0.9643510    1.052867983385

     11   S      30             0.2851270    1.000000000000

     12   P      31            17.0590000    0.068749256972
     12   P      32             3.6899900    0.351671941499
     12   P      33             0.9929960    0.724532099722

     13   P      34             0.2449240    1.000000000000

     14   D      35             1.0000000    1.000000000000

 O         

     15   S      36          2288.6400000    0.005451138222
     15   S      37           344.4160000    0.040718922842
     15   S      38            78.2538000    0.181369420873
     15   S      39            21.7195000    0.465536820246
     15   S      40             6.5590700    0.451211321214

     16   S      41            10.4656000   -0.150211201174
     16   S      42             0.9643510    1.052867983385

     17   S      43             0.2851270    1.000000000000

     18   P      44            17.0590000    0.068749256972
     18   P      45             3.6899900    0.351671941499
     18   P      46             0.9929960    0.724532099722

     19   P      47             0.2449240    1.000000000000

     20   D      48             1.0000000    1.000000000000

 TOTAL NUMBER OF BASIS SET SHELLS             =   20
 NUMBER OF CARTESIAN GAUSSIAN BASIS FUNCTIONS =   49
 NOTE: THIS RUN WILL RESTRICT THE MO VARIATION SPACE TO SPHERICAL HARMONICS.
 THE NUMBER OF ORBITALS KEPT IN THE VARIATIONAL SPACE WILL BE PRINTED LATER.
 NUMBER OF ELECTRONS                          =   32
 CHARGE OF MOLECULE                           =    0
 SPIN MULTIPLICITY                            =    1
 NUMBER OF OCCUPIED ORBITALS (ALPHA)          =   16
 NUMBER OF OCCUPIED ORBITALS (BETA )          =   16
 TOTAL NUMBER OF ATOMS                        =    3
 THE NUCLEAR REPULSION ENERGY IS      106.9122041052

     LEBEDEV GRID-BASED DFT OPTIONS
     ------------------------------
     DFTTYP=PBE     
     NRAD  =      96     NLEB  =     302
     NRAD0 =      24     NLEB0 =     110
     SWOFF =    5.00E-03 (PURE SCF -> DFT)
     SWITCH=    3.00E-04 (COARSE -> TIGHT GRID)
     THRESH=    0.00E+00 GTHRE=    1.00E+00

 GRIMME'S EMPIRICAL DISPERSION CORRECTION= F

     $CONTRL OPTIONS
     ---------------
 SCFTYP=RHF          RUNTYP=ENERGY       EXETYP=RUN     
 MPLEVL=       0     CITYP =NONE         CCTYP =NONE         VBTYP =NONE    
 DFTTYP=PBE          TDDFT =NONE    
 MULT  =       1     ICHARG=       0     NZVAR =       0     COORD =ZMT     
 PP    =NONE         RELWFN=NONE         LOCAL =NONE         NUMGRD=       F
 ISPHER=       1     NOSYM =       0     MAXIT =      30     UNITS =ANGS    
 PLTORB=       F     MOLPLT=       F     AIMPAC=       F     FRIEND=        
 NPRINT=       7     IREST =       0     GEOM  =INPUT   
 NORMF =       0     NORMP =       0     ITOL  =      20     ICUT  =       9
 INTTYP=BEST         GRDTYP=BEST         QMTTOL= 1.0E-06

     $SYSTEM OPTIONS
     ---------------
  REPLICATED MEMORY=     1000000 WORDS (ON EVERY NODE).
 DISTRIBUTED MEMDDI=           0 MILLION WORDS IN AGGREGATE,
 MEMDDI DISTRIBUTED OVER   1 PROCESSORS IS           0 WORDS/PROCESSOR.
 TOTAL MEMORY REQUESTED ON EACH PROCESSOR=     1000000 WORDS.
 TIMLIM=      525600.00 MINUTES, OR     365.0 DAYS.
 PARALL= F  BALTYP=  DLB     KDIAG=    0  COREFL= F
 MXSEQ2=     300 MXSEQ3=     150  mem10=         0

          ----------------
          PROPERTIES INPUT
          ----------------

     MOMENTS            FIELD           POTENTIAL          DENSITY
 IEMOM =       1   IEFLD =       0   IEPOT =       0   IEDEN =       0
 WHERE =COMASS     WHERE =NUCLEI     WHERE =NUCLEI     WHERE =NUCLEI  
 OUTPUT=BOTH       OUTPUT=BOTH       OUTPUT=BOTH       OUTPUT=BOTH    
 IEMINT=       0   IEFINT=       0                     IEDINT=       0
                                                       MORB  =       0
          EXTRAPOLATION IN EFFECT
          DIIS IN EFFECT
 ORBITAL PRINTING OPTION: NPREO=     1    49     2     1

     -------------------------------
     INTEGRAL TRANSFORMATION OPTIONS
     -------------------------------
     NWORD  =            0
     CUTOFF = 1.0E-09     MPTRAN =       0
     DIRTRF =       F     AOINTS =DUP     

          ----------------------
          INTEGRAL INPUT OPTIONS
          ----------------------
 NOPK  =       1 NORDER=       0 SCHWRZ=       F

   --- ENCODED Z MATRIX ---
 COORD  TYPE   I   J   K   L   M   N
    1      1    2   1
    2      1    3   1
    3      2    3   1   2

 THE DETERMINANT OF THE G MATRIX IS 10**(    -4)

 THE DETERMINANT OF THE G MATRIX IS 10**(    -4)
 * * * WARNING * * *
 YOUR B MATRIX HAS A SMALL DETERMINANT.
 THIS SUGGESTS YOU MAY HAVE BADLY CHOSEN COORDINATES.

     ------------------------------------------
     THE POINT GROUP IS C1 , NAXIS= 0, ORDER= 1
     ------------------------------------------

 -- VARIATIONAL SPACE WILL BE RESTRICTED TO PURE SPHERICAL HARMONICS ONLY --
 AFTER EXCLUDING CONTAMINANT COMBINATIONS FROM THE CARTESIAN GAUSSIAN BASIS
 SET, THE NUMBER OF SPHERICAL HARMONICS KEPT IN THE VARIATION SPACE IS   46

     DIMENSIONS OF THE SYMMETRY SUBSPACES ARE
 A   =   46

 ..... DONE SETTING UP THE RUN .....
 STEP CPU TIME =     0.03 TOTAL CPU TIME =          0.0 (      0.0 MIN)
 TOTAL WALL CLOCK TIME=          0.0 SECONDS, CPU UTILIZATION IS   100.00%

          ********************
          1 ELECTRON INTEGRALS
          ********************
 ...... END OF ONE-ELECTRON INTEGRALS ......
 STEP CPU TIME =     0.00 TOTAL CPU TIME =          0.0 (      0.0 MIN)
 TOTAL WALL CLOCK TIME=          0.0 SECONDS, CPU UTILIZATION IS    75.00%

          -------------
          GUESS OPTIONS
          -------------
          GUESS =HUCKEL            NORB  =       0          NORDER=       0
          MIX   =       F          PRTMO =       F          PUNMO =       F
          TOLZ  = 1.0E-08          TOLE  = 1.0E-05
          SYMDEN=       F          PURIFY=       F

 INITIAL GUESS ORBITALS GENERATED BY HUCKEL   ROUTINE.
 HUCKEL GUESS REQUIRES     21634 WORDS.

 STATISTICS FOR GENERATION OF SYMMETRY ORBITAL -Q- MATRIX
 NUMBER OF CARTESIAN ATOMIC ORBITALS=         49
 NUMBER OF SPHERICAL CONTAMINANTS DROPPED=     3
 NUMBER OF LINEARLY DEPENDENT MOS DROPPED=     0
 TOTAL NUMBER OF MOS IN VARIATION SPACE=      46

 SYMMETRIES FOR INITIAL GUESS ORBITALS FOLLOW.   BOTH SET(S).
    16 ORBITALS ARE OCCUPIED (    7 CORE ORBITALS).
     8=A        9=A       10=A       11=A       12=A       13=A       14=A   
    15=A       16=A       17=A       18=A       19=A       20=A       21=A   
    22=A       23=A       24=A       25=A       26=A   
 ...... END OF INITIAL ORBITAL SELECTION ......
 STEP CPU TIME =     0.00 TOTAL CPU TIME =          0.0 (      0.0 MIN)
 TOTAL WALL CLOCK TIME=          0.0 SECONDS, CPU UTILIZATION IS    75.00%

                    ----------------------
                    AO INTEGRAL TECHNOLOGY
                    ----------------------
     S,P,L SHELL ROTATED AXIS INTEGRALS, REPROGRAMMED BY
        KAZUYA ISHIMURA (IMS) AND JOSE SIERRA (SYNSTAR).
     S,P,D,L SHELL ROTATED AXIS INTEGRALS PROGRAMMED BY
        KAZUYA ISHIMURA (INSTITUTE FOR MOLECULAR SCIENCE).
     S,P,D,F,G SHELL TO TOTAL QUARTET ANGULAR MOMENTUM SUM 5,
        ERIC PROGRAM BY GRAHAM FLETCHER (ELORET AND NASA ADVANCED
        SUPERCOMPUTING DIVISION, AMES RESEARCH CENTER).
     S,P,D,F,G,L SHELL GENERAL RYS QUADRATURE PROGRAMMED BY
        MICHEL DUPUIS (PACIFIC NORTHWEST NATIONAL LABORATORY).

          --------------------
          2 ELECTRON INTEGRALS
          --------------------

 THE -PK- OPTION IS OFF, THE INTEGRALS ARE NOT IN SUPERMATRIX FORM.
 STORING   15000 INTEGRALS/RECORD ON DISK, USING 12 BYTES/INTEGRAL.
 TWO ELECTRON INTEGRAL EVALUATION REQUIRES   90606 WORDS OF MEMORY.
 II,JST,KST,LST =  1  1  1  1 NREC =         1 INTLOC =    1
 II,JST,KST,LST =  2  1  1  1 NREC =         1 INTLOC =    2
 II,JST,KST,LST =  3  1  1  1 NREC =         1 INTLOC =    7
 II,JST,KST,LST =  4  1  1  1 NREC =         1 INTLOC =   22
 II,JST,KST,LST =  5  1  1  1 NREC =         1 INTLOC =   56
 II,JST,KST,LST =  6  1  1  1 NREC =         1 INTLOC =  125
 II,JST,KST,LST =  7  1  1  1 NREC =         1 INTLOC =  329
 II,JST,KST,LST =  8  1  1  1 NREC =         1 INTLOC =  776
 II,JST,KST,LST =  9  1  1  1 NREC =         1 INTLOC = 2864
 II,JST,KST,LST = 10  1  1  1 NREC =         1 INTLOC = 4986
 II,JST,KST,LST = 11  1  1  1 NREC =         1 INTLOC = 7652
 II,JST,KST,LST = 12  1  1  1 NREC =         1 INTLOC =10770
 II,JST,KST,LST = 13  1  1  1 NREC =         2 INTLOC = 6698
 II,JST,KST,LST = 14  1  1  1 NREC =         3 INTLOC = 6970
 II,JST,KST,LST = 15  1  1  1 NREC =         6 INTLOC = 9001
 II,JST,KST,LST = 16  1  1  1 NREC =         7 INTLOC = 1680
 II,JST,KST,LST = 17  1  1  1 NREC =         7 INTLOC =13494
 II,JST,KST,LST = 18  1  1  1 NREC =         8 INTLOC =11962
 II,JST,KST,LST = 19  1  1  1 NREC =        11 INTLOC = 7945
 II,JST,KST,LST = 20  1  1  1 NREC =        15 INTLOC =  276
 TOTAL NUMBER OF NONZERO TWO-ELECTRON INTEGRALS =              344408
         23 INTEGRAL RECORDS WERE STORED ON DISK FILE  8.
  ...... END OF TWO-ELECTRON INTEGRALS .....
 STEP CPU TIME =     0.09 TOTAL CPU TIME =          0.1 (      0.0 MIN)
 TOTAL WALL CLOCK TIME=          0.1 SECONDS, CPU UTILIZATION IS    92.31%

          --------------------------
               R-PBE SCF CALCULATION
          --------------------------

     NUCLEAR ENERGY =       106.9122041052
     MAXIT =   30     NPUNCH=    2
     EXTRAP=T  DAMP=F  SHIFT=F  RSTRCT=F  DIIS=T  DEM=F  SOSCF=F
         DENSITY MATRIX CONVERGENCE THRESHOLD=  1.00E-05
     COARSE -> FINE DFT GRID SWITCH THRESHOLD=  3.00E-04 (SWITCH IN $DFT)
                   HF -> DFT SWITCH THRESHOLD=  5.00E-03 (SWOFF IN $DFT)
     MEMORY REQUIRED FOR RHF ITERS=    183108 WORDS.

 DFT CODE IS SWITCHING FROM THE FINE GRID NRAD= 96,  NLEB=  302
                      TO THE COARSE GRID NRAD0= 24, NLEB0=  110

     EXCHANGE FUNCTIONAL   =PBE       
     CORRELATION FUNCTIONAL=PBE       
     DFT THRESHOLD         =.460E-07
     GRID CHANGE THRESHOLD =.300E-03
 FOR AN EULER-MACLAURIN QUADRATURE USING  96 RADIAL POINTS:
 SMALLEST GAUSSIAN PRIMITIVE EXPONENT=        0.1001940000 OF TYPE -P-
 ON ATOM NUMBER   1 HAS RADIAL NORMALIZATION=  1.000000
  LARGEST GAUSSIAN PRIMITIVE EXPONENT=    49299.4000000000 OF TYPE -S-
 ON ATOM NUMBER   1 HAS RADIAL NORMALIZATION=  1.000000
 DFT IS SWITCHED OFF, PERFORMING PURE SCF UNTIL SWOFF THRESHOLD IS REACHED.

 ITER EX DEM     TOTAL ENERGY        E CHANGE  DENSITY CHANGE    DIIS ERROR
   1  0  0     -546.0887508913  -546.0887508913   0.609411917   1.030947096
          * * *   INITIATING DIIS PROCEDURE   * * *
   2  1  0     -546.8952603514    -0.8065094600   0.439699354   0.243207737
   3  2  0     -546.9894145463    -0.0941541949   0.162744248   0.183145254
   4  3  0     -547.1040707799    -0.1146562335   0.024743945   0.013361023
   5  4  0     -547.1049303935    -0.0008596136   0.011542717   0.003136363
   6  5  0     -547.1050464062    -0.0001160127   0.003432120   0.001017047
 CONVERGED TO SWOFF, SO DFT CALCULATION IS NOW SWITCHED ON.
          * * *   INITIATING DIIS PROCEDURE   * * *
   7  6  0     -548.2350815868    -1.1300351806   0.314570422   0.098430438
   8  7  0     -548.2473285820    -0.0122469953   0.262520934   0.079719256
   9  8  0     -548.2444525941     0.0028759879   0.102138199   0.081698390
  10  9  0     -548.2686368737    -0.0241842795   0.021570915   0.010749044
  11 10  0     -548.2690533511    -0.0004164774   0.000950016   0.000723571
  12 11  0     -548.2690547322    -0.0000013812   0.000309087   0.000186655
  13 12  0     -548.2690548275    -0.0000000953   0.000034954   0.000019637
 DFT CODE IS SWITCHING BACK TO THE FINE GRID
          * * *   INITIATING DIIS PROCEDURE   * * *
  14 13  0     -548.2455813665     0.0234734609   0.014343031   0.009010706
  15 14  0     -548.2458182493    -0.0002368828   0.002523990   0.001582234
  16 15  0     -548.2458223786    -0.0000041293   0.002348119   0.001533237
  17 16  0     -548.2458253004    -0.0000029218   0.001435688   0.000847693
  18 17  0     -548.2458282292    -0.0000029288   0.000648258   0.000624244
  19 18  0     -548.2458292865    -0.0000010573   0.000182930   0.000099457
  20 19  0     -548.2458293401    -0.0000000536   0.000021589   0.000007685
  21 20  0     -548.2458293403    -0.0000000001   0.000003194   0.000001790
  22 21  0     -548.2458293403    -0.0000000000   0.000000109   0.000000127

          -----------------
          DENSITY CONVERGED
          -----------------
     TIME TO FORM FOCK OPERATORS=       2.6 SECONDS (       0.1 SEC/ITER)
     TIME TO SOLVE SCF EQUATIONS=       0.0 SECONDS (       0.0 SEC/ITER)

 FINAL R-PBE ENERGY IS     -548.2458293403 AFTER  22 ITERATIONS
 DFT EXCHANGE + CORRELATION ENERGY =       -42.5365728555
 TOTAL ELECTRON NUMBER             =        31.9999963425

          ------------
          EIGENVECTORS
          ------------

                      1          2          3          4          5
                  -88.2221   -18.8011   -18.8011    -7.8394    -5.8655
                     A          A          A          A          A   
    1  S  1  S    0.997749  -0.000030  -0.000000  -0.308353  -0.000000
    2  S  1  S    0.008336   0.000128   0.000001   1.031539   0.000000
    3  S  1  S   -0.003363   0.000443   0.000002   0.028310  -0.000000
    4  S  1  S    0.000530   0.008640   0.000047  -0.005496  -0.000000
    5  S  1  X   -0.000000  -0.000001   0.000104  -0.000000   0.994366
    6  S  1  Y    0.000175  -0.000119  -0.000001   0.012011  -0.000001
    7  S  1  Z    0.000000   0.000000   0.000000   0.000000   0.000000
    8  S  1  X    0.000000  -0.000007   0.001184   0.000000   0.017901
    9  S  1  Y   -0.000584   0.001686   0.000009   0.001461  -0.000000
   10  S  1  Z    0.000000   0.000000   0.000000   0.000000   0.000000
   11  S  1  X    0.000000  -0.000021   0.003860   0.000000  -0.002467
   12  S  1  Y   -0.000046   0.003334   0.000018  -0.000230  -0.000000
   13  S  1  Z    0.000000   0.000000   0.000000   0.000000   0.000000
   14  S  1 XX   -0.000366   0.000045   0.000000   0.000842  -0.000000
   15  S  1 YY    0.000080   0.000312   0.000002  -0.000346  -0.000000
   16  S  1 ZZ    0.000286  -0.000357  -0.000002  -0.000496   0.000000
   17  S  1 XY    0.000000   0.000003  -0.000540  -0.000000   0.001627
   18  S  1 XZ    0.000000   0.000000   0.000000   0.000000   0.000000
   19  S  1 YZ    0.000000   0.000000   0.000000   0.000000   0.000000
   20  O  2  S   -0.000024   0.698471   0.706090  -0.000156  -0.000529
   21  O  2  S   -0.000188   0.024135   0.023945  -0.000151   0.000233
   22  O  2  S    0.000728  -0.012940  -0.010954  -0.000524  -0.001133
   23  O  2  X   -0.000102  -0.000957  -0.001023   0.000055  -0.000734
   24  O  2  Y   -0.000057  -0.000392  -0.000641   0.000028  -0.000458
   25  O  2  Z    0.000000   0.000000   0.000000   0.000000   0.000000
   26  O  2  X   -0.000557   0.003172   0.001501   0.000918   0.001010
   27  O  2  Y   -0.000329   0.000808   0.001561   0.000611   0.000704
   28  O  2  Z    0.000000   0.000000   0.000000   0.000000   0.000000
   29  O  2 XX    0.000193  -0.000307   0.000022   0.000239   0.000654
   30  O  2 YY   -0.000026   0.000170  -0.000118  -0.000079  -0.000048
   31  O  2 ZZ   -0.000167   0.000137   0.000096  -0.000160  -0.000606
   32  O  2 XY    0.000250  -0.000165  -0.000099   0.000229   0.000938
   33  O  2 XZ    0.000000   0.000000   0.000000   0.000000   0.000000
   34  O  2 YZ    0.000000   0.000000   0.000000   0.000000   0.000000
   35  O  3  S   -0.000024   0.706123  -0.698438  -0.000156   0.000529
   36  O  3  S   -0.000188   0.024395  -0.023680  -0.000151  -0.000233
   37  O  3  S    0.000728  -0.013059   0.010812  -0.000524   0.001133
   38  O  3  X    0.000102   0.000968  -0.001013  -0.000055  -0.000734
   39  O  3  Y   -0.000057  -0.000399   0.000636   0.000028   0.000458
   40  O  3  Z    0.000000   0.000000   0.000000   0.000000   0.000000
   41  O  3  X    0.000557  -0.003188   0.001466  -0.000918   0.001010
   42  O  3  Y   -0.000329   0.000825  -0.001552   0.000611  -0.000704
   43  O  3  Z    0.000000   0.000000   0.000000   0.000000   0.000000
   44  O  3 XX    0.000193  -0.000307  -0.000026   0.000239  -0.000654
   45  O  3 YY   -0.000026   0.000169   0.000120  -0.000079   0.000048
   46  O  3 ZZ   -0.000167   0.000138  -0.000094  -0.000160   0.000606
   47  O  3 XY   -0.000250   0.000167  -0.000098  -0.000229   0.000938
   48  O  3 XZ    0.000000   0.000000   0.000000   0.000000   0.000000
   49  O  3 YZ    0.000000   0.000000   0.000000   0.000000   0.000000

                      6          7          8          9         10
                   -5.8643    -5.8587    -1.0614    -0.9734    -0.5790
                     A          A          A          A          A   
    1  S  1  S    0.000000   0.003810   0.052233  -0.000000   0.064427
    2  S  1  S    0.000000  -0.013147  -0.319476  -0.000000  -0.413201
    3  S  1  S    0.000000   0.000178   0.442978  -0.000000   0.643601
    4  S  1  S    0.000000   0.001178   0.056388   0.000005   0.223193
    5  S  1  X    0.000000   0.000001  -0.000000   0.140303   0.000000
    6  S  1  Y    0.000000   0.994766  -0.066039  -0.000000   0.049126
    7  S  1  Z    0.994911   0.000000   0.000000   0.000000   0.000000
    8  S  1  X    0.000000   0.000000   0.000001  -0.313899  -0.000001
    9  S  1  Y    0.000000   0.016283   0.140517   0.000001  -0.115922
   10  S  1  Z    0.016098   0.000000   0.000000   0.000000   0.000000
   11  S  1  X    0.000000   0.000000   0.000002   0.013541  -0.000001
   12  S  1  Y    0.000000  -0.002565  -0.019057   0.000002  -0.050296
   13  S  1  Z   -0.003041   0.000000   0.000000   0.000000   0.000000
   14  S  1 XX    0.000000  -0.000370   0.049061   0.000001  -0.011630
   15  S  1 YY    0.000000   0.001032  -0.009864  -0.000000  -0.008914
   16  S  1 ZZ    0.000000  -0.000662  -0.039197  -0.000001   0.020545
   17  S  1 XY    0.000000   0.000000   0.000001  -0.086679  -0.000000
   18  S  1 XZ   -0.000000   0.000000   0.000000   0.000000   0.000000
   19  S  1 YZ    0.000831   0.000000   0.000000   0.000000   0.000000
   20  O  2  S    0.000000  -0.000312  -0.134600   0.160079   0.112857
   21  O  2  S    0.000000   0.000266   0.273006  -0.331005  -0.240568
   22  O  2  S    0.000000  -0.000646   0.229674  -0.272865  -0.317972
   23  O  2  X    0.000000  -0.000562  -0.110110   0.096871  -0.137087
   24  O  2  Y    0.000000  -0.000316  -0.056350   0.062457  -0.110886
   25  O  2  Z   -0.000002   0.000000   0.000000   0.000000   0.000000
   26  O  2  X    0.000000   0.000723  -0.030346   0.012269  -0.065563
   27  O  2  Y    0.000000  -0.000055  -0.013553   0.009398  -0.047878
   28  O  2  Z   -0.000263   0.000000   0.000000   0.000000   0.000000
   29  O  2 XX    0.000000   0.000456   0.010281  -0.003968   0.004016
   30  O  2 YY    0.000000  -0.000072  -0.004525   0.000704   0.001600
   31  O  2 ZZ    0.000000  -0.000384  -0.005756   0.003264  -0.005616
   32  O  2 XY    0.000000   0.000648   0.010144  -0.008527   0.008344
   33  O  2 XZ    0.000003   0.000000   0.000000   0.000000   0.000000
   34  O  2 YZ   -0.000028   0.000000   0.000000   0.000000   0.000000
   35  O  3  S    0.000000  -0.000312  -0.134600  -0.160078   0.112858
   36  O  3  S    0.000000   0.000266   0.273006   0.331006  -0.240569
   37  O  3  S    0.000000  -0.000646   0.229679   0.272856  -0.317975
   38  O  3  X    0.000000   0.000562   0.110111   0.096871   0.137087
   39  O  3  Y    0.000000  -0.000316  -0.056350  -0.062457  -0.110886
   40  O  3  Z   -0.000002   0.000000   0.000000   0.000000   0.000000
   41  O  3  X    0.000000  -0.000723   0.030348   0.012265   0.065563
   42  O  3  Y    0.000000  -0.000055  -0.013554  -0.009397  -0.047877
   43  O  3  Z   -0.000263   0.000000   0.000000   0.000000   0.000000
   44  O  3 XX    0.000000   0.000456   0.010281   0.003968   0.004016
   45  O  3 YY    0.000000  -0.000072  -0.004526  -0.000704   0.001600
   46  O  3 ZZ    0.000000  -0.000384  -0.005756  -0.003264  -0.005616
   47  O  3 XY    0.000000  -0.000648  -0.010145  -0.008527  -0.008344
   48  O  3 XZ   -0.000003   0.000000   0.000000   0.000000   0.000000
   49  O  3 YZ   -0.000028   0.000000   0.000000   0.000000   0.000000

                     11         12         13         14         15
                   -0.4522    -0.4427    -0.4421    -0.3372    -0.3123
                     A          A          A          A          A   
    1  S  1  S    0.000000  -0.000000  -0.007539   0.000000   0.000000
    2  S  1  S    0.000000   0.000001   0.047540   0.000000  -0.000000
    3  S  1  S    0.000000  -0.000001  -0.047557   0.000000  -0.000000
    4  S  1  S    0.000000  -0.000003  -0.156957   0.000000   0.000005
    5  S  1  X    0.000000  -0.174647   0.000003   0.000000  -0.012878
    6  S  1  Y    0.000000  -0.000004  -0.200576   0.000000   0.000000
    7  S  1  Z   -0.214025   0.000000   0.000000  -0.000000   0.000000
    8  S  1  X    0.000000   0.475195  -0.000009   0.000000   0.029142
    9  S  1  Y    0.000000   0.000010   0.532156   0.000000  -0.000001
   10  S  1  Z    0.570818   0.000000   0.000000   0.000000   0.000000
   11  S  1  X    0.000000  -0.016380   0.000001   0.000000   0.109464
   12  S  1  Y    0.000000   0.000002   0.080574   0.000000   0.000001
   13  S  1  Z    0.122477   0.000000   0.000000   0.000000   0.000000
   14  S  1 XX    0.000000  -0.000001  -0.052342   0.000000  -0.000000
   15  S  1 YY    0.000000   0.000001   0.069949   0.000000   0.000000
   16  S  1 ZZ    0.000000  -0.000000  -0.017607   0.000000  -0.000000
   17  S  1 XY    0.000000   0.047074  -0.000001   0.000000  -0.125147
   18  S  1 XZ   -0.000000   0.000000   0.000000   0.133132   0.000000
   19  S  1 YZ    0.055020   0.000000   0.000000  -0.000000   0.000000
   20  O  2  S    0.000000   0.074804   0.033647   0.000000   0.000565
   21  O  2  S    0.000000  -0.155223  -0.070460   0.000000  -0.002124
   22  O  2  S    0.000000  -0.271524  -0.114157   0.000000  -0.020372
   23  O  2  X    0.000000  -0.278841  -0.286079   0.000000   0.340284
   24  O  2  Y    0.000000  -0.253422   0.155461   0.000000  -0.326646
   25  O  2  Z    0.308015   0.000000   0.000000   0.463843   0.000000
   26  O  2  X    0.000000  -0.122560  -0.161251   0.000000   0.214591
   27  O  2  Y    0.000000  -0.129676   0.100629   0.000000  -0.232499
   28  O  2  Z    0.179454   0.000000   0.000000   0.324788   0.000000
   29  O  2 XX    0.000000   0.004243   0.020742   0.000000  -0.016640
   30  O  2 YY    0.000000   0.004457  -0.014882   0.000000   0.017372
   31  O  2 ZZ    0.000000  -0.008700  -0.005860   0.000000  -0.000732
   32  O  2 XY    0.000000   0.014826  -0.002498   0.000000   0.010445
   33  O  2 XZ   -0.020565   0.000000   0.000000  -0.018432   0.000000
   34  O  2 YZ   -0.011049   0.000000   0.000000  -0.011550   0.000000
   35  O  3  S    0.000000  -0.074803   0.033650   0.000000  -0.000564
   36  O  3  S    0.000000   0.155219  -0.070467   0.000000   0.002124
   37  O  3  S    0.000000   0.271520  -0.114166   0.000000   0.020369
   38  O  3  X    0.000000  -0.278829   0.286091   0.000000   0.340282
   39  O  3  Y    0.000000   0.253429   0.155451   0.000000   0.326648
   40  O  3  Z    0.308016   0.000000   0.000000  -0.463842   0.000000
   41  O  3  X    0.000000  -0.122552   0.161257   0.000000   0.214589
   42  O  3  Y    0.000000   0.129680   0.100624   0.000000   0.232500
   43  O  3  Z    0.179455   0.000000   0.000000  -0.324787   0.000000
   44  O  3 XX    0.000000  -0.004242   0.020742   0.000000   0.016640
   45  O  3 YY    0.000000  -0.004457  -0.014882   0.000000  -0.017372
   46  O  3 ZZ    0.000000   0.008700  -0.005860   0.000000   0.000732
   47  O  3 XY    0.000000   0.014826   0.002498   0.000000   0.010446
   48  O  3 XZ    0.020565   0.000000   0.000000  -0.018432   0.000000
   49  O  3 YZ   -0.011049   0.000000   0.000000   0.011550   0.000000

                     16         17         18         19         20
                   -0.2854    -0.1598     0.0150     0.0453     0.2044
                     A          A          A          A          A   
    1  S  1  S    0.022276   0.000000   0.024122   0.000000   0.000000
    2  S  1  S   -0.144628   0.000000  -0.162628  -0.000002   0.000000
    3  S  1  S    0.171774   0.000000   0.185252   0.000001   0.000000
    4  S  1  S    0.478346   0.000000   0.890960   0.000009   0.000000
    5  S  1  X    0.000000   0.000000   0.000002  -0.150537   0.000000
    6  S  1  Y    0.117292   0.000000  -0.160253  -0.000002   0.000000
    7  S  1  Z    0.000000  -0.227826   0.000000   0.000000   0.245860
    8  S  1  X   -0.000000   0.000000  -0.000004   0.470115   0.000000
    9  S  1  Y   -0.321418   0.000000   0.522691   0.000006   0.000000
   10  S  1  Z    0.000000   0.683445   0.000000   0.000000  -0.968247
   11  S  1  X   -0.000000   0.000000  -0.000021   1.116200   0.000000
   12  S  1  Y   -0.034072   0.000000   0.777966   0.000012   0.000000
   13  S  1  Z    0.000000   0.346093   0.000000   0.000000   1.305850
   14  S  1 XX   -0.157957   0.000000  -0.155829  -0.000004   0.000000
   15  S  1 YY    0.090648   0.000000  -0.060977  -0.000001   0.000000
   16  S  1 ZZ    0.067309   0.000000   0.216806   0.000005   0.000000
   17  S  1 XY    0.000001   0.000000   0.000004  -0.221697   0.000000
   18  S  1 XZ    0.000000  -0.000000   0.000000   0.000000   0.000000
   19  S  1 YZ    0.000000  -0.073586   0.000000   0.000000  -0.097487
   20  O  2  S    0.004159   0.000000   0.059206   0.057021   0.000000
   21  O  2  S   -0.010581   0.000000  -0.122809  -0.108267   0.000000
   22  O  2  S   -0.051270   0.000000  -0.512453  -0.571936   0.000000
   23  O  2  X    0.077092   0.000000   0.323471   0.036952   0.000000
   24  O  2  Y    0.413610   0.000000  -0.057648   0.258933   0.000000
   25  O  2  Z    0.000000  -0.384961   0.000000   0.000000  -0.023568
   26  O  2  X    0.039726   0.000000   0.372365   0.042599   0.000000
   27  O  2  Y    0.295817   0.000000  -0.070051   0.259518   0.000000
   28  O  2  Z    0.000000  -0.334142   0.000000   0.000000  -0.115093
   29  O  2 XX    0.001787   0.000000   0.000605  -0.001006   0.000000
   30  O  2 YY   -0.005778   0.000000  -0.006732   0.004368   0.000000
   31  O  2 ZZ    0.003991   0.000000   0.006126  -0.003362   0.000000
   32  O  2 XY   -0.011418   0.000000  -0.002514   0.002510   0.000000
   33  O  2 XZ    0.000000   0.002949   0.000000   0.000000   0.021017
   34  O  2 YZ    0.000000  -0.000381   0.000000   0.000000   0.009119
   35  O  3  S    0.004160   0.000000   0.059208  -0.057018   0.000000
   36  O  3  S   -0.010581   0.000000  -0.122816   0.108256   0.000000
   37  O  3  S   -0.051270   0.000000  -0.512469   0.571932   0.000000
   38  O  3  X   -0.077094   0.000000  -0.323474   0.036939   0.000000
   39  O  3  Y    0.413608   0.000000  -0.057641  -0.258935   0.000000
   40  O  3  Z    0.000000  -0.384961   0.000000   0.000000  -0.023568
   41  O  3  X   -0.039727   0.000000  -0.372362   0.042594   0.000000
   42  O  3  Y    0.295816   0.000000  -0.070044  -0.259523   0.000000
   43  O  3  Z    0.000000  -0.334142   0.000000   0.000000  -0.115093
   44  O  3 XX    0.001787   0.000000   0.000605   0.001006   0.000000
   45  O  3 YY   -0.005778   0.000000  -0.006732  -0.004369   0.000000
   46  O  3 ZZ    0.003991   0.000000   0.006126   0.003362   0.000000
   47  O  3 XY    0.011418   0.000000   0.002513   0.002509   0.000000
   48  O  3 XZ    0.000000  -0.002949   0.000000   0.000000  -0.021017
   49  O  3 YZ    0.000000  -0.000381   0.000000   0.000000   0.009119

                     21         22         23         24         25
                    0.2230     0.2721     0.3106     0.5233     0.5420
                     A          A          A          A          A   
    1  S  1  S    0.032218  -0.062690  -0.000000   0.000000   0.003351
    2  S  1  S   -0.236380   0.456980   0.000003   0.000000  -0.024473
    3  S  1  S    0.874701  -1.692014  -0.000013   0.000000   0.048476
    4  S  1  S   -1.018040   1.994295   0.000006   0.000000   0.218041
    5  S  1  X    0.000000  -0.000003   0.283054   0.000000  -0.000000
    6  S  1  Y    0.241006   0.116132   0.000001   0.000000   0.000238
    7  S  1  Z    0.000000   0.000000   0.000000   0.022529   0.000000
    8  S  1  X   -0.000001   0.000012  -1.071234   0.000000   0.000002
    9  S  1  Y   -0.947012  -0.414211  -0.000004   0.000000  -0.003696
   10  S  1  Z    0.000000   0.000000   0.000000  -0.105357   0.000000
   11  S  1  X    0.000001  -0.000006   1.290944   0.000000   0.000001
   12  S  1  Y    1.030199   0.776073   0.000003   0.000000   0.174424
   13  S  1  Z    0.000000   0.000000   0.000000   0.140344   0.000000
   14  S  1 XX    0.134918   0.188413  -0.000001   0.000000  -0.160703
   15  S  1 YY   -0.077672  -0.097373  -0.000001   0.000000   0.861928
   16  S  1 ZZ   -0.057246  -0.091040   0.000002   0.000000  -0.701224
   17  S  1 XY    0.000000   0.000001   0.344343   0.000000   0.000001
   18  S  1 XZ    0.000000   0.000000   0.000000  -0.000001   0.000000
   19  S  1 YZ    0.000000   0.000000   0.000000   0.944149   0.000000
   20  O  2  S   -0.008402   0.014217   0.001252   0.000000   0.017879
   21  O  2  S    0.041098   0.023930   0.061598   0.000000  -0.071405
   22  O  2  S    0.025608  -0.535904  -0.374180   0.000000  -0.096988
   23  O  2  X   -0.057422  -0.228286  -0.221457   0.000000   0.146422
   24  O  2  Y    0.011716  -0.124123  -0.161841   0.000000  -0.265935
   25  O  2  Z    0.000000   0.000000   0.000000  -0.251036   0.000000
   26  O  2  X   -0.067443   0.082816  -0.085712   0.000000   0.073422
   27  O  2  Y   -0.097817  -0.002281  -0.034817   0.000000   0.120598
   28  O  2  Z    0.000000   0.000000   0.000000   0.050139   0.000000
   29  O  2 XX   -0.014689  -0.040468  -0.012467   0.000000   0.031571
   30  O  2 YY    0.016267   0.015147  -0.012548   0.000000  -0.008087
   31  O  2 ZZ   -0.001578   0.025321   0.025015   0.000000  -0.023484
   32  O  2 XY    0.012544  -0.028660  -0.041191   0.000000  -0.037879
   33  O  2 XZ    0.000000   0.000000   0.000000  -0.041646   0.000000
   34  O  2 YZ    0.000000   0.000000   0.000000   0.014299   0.000000
   35  O  3  S   -0.008402   0.014217  -0.001251   0.000000   0.017879
   36  O  3  S    0.041098   0.023924  -0.061604   0.000000  -0.071406
   37  O  3  S    0.025608  -0.535894   0.374187   0.000000  -0.096984
   38  O  3  X    0.057422   0.228285  -0.221458   0.000000  -0.146423
   39  O  3  Y    0.011716  -0.124125   0.161839   0.000000  -0.265935
   40  O  3  Z    0.000000   0.000000   0.000000  -0.251037   0.000000
   41  O  3  X    0.067443  -0.082804  -0.085704   0.000000  -0.073419
   42  O  3  Y   -0.097817  -0.002286   0.034814   0.000000   0.120597
   43  O  3  Z    0.000000   0.000000   0.000000   0.050140   0.000000
   44  O  3 XX   -0.014689  -0.040468   0.012467   0.000000   0.031571
   45  O  3 YY    0.016267   0.015147   0.012548   0.000000  -0.008087
   46  O  3 ZZ   -0.001578   0.025321  -0.025015   0.000000  -0.023484
   47  O  3 XY   -0.012544   0.028660  -0.041191   0.000000   0.037879
   48  O  3 XZ    0.000000   0.000000   0.000000   0.041646   0.000000
   49  O  3 YZ    0.000000   0.000000   0.000000   0.014299   0.000000

                     26         27         28         29         30
                    0.5536     0.6397     0.6607     0.7758     0.8020
                     A          A          A          A          A   
    1  S  1  S    0.000000   0.022253  -0.000000   0.000000   0.007043
    2  S  1  S    0.000000  -0.179076   0.000001   0.000000  -0.058626
    3  S  1  S    0.000000   0.775655  -0.000004   0.000000   0.314701
    4  S  1  S    0.000000   0.858883  -0.000015   0.000000   0.020926
    5  S  1  X    0.000000  -0.000001  -0.186752   0.000000  -0.000000
    6  S  1  Y    0.000000  -0.108579   0.000001   0.000000  -0.019794
    7  S  1  Z    0.000000   0.000000   0.000000  -0.000000   0.000000
    8  S  1  X    0.000000   0.000010   1.071216   0.000000   0.000001
    9  S  1  Y    0.000000   0.625779  -0.000005   0.000000   0.100054
   10  S  1  Z   -0.000000   0.000000   0.000000   0.000000   0.000000
   11  S  1  X    0.000000   0.000005   0.049431   0.000000  -0.000000
   12  S  1  Y    0.000000   0.106578  -0.000003   0.000000  -0.574874
   13  S  1  Z    0.000000   0.000000   0.000000  -0.000000   0.000000
   14  S  1 XX    0.000000   0.569548  -0.000003   0.000000   0.385572
   15  S  1 YY    0.000000  -0.127659   0.000000   0.000000  -0.472786
   16  S  1 ZZ    0.000000  -0.441889   0.000003   0.000000   0.087214
   17  S  1 XY    0.000000   0.000005   0.561485   0.000000  -0.000000
   18  S  1 XZ    0.911324   0.000000   0.000000   0.449987   0.000000
   19  S  1 YZ    0.000001   0.000000   0.000000  -0.000000   0.000000
   20  O  2  S    0.000000   0.065521   0.065687   0.000000  -0.002133
   21  O  2  S    0.000000  -0.169354  -0.183502   0.000000   0.074300
   22  O  2  S    0.000000  -0.537767  -0.456372   0.000000  -0.086358
   23  O  2  X    0.000000  -0.335531  -0.151876   0.000000   0.224486
   24  O  2  Y    0.000000   0.037907  -0.242041   0.000000  -0.484237
   25  O  2  Z   -0.345804   0.000000   0.000000   0.559930   0.000000
   26  O  2  X    0.000000   0.989116   0.901156   0.000000  -0.196310
   27  O  2  Y    0.000000   0.390591   0.641937   0.000000   0.892542
   28  O  2  Z    0.050028   0.000000   0.000000  -0.810599   0.000000
   29  O  2 XX    0.000000  -0.001262   0.021503   0.000000  -0.027542
   30  O  2 YY    0.000000   0.012765  -0.010807   0.000000   0.034117
   31  O  2 ZZ    0.000000  -0.011503  -0.010697   0.000000  -0.006575
   32  O  2 XY    0.000000   0.016107   0.019009   0.000000   0.040668
   33  O  2 XZ   -0.040552   0.000000   0.000000  -0.044862   0.000000
   34  O  2 YZ   -0.045819   0.000000   0.000000  -0.031915   0.000000
   35  O  3  S    0.000000   0.065520  -0.065688   0.000000  -0.002134
   36  O  3  S    0.000000  -0.169356   0.183504   0.000000   0.074301
   37  O  3  S    0.000000  -0.537749   0.456387   0.000000  -0.086359
   38  O  3  X    0.000000   0.335521  -0.151885   0.000000  -0.224486
   39  O  3  Y    0.000000   0.037909   0.242045   0.000000  -0.484235
   40  O  3  Z    0.345803   0.000000   0.000000  -0.559930   0.000000
   41  O  3  X    0.000000  -0.989091   0.901178   0.000000   0.196310
   42  O  3  Y    0.000000   0.390582  -0.641948   0.000000   0.892540
   43  O  3  Z   -0.050028   0.000000   0.000000   0.810600   0.000000
   44  O  3 XX    0.000000  -0.001262  -0.021503   0.000000  -0.027542
   45  O  3 YY    0.000000   0.012765   0.010807   0.000000   0.034117
   46  O  3 ZZ    0.000000  -0.011503   0.010697   0.000000  -0.006575
   47  O  3 XY    0.000000  -0.016107   0.019009   0.000000  -0.040668
   48  O  3 XZ   -0.040552   0.000000   0.000000  -0.044862   0.000000
   49  O  3 YZ    0.045819   0.000000   0.000000   0.031915   0.000000

                     31         32         33         34         35
                    0.8533     0.8624     0.9439     1.0776     1.4095
                     A          A          A          A          A   
    1  S  1  S    0.000000  -0.000000   0.006088  -0.000000  -0.000000
    2  S  1  S    0.000000   0.000000  -0.028302   0.000000   0.000001
    3  S  1  S    0.000000   0.000001  -0.337293   0.000001  -0.000005
    4  S  1  S    0.000000  -0.000001   0.408028  -0.000014  -0.000007
    5  S  1  X    0.000000   0.044738   0.000000  -0.122562   0.052805
    6  S  1  Y    0.000000   0.000000  -0.071731   0.000000   0.000000
    7  S  1  Z    0.003849   0.000000   0.000000   0.000000   0.000000
    8  S  1  X    0.000000  -0.232980  -0.000000   0.352909  -0.535201
    9  S  1  Y    0.000000  -0.000001   0.188984  -0.000003  -0.000002
   10  S  1  Z   -0.060308   0.000000   0.000000   0.000000   0.000000
   11  S  1  X    0.000000   0.377962   0.000006   0.437503  -0.930404
   12  S  1  Y    0.000000   0.000001   0.061604  -0.000005  -0.000003
   13  S  1  Z   -0.646324   0.000000   0.000000   0.000000   0.000000
   14  S  1 XX    0.000000  -0.000004   0.843774  -0.000002   0.000002
   15  S  1 YY    0.000000   0.000001  -0.196210  -0.000000  -0.000001
   16  S  1 ZZ    0.000000   0.000002  -0.647564   0.000003  -0.000001
   17  S  1 XY    0.000000  -0.297916  -0.000001   0.910937  -0.117087
   18  S  1 XZ   -0.000000   0.000000   0.000000   0.000000   0.000000
   19  S  1 YZ   -0.342301   0.000000   0.000000   0.000000   0.000000
   20  O  2  S    0.000000   0.000715   0.035270   0.031814   0.081218
   21  O  2  S    0.000000  -0.069802  -0.182105  -0.054514  -1.255547
   22  O  2  S    0.000000   0.101036  -0.172359  -0.491918   1.946611
   23  O  2  X    0.000000   0.275510   0.456393   0.605839   0.007388
   24  O  2  Y    0.000000  -0.542575   0.358426   0.193051   0.086077
   25  O  2  Z   -0.595610   0.000000   0.000000   0.000000   0.000000
   26  O  2  X    0.000000  -0.627000  -0.308779  -0.308585  -0.329312
   27  O  2  Y    0.000000   0.641616  -0.152069  -0.037885  -0.438748
   28  O  2  Z    0.952875   0.000000   0.000000   0.000000   0.000000
   29  O  2 XX    0.000000  -0.049741  -0.047909   0.045901  -0.055106
   30  O  2 YY    0.000000   0.033494   0.067153  -0.068020  -0.026928
   31  O  2 ZZ    0.000000   0.016246  -0.019244   0.022119   0.082033
   32  O  2 XY    0.000000   0.011721  -0.001242   0.006797  -0.108508
   33  O  2 XZ    0.047176   0.000000   0.000000   0.000000   0.000000
   34  O  2 YZ    0.015531   0.000000   0.000000   0.000000   0.000000
   35  O  3  S    0.000000  -0.000714   0.035271  -0.031813  -0.081217
   36  O  3  S    0.000000   0.069794  -0.182117   0.054492   1.255525
   37  O  3  S    0.000000  -0.101026  -0.172343   0.491952  -1.946582
   38  O  3  X    0.000000   0.275518  -0.456386   0.605842   0.007385
   39  O  3  Y    0.000000   0.542572   0.358430  -0.193054  -0.086076
   40  O  3  Z   -0.595609   0.000000   0.000000   0.000000   0.000000
   41  O  3  X    0.000000  -0.627008   0.308769  -0.308580  -0.329303
   42  O  3  Y    0.000000  -0.641615  -0.152076   0.037885   0.438746
   43  O  3  Z    0.952874   0.000000   0.000000   0.000000   0.000000
   44  O  3 XX    0.000000   0.049741  -0.047908  -0.045901   0.055103
   45  O  3 YY    0.000000  -0.033495   0.067152   0.068020   0.026930
   46  O  3 ZZ    0.000000  -0.016246  -0.019244  -0.022119  -0.082033
   47  O  3 XY    0.000000   0.011721   0.001242   0.006797  -0.108506
   48  O  3 XZ   -0.047176   0.000000   0.000000   0.000000   0.000000
   49  O  3 YZ    0.015531   0.000000   0.000000   0.000000   0.000000

                     36         37         38         39         40
                    1.5077     2.0564     2.0623     2.0662     2.0854
                     A          A          A          A          A   
    1  S  1  S   -0.002560   0.000000  -0.000000   0.000000  -0.000413
    2  S  1  S    0.031328   0.000000   0.000000   0.000000   0.005448
    3  S  1  S    0.010488   0.000000  -0.000001   0.000000  -0.045247
    4  S  1  S   -2.042704   0.000000   0.000001   0.000000  -0.015836
    5  S  1  X    0.000000   0.000000  -0.007036   0.000000   0.000000
    6  S  1  Y    0.061550   0.000000  -0.000000   0.000000   0.002392
    7  S  1  Z    0.000000  -0.000000   0.000000  -0.023457   0.000000
    8  S  1  X    0.000003   0.000000   0.003274   0.000000   0.000000
    9  S  1  Y   -0.453128   0.000000  -0.000000   0.000000  -0.024882
   10  S  1  Z    0.000000   0.000001   0.000000   0.091103   0.000000
   11  S  1  X   -0.000002   0.000000   0.028198   0.000000  -0.000001
   12  S  1  Y   -0.782086   0.000000   0.000001   0.000000  -0.007652
   13  S  1  Z    0.000000  -0.000000   0.000000   0.004614   0.000000
   14  S  1 XX   -0.252928   0.000000   0.000000   0.000000   0.062423
   15  S  1 YY   -0.041454   0.000000   0.000000   0.000000   0.069226
   16  S  1 ZZ    0.294382   0.000000  -0.000001   0.000000  -0.131649
   17  S  1 XY   -0.000006   0.000000  -0.025719   0.000000   0.000000
   18  S  1 XZ    0.000000   0.032932   0.000000  -0.000000   0.000000
   19  S  1 YZ    0.000000  -0.000000   0.000000  -0.031998   0.000000
   20  O  2  S    0.067010   0.000000   0.001612   0.000000   0.005185
   21  O  2  S   -1.267554   0.000000  -0.024671   0.000000  -0.056519
   22  O  2  S    2.273460   0.000000   0.025773   0.000000   0.051855
   23  O  2  X    0.003422   0.000000   0.036417   0.000000   0.036460
   24  O  2  Y   -0.075194   0.000000  -0.022154   0.000000   0.010210
   25  O  2  Z    0.000000   0.015130   0.000000   0.022793   0.000000
   26  O  2  X   -0.668882   0.000000  -0.067994   0.000000  -0.044011
   27  O  2  Y   -0.103065   0.000000   0.029725   0.000000  -0.007011
   28  O  2  Z    0.000000  -0.024420   0.000000  -0.036902   0.000000
   29  O  2 XX   -0.133442   0.000000   0.323338   0.000000  -0.124389
   30  O  2 YY    0.060915   0.000000   0.269297   0.000000  -0.478572
   31  O  2 ZZ    0.072527   0.000000  -0.592635   0.000000   0.602960
   32  O  2 XY   -0.098570   0.000000  -0.385410   0.000000   0.308076
   33  O  2 XZ    0.000000   0.480437   0.000000  -0.144258   0.000000
   34  O  2 YZ    0.000000  -0.519404   0.000000   0.693524   0.000000
   35  O  3  S    0.067011   0.000000  -0.001612   0.000000   0.005185
   36  O  3  S   -1.267574   0.000000   0.024671   0.000000  -0.056518
   37  O  3  S    2.273479   0.000000  -0.025774   0.000000   0.051855
   38  O  3  X   -0.003431   0.000000   0.036417   0.000000  -0.036460
   39  O  3  Y   -0.075193   0.000000   0.022154   0.000000   0.010210
   40  O  3  Z    0.000000  -0.015130   0.000000   0.022793   0.000000
   41  O  3  X    0.668895   0.000000  -0.067994   0.000000   0.044012
   42  O  3  Y   -0.103067   0.000000  -0.029726   0.000000  -0.007011
   43  O  3  Z    0.000000   0.024419   0.000000  -0.036903   0.000000
   44  O  3 XX   -0.133443   0.000000  -0.323339   0.000000  -0.124386
   45  O  3 YY    0.060913   0.000000  -0.269301   0.000000  -0.478570
   46  O  3 ZZ    0.072530   0.000000   0.592639   0.000000   0.602956
   47  O  3 XY    0.098572   0.000000  -0.385413   0.000000  -0.308073
   48  O  3 XZ    0.000000   0.480440   0.000000   0.144249   0.000000
   49  O  3 YZ    0.000000   0.519417   0.000000   0.693515   0.000000

                     41         42         43         44         45
                    2.1466     2.2353     2.3103     2.4493     2.7586
                     A          A          A          A          A   
    1  S  1  S    0.000000   0.000000   0.000000  -0.002414  -0.039471
    2  S  1  S   -0.000000   0.000000   0.000000   0.024236   0.343600
    3  S  1  S    0.000000   0.000000   0.000000  -0.092992  -1.184203
    4  S  1  S   -0.000001   0.000000   0.000000  -0.253478  -0.939730
    5  S  1  X   -0.038180   0.000000   0.000000  -0.000000  -0.000000
    6  S  1  Y   -0.000000   0.000000   0.000000   0.080016   0.124940
    7  S  1  Z    0.000000   0.073959  -0.000000   0.000000   0.000000
    8  S  1  X    0.206582   0.000000   0.000000   0.000001   0.000001
    9  S  1  Y    0.000000   0.000000   0.000000  -0.360400  -0.815300
   10  S  1  Z    0.000000  -0.287375   0.000000   0.000000   0.000000
   11  S  1  X    0.038084   0.000000   0.000000  -0.000001  -0.000002
   12  S  1  Y   -0.000000   0.000000   0.000000  -0.183227  -0.131676
   13  S  1  Z    0.000000  -0.076435   0.000000   0.000000   0.000000
   14  S  1 XX   -0.000000   0.000000   0.000000   0.421829  -0.605293
   15  S  1 YY    0.000000   0.000000   0.000000  -0.467024   0.156390
   16  S  1 ZZ    0.000000   0.000000   0.000000   0.045195   0.448903
   17  S  1 XY   -0.303375   0.000000   0.000000   0.000000  -0.000001
   18  S  1 XZ    0.000000   0.000001   0.508774   0.000000   0.000000
   19  S  1 YZ    0.000000  -0.317083   0.000000   0.000000   0.000000
   20  O  2  S   -0.009999   0.000000   0.000000   0.009078  -0.001103
   21  O  2  S    0.137334   0.000000   0.000000  -0.194471  -0.545160
   22  O  2  S   -0.151473   0.000000   0.000000   0.332602   1.374038
   23  O  2  X   -0.033210   0.000000   0.000000   0.058456  -0.034422
   24  O  2  Y   -0.086797   0.000000   0.000000  -0.005071  -0.023966
   25  O  2  Z    0.000000  -0.059478   0.035006   0.000000   0.000000
   26  O  2  X    0.008177   0.000000   0.000000  -0.228164  -0.692042
   27  O  2  Y    0.154846   0.000000   0.000000   0.142179  -0.403667
   28  O  2  Z    0.000000   0.179869  -0.163600   0.000000   0.000000
   29  O  2 XX    0.442111   0.000000   0.000000   0.615541   0.451377
   30  O  2 YY   -0.647839   0.000000   0.000000  -0.556946  -0.014166
   31  O  2 ZZ    0.205728   0.000000   0.000000  -0.058596  -0.437211
   32  O  2 XY   -0.281273   0.000000   0.000000  -0.342586   0.663910
   33  O  2 XZ    0.000000  -0.719697   0.555906   0.000000   0.000000
   34  O  2 YZ    0.000000  -0.159792   0.501840   0.000000   0.000000
   35  O  3  S    0.009999   0.000000   0.000000   0.009078  -0.001103
   36  O  3  S   -0.137335   0.000000   0.000000  -0.194471  -0.545162
   37  O  3  S    0.151474   0.000000   0.000000   0.332603   1.374039
   38  O  3  X   -0.033210   0.000000   0.000000  -0.058456   0.034420
   39  O  3  Y    0.086797   0.000000   0.000000  -0.005072  -0.023966
   40  O  3  Z    0.000000  -0.059478  -0.035006   0.000000   0.000000
   41  O  3  X    0.008177   0.000000   0.000000   0.228165   0.692045
   42  O  3  Y   -0.154846   0.000000   0.000000   0.142179  -0.403666
   43  O  3  Z    0.000000   0.179870   0.163600   0.000000   0.000000
   44  O  3 XX   -0.442112   0.000000   0.000000   0.615542   0.451377
   45  O  3 YY    0.647839   0.000000   0.000000  -0.556946  -0.014166
   46  O  3 ZZ   -0.205727   0.000000   0.000000  -0.058597  -0.437212
   47  O  3 XY   -0.281273   0.000000   0.000000   0.342584  -0.663910
   48  O  3 XZ    0.000000   0.719698   0.555905   0.000000   0.000000
   49  O  3 YZ    0.000000  -0.159793  -0.501839   0.000000   0.000000

                     46
                    2.8775
                     A   
    1  S  1  S    0.000000
    2  S  1  S   -0.000000
    3  S  1  S    0.000002
    4  S  1  S   -0.000002
    5  S  1  X   -0.245783
    6  S  1  Y   -0.000000
    7  S  1  Z    0.000000
    8  S  1  X    1.530118
    9  S  1  Y    0.000001
   10  S  1  Z    0.000000
   11  S  1  X    0.148864
   12  S  1  Y   -0.000001
   13  S  1  Z    0.000000
   14  S  1 XX   -0.000001
   15  S  1 YY    0.000001
   16  S  1 ZZ    0.000001
   17  S  1 XY    0.735497
   18  S  1 XZ    0.000000
   19  S  1 YZ    0.000000
   20  O  2  S    0.009117
   21  O  2  S    0.444101
   22  O  2  S   -1.277125
   23  O  2  X    0.083669
   24  O  2  Y    0.047839
   25  O  2  Z    0.000000
   26  O  2  X    0.715837
   27  O  2  Y    0.406188
   28  O  2  Z    0.000000
   29  O  2 XX   -0.581439
   30  O  2 YY    0.178860
   31  O  2 ZZ    0.402579
   32  O  2 XY   -0.639299
   33  O  2 XZ    0.000000
   34  O  2 YZ    0.000000
   35  O  3  S   -0.009117
   36  O  3  S   -0.444099
   37  O  3  S    1.277124
   38  O  3  X    0.083669
   39  O  3  Y   -0.047839
   40  O  3  Z    0.000000
   41  O  3  X    0.715836
   42  O  3  Y   -0.406187
   43  O  3  Z    0.000000
   44  O  3 XX    0.581437
   45  O  3 YY   -0.178859
   46  O  3 ZZ   -0.402578
   47  O  3 XY   -0.639299
   48  O  3 XZ    0.000000
   49  O  3 YZ    0.000000
 ...... END OF RHF CALCULATION ......
 STEP CPU TIME =     2.64 TOTAL CPU TIME =          2.8 (      0.0 MIN)
 TOTAL WALL CLOCK TIME=          2.8 SECONDS, CPU UTILIZATION IS    98.22%

     ---------------------------------------------------------------------
     PROPERTIES FOR THE PBE      DFT FUNCTIONAL (RHF  TYPE) DENSITY MATRIX
     ---------------------------------------------------------------------

          -----------------
          ENERGY COMPONENTS
          -----------------

         WAVEFUNCTION NORMALIZATION =       1.0000000000

                ONE ELECTRON ENERGY =    -967.8373495753
                TWO ELECTRON ENERGY =     312.6793161298
           NUCLEAR REPULSION ENERGY =     106.9122041052
                                      ------------------
                       TOTAL ENERGY =    -548.2458293403

 ELECTRON-ELECTRON POTENTIAL ENERGY =     312.6793161298
  NUCLEUS-ELECTRON POTENTIAL ENERGY =   -1515.4358184410
   NUCLEUS-NUCLEUS POTENTIAL ENERGY =     106.9122041052
                                      ------------------
             TOTAL POTENTIAL ENERGY =   -1095.8442982061
               TOTAL KINETIC ENERGY =     547.5984688658
                 VIRIAL RATIO (V/T) =       2.0011821809

          ---------------------------------------
          MULLIKEN AND LOWDIN POPULATION ANALYSES
          ---------------------------------------

     ATOMIC MULLIKEN POPULATION IN EACH MOLECULAR ORBITAL

                      1          2          3          4          5

                  2.000000   2.000000   2.000000   2.000000   2.000000

    1             1.999909   0.001492   0.000757   2.000976   2.000232
    2             0.000046   0.988365   1.010511  -0.000488  -0.000116
    3             0.000046   1.010143   0.988732  -0.000488  -0.000116

                      6          7          8          9         10

                  2.000000   2.000000   2.000000   2.000000   2.000000

    1             2.000035   2.000081   0.720901   0.457490   0.932114
    2            -0.000017  -0.000040   0.639545   0.771261   0.533941
    3            -0.000017  -0.000040   0.639554   0.771250   0.533945

                     11         12         13         14         15

                  2.000000   2.000000   2.000000   2.000000   2.000000

    1             1.025736   0.411608   0.876633   0.109424   0.155594
    2             0.487131   0.794207   0.561673   0.945289   0.922201
    3             0.487133   0.794185   0.561694   0.945287   0.922204

                     16

                  2.000000

    1             0.690984
    2             0.654511
    3             0.654504

               ----- POPULATIONS IN EACH AO -----
                             MULLIKEN      LOWDIN
              1  S  1  S      1.99980     1.99923
              2  S  1  S      1.99193     1.88226
              3  S  1  S      1.28870     0.64059
              4  S  1  S      0.59210     0.48736
              5  S  1  X      1.99413     1.95804
              6  S  1  Y      1.99513     1.96682
              7  S  1  Z      1.99377     1.95989
              8  S  1  X      0.83191     0.66997
              9  S  1  Y      1.03678     0.94526
             10  S  1  Z      0.84935     0.74872
             11  S  1  X      0.04602     0.19626
             12  S  1  Y      0.10755     0.25887
             13  S  1  Z      0.16576     0.27567
             14  S  1 XX      0.04460     0.34261
             15  S  1 YY      0.16649     0.31261
             16  S  1 ZZ      0.15363     0.28537
             17  S  1 XY      0.10942     0.17346
             18  S  1 XZ      0.01689     0.13230
             19  S  1 YZ      0.00000     0.01636
             20  O  2  S      1.99546     1.97256
             21  O  2  S      0.94671     0.68686
             22  O  2  S      0.90245     0.51589
             23  O  2  X      0.93201     0.89185
             24  O  2  Y      1.06317     1.03348
             25  O  2  Z      0.86210     0.82348
             26  O  2  X      0.42411     0.55852
             27  O  2  Y      0.59639     0.66366
             28  O  2  Z      0.56291     0.59992
             29  O  2 XX      0.00226     0.20832
             30  O  2 YY      0.00673     0.19710
             31  O  2 ZZ      0.00633     0.19941
             32  O  2 XY      0.00554     0.01299
             33  O  2 XZ      0.00185     0.00769
             34  O  2 YZ      0.00000     0.00244
             35  O  3  S      1.99546     1.97256
             36  O  3  S      0.94671     0.68686
             37  O  3  S      0.90245     0.51589
             38  O  3  X      0.93201     0.89185
             39  O  3  Y      1.06317     1.03348
             40  O  3  Z      0.86210     0.82348
             41  O  3  X      0.42411     0.55852
             42  O  3  Y      0.59639     0.66366
             43  O  3  Z      0.56291     0.59992
             44  O  3 XX      0.00226     0.20832
             45  O  3 YY      0.00673     0.19710
             46  O  3 ZZ      0.00633     0.19941
             47  O  3 XY      0.00554     0.01299
             48  O  3 XZ      0.00185     0.00769
             49  O  3 YZ      0.00000     0.00244

          ----- MULLIKEN ATOMIC OVERLAP POPULATIONS -----
          (OFF-DIAGONAL ELEMENTS NEED TO BE MULTIPLIED BY 2)

             1           2           3

    1   14.6570805
    2    0.3634407   7.9769205
    3    0.3634445  -0.0323431   7.9769147

          TOTAL MULLIKEN AND LOWDIN ATOMIC POPULATIONS
       ATOM         MULL.POP.    CHARGE          LOW.POP.     CHARGE
    1 S            15.383966    0.616034        15.251643    0.748357
    2 O             8.308018   -0.308018         8.374179   -0.374179
    3 O             8.308016   -0.308016         8.374178   -0.374178

          MULLIKEN SPHERICAL HARMONIC POPULATIONS
       ATOM           S       P       D      F      G      H      I    TOTAL
    1 S             5.87    9.02    0.49   0.00   0.00   0.00   0.00   15.38
    2 O             3.84    4.44    0.02   0.00   0.00   0.00   0.00    8.31
    3 O             3.84    4.44    0.02   0.00   0.00   0.00   0.00    8.31

          -------------------------------
          BOND ORDER AND VALENCE ANALYSIS     BOND ORDER THRESHOLD=0.050
          -------------------------------

                   BOND                       BOND                       BOND
  ATOM PAIR DIST  ORDER      ATOM PAIR DIST  ORDER      ATOM PAIR DIST  ORDER
    1   2  1.450  1.894        1   3  1.450  1.894        2   3  2.511  0.252

                       TOTAL       BONDED        FREE
      ATOM            VALENCE     VALENCE     VALENCE
    1 S                 3.789       3.789       0.000
    2 O                 2.146       2.146      -0.000
    3 O                 2.146       2.146       0.000

          ---------------------
          ELECTROSTATIC MOMENTS
          ---------------------

 POINT   1           X           Y           Z (BOHR)    CHARGE
                 0.000000    0.000000    0.000000       -0.00 (A.U.)
         DX          DY          DZ         /D/  (DEBYE)
    -0.000004   -1.598000    0.000000    1.598000
 ...... END OF PROPERTY EVALUATION ......
 STEP CPU TIME =     0.01 TOTAL CPU TIME =          2.8 (      0.0 MIN)
 TOTAL WALL CLOCK TIME=          2.8 SECONDS, CPU UTILIZATION IS    98.58%
                580000  WORDS OF DYNAMIC MEMORY USED
 EXECUTION OF GAMESS TERMINATED NORMALLY Sun Sep 29 10:47:20 2019
 DDI: 263640 bytes (0.3 MB / 0 MWords) used by master data server.

 ----------------------------------------
 CPU timing information for all processes
 ========================================
 0: 2.710 + 0.70 = 2.781
 ----------------------------------------
 ddikick.x: exited gracefully.
----- accounting info -----
Files used on the master node crcfe02.crc.nd.edu were:
-rw-r--r-- 1 cdrisko campus     208 Sep 29 10:47 /afs/crc.nd.edu/user/c/cdrisko/SO2.F05
-rw-r--r-- 1 cdrisko campus   37566 Sep 29 10:47 /afs/crc.nd.edu/user/c/cdrisko/SO2.F07
-rw-r--r-- 1 cdrisko campus 4140368 Sep 29 10:47 /afs/crc.nd.edu/user/c/cdrisko/SO2.F08
-rw-r--r-- 1 cdrisko campus 1766880 Sep 29 10:47 /afs/crc.nd.edu/user/c/cdrisko/SO2.F10
Sun Sep 29 10:47:23 EDT 2019
0.356u 0.207s 0:06.36 8.6%	0+0k 0+24io 0pf+0w
