----- GAMESS execution script 'rungms' -----
This job is running on host crcfe02.crc.nd.edu
under operating system Linux at Thu Dec 12 13:18:06 EST 2019
Available scratch disk space (Kbyte units) at beginning of the job is
Filesystem      1K-blocks  Used  Available Use% Mounted on
AFS            2147483647     0 2147483647   0% /afs
GAMESS temporary binary files will be written to /afs/crc.nd.edu/user/c/cdrisko
GAMESS supplementary output files will be written to /afs/crc.nd.edu/user/c/cdrisko/scr
Copying input file acetaldehyde.inp to your run's scratch directory...

 Distributed Data Interface kickoff program.
 Initiating 1 compute processes on 1 nodes to run the following command:
 /afs/crc.nd.edu/x86_64_linux/g/gamess/nov-2017/gamess/gamess.00.x acetaldehyde 

          ******************************************************
          *         GAMESS VERSION = 11 NOV 2017 (R3)         *
          *             FROM IOWA STATE UNIVERSITY             *
          * M.W.SCHMIDT, K.K.BALDRIDGE, J.A.BOATZ, S.T.ELBERT, *
          *   M.S.GORDON, J.H.JENSEN, S.KOSEKI, N.MATSUNAGA,   *
          *          K.A.NGUYEN, S.J.SU, T.L.WINDUS,           *
          *       TOGETHER WITH M.DUPUIS, J.A.MONTGOMERY       *
          *         J.COMPUT.CHEM.  14, 1347-1363(1993)        *
          **************** 64 BIT INTEL VERSION ****************

  SINCE 1993, STUDENTS AND POSTDOCS WORKING AT IOWA STATE UNIVERSITY
  AND ALSO IN THEIR VARIOUS JOBS AFTER LEAVING ISU HAVE MADE IMPORTANT
  CONTRIBUTIONS TO THE CODE:
     IVANA ADAMOVIC, CHRISTINE AIKENS, YURI ALEXEEV, POOJA ARORA,
     ANDREY ASADCHEV, ROB BELL, PRADIPTA BANDYOPADHYAY, JONATHAN BENTZ,
     BRETT BODE, KURT BRORSEN, CALEB CARLIN, GALINA CHABAN, WEI CHEN,
     CHEOL HO CHOI, PAUL DAY, ALBERT DEFUSCO, NUWAN DESILVA, TIM DUDLEY,
     DMITRI FEDOROV, ALEX FINDLATER, GRAHAM FLETCHER, MARK FREITAG,
     KURT GLAESEMANN, ANASTASIA GUININA,
     DAN KEMP, GRANT MERRILL, NORIYUKI MINEZAWA, JONATHAN MULLIN,
     TAKESHI NAGATA, SEAN NEDD, HEATHER NETZLOFF, BOSILJKA NJEGIC, RYAN OLSON,
     MIKE PAK, BUU PHAM,
     SPENCER PRUITT, LUKE ROSKOP, JIM SHOEMAKER, LYUDMILA SLIPCHENKO,
     TONY SMITH, SAROM SOK LEANG, JIE SONG, TETSUYA TAKETSUGU, SIMON WEBB,
     PENG XU, SOOHAENG YOO, FEDERICO ZAHARIEV

  ADDITIONAL CODE HAS BEEN PROVIDED BY COLLABORATORS IN OTHER GROUPS:
     IOWA STATE UNIVERSITY:
          JOE IVANIC, AARON WEST, LAIMUTIS BYTAUTAS, KLAUS RUEDENBERG
     UNIVERSITY OF TOKYO: KIMIHIKO HIRAO, TAKAHITO NAKAJIMA,
          TAKAO TSUNEDA, MUNEAKI KAMIYA, SUSUMU YANAGISAWA,
          KIYOSHI YAGI, MAHITO CHIBA, SEIKEN TOKURA, NAOAKI KAWAKAMI
     UNIVERSITY OF AARHUS: FRANK JENSEN
     UNIVERSITY OF IOWA: VISVALDAS KAIRYS, HUI LI
     NATIONAL INST. OF STANDARDS AND TECHNOLOGY: WALT STEVENS, DAVID GARMER
     UNIVERSITY OF PISA: BENEDETTA MENNUCCI, JACOPO TOMASI
     UNIVERSITY OF MEMPHIS: HENRY KURTZ, PRAKASHAN KORAMBATH
     UNIVERSITY OF ALBERTA: TOBY ZENG, MARIUSZ KLOBUKOWSKI
     UNIVERSITY OF NEW ENGLAND: MARK SPACKMAN
     MIE UNIVERSITY: HIROAKI UMEDA
     NAT. INST. OF ADVANCED INDUSTRIAL SCIENCE AND TECHNOLOGY: KAZUO KITAURA
     MICHIGAN STATE UNIVERSITY:
          KAROL KOWALSKI, MARTA WLOCH, JEFFREY GOUR, JESSE LUTZ,
          WEI LI, PIOTR PIECUCH
     UNIVERSITY OF SILESIA: MONIKA MUSIAL, STANISLAW KUCHARSKI
     FACULTES UNIVERSITAIRES NOTRE-DAME DE LA PAIX:
          OLIVIER QUINET, BENOIT CHAMPAGNE
     UNIVERSITY OF CALIFORNIA - SANTA BARBARA: BERNARD KIRTMAN
     INSTITUTE FOR MOLECULAR SCIENCE:
          KAZUYA ISHIMURA, MICHIO KATOUDA, AND SHIGERU NAGASE
     UNIVERSITY OF NOTRE DAME: ANNA POMOGAEVA, DAN CHIPMAN
     KYUSHU UNIVERSITY:
          HARUYUKI NAKANO,
          FENG LONG GU, JACEK KORCHOWIEC, MARCIN MAKOWSKI, AND YURIKO AOKI,
          HIROTOSHI MORI AND EISAKU MIYOSHI
     PENNSYLVANIA STATE UNIVERSITY:
          TZVETELIN IORDANOV, CHET SWALINA, JONATHAN SKONE,
          SHARON HAMMES-SCHIFFER
     WASEDA UNIVERSITY:
          MASATO KOBAYASHI, TOMOKO AKAMA, TSUGUKI TOUMA,
          TAKESHI YOSHIKAWA, YASUHIRO IKABATA, JUNJI SEINO,
          YUYA NAKAJIMA, HIROMI NAKAI
     NANJING UNIVERSITY: SHUHUA LI
     UNIVERSITY OF NEBRASKA:
          PEIFENG SU, DEJUN SI, NANDUN THELLAMUREGE, YALI WANG, HUI LI
     UNIVERSITY OF ZURICH: ROBERTO PEVERATI, KIM BALDRIDGE
     N. COPERNICUS UNIVERSITY AND JACKSON STATE UNIVERSITY:
          MARIA BARYSZ
     UNIVERSITY OF COPENHAGEN: Jimmy Kromann, CASPER STEINMANN
     TOKYO INSTITUTE OF TECHNOLOGY: HIROYA NAKATA
     NAGOYA UNIVERSITY: YOSHIO NISHIMOTO, STEPHAN IRLE
     MOSCOW STATE UNIVERSITY: VLADIMIR MIRONOV

 EXECUTION OF GAMESS BEGUN Thu Dec 12 13:18:06 2019

            ECHO OF THE FIRST FEW INPUT CARDS -
 INPUT CARD> $CONTRL SCFTYP=RHF DFTTYP=B3LYP RUNTYP=ENERGY                                  
 INPUT CARD>       ISPHER=1 MULT=1 COORD=ZMT NZVAR=15 $END                                  
 INPUT CARD> $BASIS GBASIS=N31 NGAUSS=6 NDFUNC=1 $END                                       
 INPUT CARD> $STATPT IFREEZ(1)=9 $END                                                       
 INPUT CARD> $DATA                                                                          
 INPUT CARD>Title Single Point Energy Calculation of Acetaldehyde                           
 INPUT CARD>C1                                                                              
 INPUT CARD>C                                                                               
 INPUT CARD>C      1   1.5086892                                                            
 INPUT CARD>O      2   1.2107245  1  124.7161                                               
 INPUT CARD>H      2   1.1145804  1  114.7739  3  180.0000  0                               
 INPUT CARD>H      1   1.0926781  2  110.5176  3  30.      0                                
 INPUT CARD>H      1   1.0983769  2  109.8265  3  121.4889  0                               
 INPUT CARD>H      1   1.0983769  2  109.8265  3 -121.4889  0                               
 INPUT CARD> $END                                                                           
    1000000 WORDS OF MEMORY AVAILABLE

     BASIS OPTIONS
     -------------
     GBASIS=N31          IGAUSS=       6      POLAR=POPN31  
     NDFUNC=       1     NFFUNC=       0     DIFFSP=       F
     NPFUNC=       0      DIFFS=       F     BASNAM=        


     RUN TITLE
     ---------
 Title Single Point Energy Calculation of Acetaldehyde                           

 THE POINT GROUP OF THE MOLECULE IS C1      
 THE ORDER OF THE PRINCIPAL AXIS IS     0

 YOUR FULLY SUBSTITUTED Z-MATRIX IS
 C   
 C      1   1.5086892
 O      2   1.2107245  1  124.7161
 H      2   1.1145804  1  114.7739  3  180.0000  0
 H      1   1.0926781  2  110.5176  3   30.0000  0
 H      1   1.0983769  2  109.8265  3  121.4889  0
 H      1   1.0983769  2  109.8265  3 -121.4889  0

 THE MOMENTS OF INERTIA ARE (AMU-ANGSTROM**2)
 IXX=     8.833   IYY=    50.520   IZZ=    55.856

 ATOM      ATOMIC                      COORDINATES (BOHR)
           CHARGE         X                   Y                   Z
 C           6.0    -2.3849258046        0.3141411813        0.0906743523
 C           6.0     0.2412651370       -0.7840901278       -0.0682675364
 O           8.0     2.1730379880        0.4370225747        0.0403402893
 H           1.0     0.3103955425       -2.8762152044       -0.3017824852
 H           1.0    -2.4136278849        2.2341654090       -0.6684956337
 H           1.0    -3.4533553799       -0.1651816332       -1.6230798528
 H           1.0    -3.4068920811       -0.5330304146        1.6863343444

          INTERNUCLEAR DISTANCES (ANGS.)
          ------------------------------

                1 C          2 C          3 O          4 H          5 H     

   1 C       0.0000000    1.5086892 *  2.4129941 *  2.2198436 *  1.0926781 *
   2 C       1.5086892 *  0.0000000    1.2107245 *  1.1145804 *  2.1507392 *
   3 O       2.4129941 *  1.2107245 *  0.0000000    2.0194911 *  2.6336697 *
   4 H       2.2198436 *  1.1145804 *  2.0194911 *  0.0000000    3.0706315  
   5 H       1.0926781 *  2.1507392 *  2.6336697 *  3.0706315    0.0000000  
   6 H       1.0983769 *  2.1463151 *  3.1210656    2.5522231 *  1.4730845 *
   7 H       1.0983769 *  2.1463151 *  3.1210656    2.5522231 *  1.9933321 *

                6 H          7 H     

   1 C       1.0983769 *  1.0983769 *
   2 C       2.1463151 *  2.1463151 *
   3 O       3.1210656    3.1210656  
   4 H       2.5522231 *  2.5522231 *
   5 H       1.4730845 *  1.9933321 *
   6 H       0.0000000    1.7622233 *
   7 H       1.7622233 *  0.0000000  

  * ... LESS THAN  3.000


     ATOMIC BASIS SET
     ----------------
 THE CONTRACTED PRIMITIVE FUNCTIONS HAVE BEEN UNNORMALIZED
 THE CONTRACTED BASIS FUNCTIONS ARE NOW NORMALIZED TO UNITY

  SHELL TYPE  PRIMITIVE        EXPONENT          CONTRACTION COEFFICIENT(S)

 C         

      1   S       1          3047.5248800    0.001834737132
      1   S       2           457.3695180    0.014037322813
      1   S       3           103.9486850    0.068842622264
      1   S       4            29.2101553    0.232184443216
      1   S       5             9.2866630    0.467941348435
      1   S       6             3.1639270    0.362311985337

      2   L       7             7.8682723   -0.119332419775    0.068999066591
      2   L       8             1.8812885   -0.160854151696    0.316423960957
      2   L       9             0.5442493    1.143456437840    0.744308290898

      3   L      10             0.1687145    1.000000000000    1.000000000000

      4   D      11             0.8000000    1.000000000000

 C         

      5   S      12          3047.5248800    0.001834737132
      5   S      13           457.3695180    0.014037322813
      5   S      14           103.9486850    0.068842622264
      5   S      15            29.2101553    0.232184443216
      5   S      16             9.2866630    0.467941348435
      5   S      17             3.1639270    0.362311985337

      6   L      18             7.8682723   -0.119332419775    0.068999066591
      6   L      19             1.8812885   -0.160854151696    0.316423960957
      6   L      20             0.5442493    1.143456437840    0.744308290898

      7   L      21             0.1687145    1.000000000000    1.000000000000

      8   D      22             0.8000000    1.000000000000

 O         

      9   S      23          5484.6716600    0.001831074430
      9   S      24           825.2349460    0.013950172200
      9   S      25           188.0469580    0.068445078098
      9   S      26            52.9645000    0.232714335992
      9   S      27            16.8975704    0.470192897984
      9   S      28             5.7996353    0.358520852987

     10   L      29            15.5396162   -0.110777549525    0.070874268231
     10   L      30             3.5999336   -0.148026262701    0.339752839147
     10   L      31             1.0137618    1.130767015354    0.727158577316

     11   L      32             0.2700058    1.000000000000    1.000000000000

     12   D      33             0.8000000    1.000000000000

 H         

     13   S      34            18.7311370    0.033494604338
     13   S      35             2.8253944    0.234726953484
     13   S      36             0.6401217    0.813757326146

     14   S      37             0.1612778    1.000000000000

 H         

     15   S      38            18.7311370    0.033494604338
     15   S      39             2.8253944    0.234726953484
     15   S      40             0.6401217    0.813757326146

     16   S      41             0.1612778    1.000000000000

 H         

     17   S      42            18.7311370    0.033494604338
     17   S      43             2.8253944    0.234726953484
     17   S      44             0.6401217    0.813757326146

     18   S      45             0.1612778    1.000000000000

 H         

     19   S      46            18.7311370    0.033494604338
     19   S      47             2.8253944    0.234726953484
     19   S      48             0.6401217    0.813757326146

     20   S      49             0.1612778    1.000000000000

 TOTAL NUMBER OF BASIS SET SHELLS             =   20
 NUMBER OF CARTESIAN GAUSSIAN BASIS FUNCTIONS =   53
 NOTE: THIS RUN WILL RESTRICT THE MO VARIATION SPACE TO SPHERICAL HARMONICS.
 THE NUMBER OF ORBITALS KEPT IN THE VARIATIONAL SPACE WILL BE PRINTED LATER.
 NUMBER OF ELECTRONS                          =   24
 CHARGE OF MOLECULE                           =    0
 SPIN MULTIPLICITY                            =    1
 NUMBER OF OCCUPIED ORBITALS (ALPHA)          =   12
 NUMBER OF OCCUPIED ORBITALS (BETA )          =   12
 TOTAL NUMBER OF ATOMS                        =    7
 THE NUCLEAR REPULSION ENERGY IS       69.4627587121

     LEBEDEV GRID-BASED DFT OPTIONS
     ------------------------------
     DFTTYP=B3LYP   
     NRAD  =      96     NLEB  =     302
     NRAD0 =      24     NLEB0 =     110
     SWOFF =    5.00E-03 (PURE SCF -> DFT)
     SWITCH=    3.00E-04 (COARSE -> TIGHT GRID)
     THRESH=    0.00E+00 GTHRE=    1.00E+00

 GRIMME'S EMPIRICAL DISPERSION CORRECTION= F

     $CONTRL OPTIONS
     ---------------
 SCFTYP=RHF          RUNTYP=ENERGY       EXETYP=RUN     
 MPLEVL=       0     CITYP =NONE         CCTYP =NONE         VBTYP =NONE    
 DFTTYP=B3LYP        TDDFT =NONE    
 MULT  =       1     ICHARG=       0     NZVAR =      15     COORD =ZMT     
 PP    =NONE         RELWFN=NONE         LOCAL =NONE         NUMGRD=       F
 ISPHER=       1     NOSYM =       0     MAXIT =      30     UNITS =ANGS    
 PLTORB=       F     MOLPLT=       F     AIMPAC=       F     FRIEND=        
 NPRINT=       7     IREST =       0     GEOM  =INPUT   
 NORMF =       0     NORMP =       0     ITOL  =      20     ICUT  =       9
 INTTYP=BEST         GRDTYP=BEST         QMTTOL= 1.0E-06

     $SYSTEM OPTIONS
     ---------------
  REPLICATED MEMORY=     1000000 WORDS (ON EVERY NODE).
 DISTRIBUTED MEMDDI=           0 MILLION WORDS IN AGGREGATE,
 MEMDDI DISTRIBUTED OVER   1 PROCESSORS IS           0 WORDS/PROCESSOR.
 TOTAL MEMORY REQUESTED ON EACH PROCESSOR=     1000000 WORDS.
 TIMLIM=      525600.00 MINUTES, OR     365.0 DAYS.
 PARALL= F  BALTYP=  DLB     KDIAG=    0  COREFL= F
 MXSEQ2=     300 MXSEQ3=     150  mem10=         0

          ----------------
          PROPERTIES INPUT
          ----------------

     MOMENTS            FIELD           POTENTIAL          DENSITY
 IEMOM =       1   IEFLD =       0   IEPOT =       0   IEDEN =       0
 WHERE =COMASS     WHERE =NUCLEI     WHERE =NUCLEI     WHERE =NUCLEI  
 OUTPUT=BOTH       OUTPUT=BOTH       OUTPUT=BOTH       OUTPUT=BOTH    
 IEMINT=       0   IEFINT=       0                     IEDINT=       0
                                                       MORB  =       0
          EXTRAPOLATION IN EFFECT
          DIIS IN EFFECT
 ORBITAL PRINTING OPTION: NPREO=     1    53     2     1

     -------------------------------
     INTEGRAL TRANSFORMATION OPTIONS
     -------------------------------
     NWORD  =            0
     CUTOFF = 1.0E-09     MPTRAN =       0
     DIRTRF =       F     AOINTS =DUP     

          ----------------------
          INTEGRAL INPUT OPTIONS
          ----------------------
 NOPK  =       1 NORDER=       0 SCHWRZ=       T

   --- ENCODED Z MATRIX ---
 COORD  TYPE   I   J   K   L   M   N
    1      1    2   1
    2      1    3   2
    3      2    3   2   1
    4      1    4   2
    5      2    4   2   1
    6      3    4   2   1   3
    7      1    5   1
    8      2    5   1   2
    9      3    5   1   2   3
   10      1    6   1
   11      2    6   1   2
   12      3    6   1   2   3
   13      1    7   1
   14      2    7   1   2
   15      3    7   1   2   3

 THE DETERMINANT OF THE G MATRIX IS 10**(    -8)


                     --------------------
                     INTERNAL COORDINATES
                     --------------------

                 - - ATOMS - -         COORDINATE      COORDINATE
 NO.   TYPE    I  J  K  L  M  N        (BOHR,RAD)       (ANG,DEG)
 ----------------------------------------------------------------
   1 STRETCH   2  1                     2.8510092       1.5086892
   2 STRETCH   3  2                     2.2879376       1.2107245
   3 BEND      3  2  1                  2.1767066     124.7161000
   4 STRETCH   4  2                     2.1062515       1.1145804
   5 BEND      4  2  1                  2.0031825     114.7739000
   6 TORSION   4  2  1  3               3.1415927     180.0000000
   7 STRETCH   5  1                     2.0648622       1.0926781
   8 BEND      5  1  2                  1.9288960     110.5176000
   9 TORSION   5  1  2  3               0.5235988      30.0000000
  10 STRETCH   6  1                     2.0756314       1.0983769
  11 BEND      6  1  2                  1.9168340     109.8265000
  12 TORSION   6  1  2  3               2.1203813     121.4889000
  13 STRETCH   7  1                     2.0756314       1.0983769
  14 BEND      7  1  2                  1.9168340     109.8265000
  15 TORSION   7  1  2  3              -2.1203813    -121.4889000

     ------------------------------------------
     THE POINT GROUP IS C1 , NAXIS= 0, ORDER= 1
     ------------------------------------------

 -- VARIATIONAL SPACE WILL BE RESTRICTED TO PURE SPHERICAL HARMONICS ONLY --
 AFTER EXCLUDING CONTAMINANT COMBINATIONS FROM THE CARTESIAN GAUSSIAN BASIS
 SET, THE NUMBER OF SPHERICAL HARMONICS KEPT IN THE VARIATION SPACE IS   50

     DIMENSIONS OF THE SYMMETRY SUBSPACES ARE
 A   =   50

 ..... DONE SETTING UP THE RUN .....
 STEP CPU TIME =     0.01 TOTAL CPU TIME =          0.0 (      0.0 MIN)
 TOTAL WALL CLOCK TIME=          0.0 SECONDS, CPU UTILIZATION IS    50.00%

          ********************
          1 ELECTRON INTEGRALS
          ********************
 ...... END OF ONE-ELECTRON INTEGRALS ......
 STEP CPU TIME =     0.00 TOTAL CPU TIME =          0.0 (      0.0 MIN)
 TOTAL WALL CLOCK TIME=          0.0 SECONDS, CPU UTILIZATION IS    50.00%

          -------------
          GUESS OPTIONS
          -------------
          GUESS =HUCKEL            NORB  =       0          NORDER=       0
          MIX   =       F          PRTMO =       F          PUNMO =       F
          TOLZ  = 1.0E-08          TOLE  = 1.0E-05
          SYMDEN=       F          PURIFY=       F

 INITIAL GUESS ORBITALS GENERATED BY HUCKEL   ROUTINE.
 HUCKEL GUESS REQUIRES     27154 WORDS.

 STATISTICS FOR GENERATION OF SYMMETRY ORBITAL -Q- MATRIX
 NUMBER OF CARTESIAN ATOMIC ORBITALS=         53
 NUMBER OF SPHERICAL CONTAMINANTS DROPPED=     3
 NUMBER OF LINEARLY DEPENDENT MOS DROPPED=     0
 TOTAL NUMBER OF MOS IN VARIATION SPACE=      50

 SYMMETRIES FOR INITIAL GUESS ORBITALS FOLLOW.   BOTH SET(S).
    12 ORBITALS ARE OCCUPIED (    3 CORE ORBITALS).
     4=A        5=A        6=A        7=A        8=A        9=A       10=A   
    11=A       12=A       13=A       14=A       15=A       16=A       17=A   
    18=A       19=A       20=A       21=A       22=A   
 ...... END OF INITIAL ORBITAL SELECTION ......
 STEP CPU TIME =     0.00 TOTAL CPU TIME =          0.0 (      0.0 MIN)
 TOTAL WALL CLOCK TIME=          0.0 SECONDS, CPU UTILIZATION IS    50.00%

                    ----------------------
                    AO INTEGRAL TECHNOLOGY
                    ----------------------
     S,P,L SHELL ROTATED AXIS INTEGRALS, REPROGRAMMED BY
        KAZUYA ISHIMURA (IMS) AND JOSE SIERRA (SYNSTAR).
     S,P,D,L SHELL ROTATED AXIS INTEGRALS PROGRAMMED BY
        KAZUYA ISHIMURA (INSTITUTE FOR MOLECULAR SCIENCE).
     S,P,D,F,G SHELL TO TOTAL QUARTET ANGULAR MOMENTUM SUM 5,
        ERIC PROGRAM BY GRAHAM FLETCHER (ELORET AND NASA ADVANCED
        SUPERCOMPUTING DIVISION, AMES RESEARCH CENTER).
     S,P,D,F,G,L SHELL GENERAL RYS QUADRATURE PROGRAMMED BY
        MICHEL DUPUIS (PACIFIC NORTHWEST NATIONAL LABORATORY).

          --------------------
          2 ELECTRON INTEGRALS
          --------------------

 THE -PK- OPTION IS OFF, THE INTEGRALS ARE NOT IN SUPERMATRIX FORM.
 STORING   15000 INTEGRALS/RECORD ON DISK, USING 12 BYTES/INTEGRAL.
 TWO ELECTRON INTEGRAL EVALUATION REQUIRES   90606 WORDS OF MEMORY.
 SCHWARZ INEQUALITY OVERHEAD:      1430 INTEGRALS, T=        0.00
 II,JST,KST,LST =  1  1  1  1 NREC =         1 INTLOC =    1
 II,JST,KST,LST =  2  1  1  1 NREC =         1 INTLOC =    2
 II,JST,KST,LST =  3  1  1  1 NREC =         1 INTLOC =   34
 II,JST,KST,LST =  4  1  1  1 NREC =         1 INTLOC =  214
 II,JST,KST,LST =  5  1  1  1 NREC =         1 INTLOC = 1189
 II,JST,KST,LST =  6  1  1  1 NREC =         1 INTLOC = 3230
 II,JST,KST,LST =  7  1  1  1 NREC =         2 INTLOC =  976
 II,JST,KST,LST =  8  1  1  1 NREC =         3 INTLOC = 8231
 II,JST,KST,LST =  9  1  1  1 NREC =         7 INTLOC = 6160
 II,JST,KST,LST = 10  1  1  1 NREC =         8 INTLOC = 3527
 II,JST,KST,LST = 11  1  1  1 NREC =        13 INTLOC = 1012
 II,JST,KST,LST = 12  1  1  1 NREC =        19 INTLOC =14735
 II,JST,KST,LST = 13  1  1  1 NREC =        34 INTLOC =10382
 II,JST,KST,LST = 14  1  1  1 NREC =        37 INTLOC =13325
 II,JST,KST,LST = 15  1  1  1 NREC =        41 INTLOC = 4890
 II,JST,KST,LST = 16  1  1  1 NREC =        44 INTLOC =13824
 II,JST,KST,LST = 17  1  1  1 NREC =        48 INTLOC =12240
 II,JST,KST,LST = 18  1  1  1 NREC =        52 INTLOC =11508
 II,JST,KST,LST = 19  1  1  1 NREC =        57 INTLOC = 2262
 II,JST,KST,LST = 20  1  1  1 NREC =        61 INTLOC = 8962
 SCHWARZ INEQUALITY TEST SKIPPED         779 INTEGRAL BLOCKS.
 TOTAL NUMBER OF NONZERO TWO-ELECTRON INTEGRALS =              982727
         66 INTEGRAL RECORDS WERE STORED ON DISK FILE  8.
  ...... END OF TWO-ELECTRON INTEGRALS .....
 STEP CPU TIME =     0.10 TOTAL CPU TIME =          0.1 (      0.0 MIN)
 TOTAL WALL CLOCK TIME=          0.1 SECONDS, CPU UTILIZATION IS    91.67%

          --------------------------
             R-B3LYP SCF CALCULATION
          --------------------------

     NUCLEAR ENERGY =        69.4627587121
     MAXIT =   30     NPUNCH=    2
     EXTRAP=T  DAMP=F  SHIFT=F  RSTRCT=F  DIIS=T  DEM=F  SOSCF=F
         DENSITY MATRIX CONVERGENCE THRESHOLD=  1.00E-05
     COARSE -> FINE DFT GRID SWITCH THRESHOLD=  3.00E-04 (SWITCH IN $DFT)
                   HF -> DFT SWITCH THRESHOLD=  5.00E-03 (SWOFF IN $DFT)
     MEMORY REQUIRED FOR RHF ITERS=    307426 WORDS.

 DFT CODE IS SWITCHING FROM THE FINE GRID NRAD= 96,  NLEB=  302
                      TO THE COARSE GRID NRAD0= 24, NLEB0=  110

     EXCHANGE FUNCTIONAL   =B88&HFX   
     CORRELATION FUNCTIONAL=LYP88&VWN5
     DFT THRESHOLD         =.197E-07
     GRID CHANGE THRESHOLD =.300E-03
 FOR AN EULER-MACLAURIN QUADRATURE USING  96 RADIAL POINTS:
 SMALLEST GAUSSIAN PRIMITIVE EXPONENT=        0.1612777588 OF TYPE -S-
 ON ATOM NUMBER   4 HAS RADIAL NORMALIZATION=  1.000000
  LARGEST GAUSSIAN PRIMITIVE EXPONENT=     5484.6716600000 OF TYPE -S-
 ON ATOM NUMBER   3 HAS RADIAL NORMALIZATION=  1.000000
 DFT IS SWITCHED OFF, PERFORMING PURE SCF UNTIL SWOFF THRESHOLD IS REACHED.

 ITER EX DEM     TOTAL ENERGY        E CHANGE  DENSITY CHANGE    DIIS ERROR
   1  0  0     -152.4318048948  -152.4318048948   0.252316980   0.532706028
          * * *   INITIATING DIIS PROCEDURE   * * *
   2  1  0     -152.8289303125    -0.3971254177   0.147176496   0.099904547
   3  2  0     -152.8599348061    -0.0310044936   0.073568011   0.107397660
   4  3  0     -152.8855874570    -0.0256526509   0.009333830   0.007165755
   5  4  0     -152.8861887302    -0.0006012732   0.004232265   0.003367914
 CONVERGED TO SWOFF, SO DFT CALCULATION IS NOW SWITCHED ON.
          * * *   INITIATING DIIS PROCEDURE   * * *
   6  5  0     -153.7008302271    -0.8146414969   0.086905776   0.050105237
   7  6  0     -153.7110749459    -0.0102447187   0.055136723   0.025045160
   8  7  0     -153.7090651972     0.0020097486   0.042449360   0.036929459
   9  8  0     -153.7146046569    -0.0055394596   0.008400080   0.010464488
  10  9  0     -153.7148430502    -0.0002383934   0.000723427   0.000622717
  11 10  0     -153.7148456706    -0.0000026203   0.000258318   0.000190766
 DFT CODE IS SWITCHING BACK TO THE FINE GRID
          * * *   INITIATING DIIS PROCEDURE   * * *
  12 11  0     -153.7142092696     0.0006364009   0.002253370   0.001748550
  13 12  0     -153.7142173281    -0.0000080585   0.000738011   0.000206157
  14 13  0     -153.7142169629     0.0000003653   0.000436819   0.000448084
  15 14  0     -153.7142176077    -0.0000006449   0.000065205   0.000055362
  16 15  0     -153.7142176151    -0.0000000073   0.000017024   0.000020187
  17 16  0     -153.7142176160    -0.0000000009   0.000004718   0.000004475
  18 17  0     -153.7142176162    -0.0000000001   0.000000932   0.000000823

          -----------------
          DENSITY CONVERGED
          -----------------
     TIME TO FORM FOCK OPERATORS=       5.0 SECONDS (       0.3 SEC/ITER)
     TIME TO SOLVE SCF EQUATIONS=       0.0 SECONDS (       0.0 SEC/ITER)

 FINAL R-B3LYP ENERGY IS     -153.7142176162 AFTER  18 ITERATIONS
 DFT EXCHANGE + CORRELATION ENERGY =       -16.8216389412
 TOTAL ELECTRON NUMBER             =        24.0000273505

          ------------
          EIGENVECTORS
          ------------

                      1          2          3          4          5
                  -19.1425   -10.2721   -10.1872    -1.0415    -0.7545
                     A          A          A          A          A   
    1  C  1  S    0.000020   0.000972   0.995244  -0.017912  -0.181587
    2  C  1  S   -0.000184  -0.000883   0.037158   0.033555   0.348802
    3  C  1  X   -0.000251  -0.000941   0.000084   0.025368   0.022486
    4  C  1  Y    0.000175   0.000394  -0.000263  -0.004183  -0.027537
    5  C  1  Z   -0.000063  -0.000003  -0.000573  -0.001958  -0.037192
    6  C  1  S   -0.000506   0.005034  -0.032104   0.019405   0.314126
    7  C  1  X   -0.001338   0.002690  -0.001495   0.005831  -0.001062
    8  C  1  Y   -0.002336  -0.002127   0.000919   0.008403  -0.005737
    9  C  1  Z    0.000538   0.000016   0.003007  -0.002447  -0.020182
   10  C  1 XX   -0.000366  -0.000997   0.000017   0.004895  -0.001856
   11  C  1 YY    0.000303   0.000319   0.000022  -0.002456  -0.001385
   12  C  1 ZZ    0.000063   0.000679  -0.000039  -0.002440   0.003241
   13  C  1 XY   -0.000199   0.000690  -0.000030  -0.001637  -0.001539
   14  C  1 XZ   -0.000049   0.000093  -0.000109  -0.000376   0.001004
   15  C  1 YZ    0.000081  -0.000096  -0.000135  -0.000653  -0.008431
   16  C  2  S    0.000228   0.995144  -0.000926  -0.117414  -0.076696
   17  C  2  S    0.000033   0.035742  -0.001230   0.224183   0.154444
   18  C  2  X   -0.000044   0.001721   0.000500   0.154482  -0.178304
   19  C  2  Y   -0.000228   0.001343  -0.000391   0.101300  -0.008899
   20  C  2  Z   -0.000023   0.000133  -0.000055   0.008918  -0.001986
   21  C  2  S    0.009243  -0.015895   0.007349   0.083675   0.113253
   22  C  2  X    0.005245   0.005785  -0.004079  -0.013086  -0.037495
   23  C  2  Y    0.005611   0.002652   0.002249  -0.018343  -0.014078
   24  C  2  Z    0.000356   0.000152  -0.000356  -0.001352   0.000920
   25  C  2 XX   -0.000524   0.001315  -0.000898   0.016183   0.003510
   26  C  2 YY    0.000266  -0.000121   0.000475  -0.000848   0.001236
   27  C  2 ZZ    0.000258  -0.001194   0.000423  -0.015335  -0.004746
   28  C  2 XY   -0.000807   0.001297   0.000715   0.022750  -0.013538
   29  C  2 XZ   -0.000050   0.000110   0.000200   0.001902  -0.001503
   30  C  2 YZ   -0.000010   0.000115  -0.000061   0.001495   0.000618
   31  O  3  S    0.995118  -0.000046  -0.000012  -0.194442   0.052020
   32  O  3  S    0.029505   0.000478  -0.000371   0.428835  -0.120550
   33  O  3  X   -0.001955   0.000956   0.000142  -0.138802  -0.015043
   34  O  3  Y   -0.001204   0.000551   0.000009  -0.086646   0.015720
   35  O  3  Z   -0.000127   0.000041  -0.000055  -0.007941   0.000884
   36  O  3  S   -0.019783  -0.005978   0.000419   0.376087  -0.117204
   37  O  3  X    0.005185   0.003709   0.000062  -0.041814  -0.013616
   38  O  3  Y    0.002808   0.002752  -0.000598  -0.024209   0.001764
   39  O  3  Z    0.000311   0.000283   0.000188  -0.002642  -0.000924
   40  O  3 XX   -0.000194  -0.001092  -0.000043   0.005929   0.003257
   41  O  3 YY    0.000116  -0.000026   0.000268  -0.002853  -0.001629
   42  O  3 ZZ    0.000077   0.001118  -0.000225  -0.003076  -0.001629
   43  O  3 XY   -0.000122  -0.001525   0.000088   0.010120   0.000142
   44  O  3 XZ   -0.000018  -0.000137  -0.000022   0.001096   0.000108
   45  O  3 YZ   -0.000000  -0.000127   0.000045  -0.000107   0.000081
   46  H  4  S   -0.000200  -0.000977  -0.000376   0.027988   0.050538
   47  H  4  S    0.001296   0.004943   0.000851  -0.011436   0.007733
   48  H  5  S    0.000158  -0.000302  -0.000489   0.007254   0.113775
   49  H  5  S    0.001136   0.000841   0.005412  -0.002755   0.022463
   50  H  6  S    0.000062  -0.000411  -0.000247   0.005573   0.125334
   51  H  6  S   -0.000414   0.000677   0.006154  -0.001112   0.025058
   52  H  7  S   -0.000104  -0.000476  -0.000848   0.005507   0.110200
   53  H  7  S   -0.000876   0.000582   0.004646   0.001267   0.028272

                      6          7          8          9         10
                   -0.5804    -0.4739    -0.4670    -0.4242    -0.3784
                     A          A          A          A          A   
    1  C  1  S    0.064224  -0.020312  -0.011498  -0.008187  -0.003747
    2  C  1  S   -0.126608   0.039230   0.025800   0.019209   0.007973
    3  C  1  X    0.142517  -0.226740   0.174584  -0.191924   0.080245
    4  C  1  Y   -0.120944  -0.175224  -0.123911   0.082613   0.248075
    5  C  1  Z    0.053383   0.202839   0.274320   0.111546   0.001434
    6  C  1  S   -0.153497   0.048483   0.023380   0.012635   0.015940
    7  C  1  X    0.045498  -0.100983   0.072354  -0.096027   0.038219
    8  C  1  Y   -0.036516  -0.096635  -0.049692   0.060563   0.127773
    9  C  1  Z    0.024129   0.096399   0.125398   0.046774   0.004509
   10  C  1 XX    0.009105  -0.005099   0.012006  -0.003111  -0.006063
   11  C  1 YY   -0.001662  -0.003706  -0.005544  -0.000829   0.013611
   12  C  1 ZZ   -0.007442   0.008806  -0.006462   0.003941  -0.007548
   13  C  1 XY   -0.010131   0.006556  -0.000489   0.008966  -0.006557
   14  C  1 XZ   -0.004515  -0.004862  -0.011664  -0.000347   0.007008
   15  C  1 YZ    0.007014  -0.003497  -0.004666  -0.008122  -0.009178
   16  C  2  S   -0.136050   0.044167  -0.010169  -0.010364   0.001282
   17  C  2  S    0.286050  -0.102898   0.024117   0.033568  -0.006640
   18  C  2  X   -0.048269   0.031880  -0.160601   0.347917  -0.024179
   19  C  2  Y   -0.208380  -0.235700   0.246032   0.080779  -0.139519
   20  C  2  Z   -0.007629   0.064506   0.155550   0.083849   0.267581
   21  C  2  S    0.267182  -0.064461   0.008209  -0.017075   0.024621
   22  C  2  X   -0.043430   0.033085  -0.059377   0.064905   0.015424
   23  C  2  Y   -0.085249  -0.052606   0.078444  -0.007185  -0.052492
   24  C  2  Z   -0.005607   0.035479   0.066860   0.044376   0.163900
   25  C  2 XX   -0.008669   0.003926   0.001576   0.008290  -0.007527
   26  C  2 YY    0.013049  -0.004213  -0.004559  -0.006535   0.006271
   27  C  2 ZZ   -0.004379   0.000287   0.002983  -0.001755   0.001256
   28  C  2 XY   -0.004621   0.000970   0.001901   0.009763  -0.012231
   29  C  2 XZ   -0.001640  -0.002092  -0.002788   0.001736   0.017325
   30  C  2 YZ    0.002943   0.003200   0.004101   0.002394   0.011982
   31  O  3  S    0.069775  -0.051269   0.005727   0.067560  -0.008842
   32  O  3  S   -0.164460   0.118390  -0.014405  -0.146948   0.017503
   33  O  3  X   -0.064889   0.255714  -0.131228  -0.326337   0.139332
   34  O  3  Y   -0.116745  -0.023160   0.143590  -0.326128  -0.022160
   35  O  3  Z   -0.004556   0.062002   0.114467   0.047908   0.392652
   36  O  3  S   -0.194257   0.181064  -0.014291  -0.286996   0.038905
   37  O  3  X   -0.041293   0.139307  -0.074737  -0.168335   0.080041
   38  O  3  Y   -0.061213  -0.016360   0.076865  -0.176697  -0.012981
   39  O  3  Z   -0.001967   0.033573   0.063086   0.028067   0.243628
   40  O  3 XX    0.000272  -0.015585   0.013271   0.006257  -0.006321
   41  O  3 YY    0.004917   0.009545  -0.011506   0.004502   0.006494
   42  O  3 ZZ   -0.005189   0.006040  -0.001765  -0.010759  -0.000174
   43  O  3 XY    0.009485  -0.002407  -0.004554   0.017542  -0.000422
   44  O  3 XZ    0.000218  -0.004849  -0.007576  -0.003153  -0.021723
   45  O  3 YZ    0.000859  -0.002193  -0.005149  -0.001098  -0.013154
   46  H  4  S    0.206344   0.072697  -0.131516  -0.037096   0.071192
   47  H  4  S    0.096405   0.071340  -0.102460  -0.045563   0.066903
   48  H  5  S   -0.119524  -0.105366  -0.109672   0.038965   0.165049
   49  H  5  S   -0.059019  -0.058011  -0.063696   0.011707   0.140164
   50  H  6  S   -0.094916   0.016216  -0.158921   0.002558  -0.068337
   51  H  6  S   -0.042356   0.013055  -0.118261  -0.001375  -0.068657
   52  H  7  S   -0.047665   0.218953   0.114329   0.111023  -0.087541
   53  H  7  S   -0.022317   0.142111   0.079191   0.091997  -0.072786

                     11         12         13         14         15
                   -0.3459    -0.2506    -0.0186     0.1014     0.1224
                     A          A          A          A          A   
    1  C  1  S    0.015635   0.037483   0.004131  -0.135387  -0.008076
    2  C  1  S   -0.036637  -0.071389   0.002875   0.159333   0.029275
    3  C  1  X   -0.066963  -0.217726   0.001567  -0.184230   0.161057
    4  C  1  Y   -0.270535   0.074325  -0.009076   0.078086   0.200697
    5  C  1  Z   -0.254803   0.017890  -0.018352   0.049600   0.191131
    6  C  1  S   -0.036454  -0.285521  -0.075237   2.176478  -0.044394
    7  C  1  X   -0.027295  -0.164632  -0.015096  -0.495120   0.418444
    8  C  1  Y   -0.135925   0.058562  -0.060077   0.232056   0.416259
    9  C  1  Z   -0.137990   0.037385   0.071882   0.034190   0.554582
   10  C  1 XX    0.005778  -0.003711   0.000711   0.008222   0.007699
   11  C  1 YY   -0.014938   0.003199   0.001055  -0.005006  -0.017829
   12  C  1 ZZ    0.009160   0.000511  -0.001766  -0.003216   0.010130
   13  C  1 XY    0.002228   0.005670  -0.004710  -0.004646   0.009519
   14  C  1 XZ    0.018512   0.001423   0.032521   0.007483   0.006775
   15  C  1 YZ    0.016414  -0.000681  -0.006104   0.005872   0.014537
   16  C  2  S   -0.003209   0.001340  -0.000979  -0.009326   0.055404
   17  C  2  S    0.011331  -0.016176   0.001659   0.065694  -0.105653
   18  C  2  X   -0.008416   0.085002   0.002880   0.001392   0.039255
   19  C  2  Y    0.077395  -0.120527  -0.054524  -0.061187   0.220680
   20  C  2  Z    0.152985  -0.012395   0.506491  -0.027775  -0.017235
   21  C  2  S   -0.027073   0.036166   0.018238   0.005566  -0.698328
   22  C  2  X   -0.029379  -0.067512  -0.000003   0.053518   0.219819
   23  C  2  Y    0.009291   0.039438  -0.052351  -0.186766   0.549546
   24  C  2  Z    0.092702   0.004263   0.551332  -0.045381  -0.106599
   25  C  2 XX    0.007385  -0.038924   0.000182  -0.000713  -0.007543
   26  C  2 YY   -0.009247   0.040580   0.002782   0.006331   0.004524
   27  C  2 ZZ    0.001862  -0.001656  -0.002965  -0.005618   0.003019
   28  C  2 XY    0.009017   0.018894   0.002833  -0.005477  -0.014905
   29  C  2 XZ    0.022233   0.002471  -0.023737  -0.002984  -0.005924
   30  C  2 YZ    0.006329   0.004753  -0.017184   0.007740   0.012025
   31  O  3  S    0.001264   0.000508  -0.000151  -0.005982   0.012237
   32  O  3  S   -0.001880  -0.003474   0.000826   0.013649  -0.017076
   33  O  3  X   -0.107145  -0.309636  -0.007049  -0.028587   0.049443
   34  O  3  Y   -0.013044   0.485890   0.044231   0.057308  -0.040370
   35  O  3  Z    0.301507   0.052781  -0.427295  -0.000774   0.003999
   36  O  3  S    0.005285   0.010349  -0.001964   0.071942  -0.221949
   37  O  3  X   -0.068465  -0.220667  -0.005343  -0.067991   0.126509
   38  O  3  Y   -0.013255   0.343704   0.046534   0.050250  -0.061412
   39  O  3  Z    0.198246   0.037227  -0.445879   0.012982   0.043023
   40  O  3 XX    0.005526   0.014064  -0.000212   0.004406   0.000111
   41  O  3 YY   -0.003004  -0.013705   0.000179  -0.002276   0.000074
   42  O  3 ZZ   -0.002523  -0.000359   0.000033  -0.002130  -0.000184
   43  O  3 XY    0.002632  -0.007893   0.000083   0.003399  -0.005887
   44  O  3 XZ   -0.014659  -0.000841  -0.000498  -0.000775  -0.003834
   45  O  3 YZ   -0.009916  -0.001718  -0.000652   0.002462   0.003431
   46  H  4  S   -0.063945   0.178626  -0.004049   0.043297   0.061815
   47  H  4  S   -0.067294   0.290684  -0.009176  -0.203724   1.108163
   48  H  5  S   -0.155414   0.021847   0.007722  -0.077969  -0.128579
   49  H  5  S   -0.177969   0.086883   0.087165  -1.098537  -0.798954
   50  H  6  S    0.221058   0.024548   0.098960   0.014263   0.111742
   51  H  6  S    0.240774   0.061598   0.230402  -0.794668   1.299248
   52  H  7  S   -0.079962   0.036910  -0.100493  -0.083266  -0.047130
   53  H  7  S   -0.088349   0.064170  -0.241234  -1.260257  -0.129521

                     16         17         18         19         20
                    0.1400     0.1701     0.2582     0.2861     0.5203
                     A          A          A          A          A   
    1  C  1  S    0.062378   0.009560  -0.074365  -0.023717   0.009726
    2  C  1  S   -0.048989  -0.035839   0.033475   0.047198  -0.009524
    3  C  1  X   -0.053183   0.032153   0.127768   0.186413  -0.280098
    4  C  1  Y    0.084939   0.278245  -0.112836   0.146376   0.458555
    5  C  1  Z    0.231408  -0.282502   0.031097   0.037245   0.369281
    6  C  1  S   -1.100909   0.067453   1.693706  -0.094172   0.014920
    7  C  1  X   -0.243816   0.235252   1.669264   0.716872   0.244644
    8  C  1  Y    0.408904   1.144718  -0.644096   0.611057  -0.609355
    9  C  1  Z    0.803058  -1.118193   0.008181   0.051772  -0.536554
   10  C  1 XX    0.008294   0.004917  -0.031945  -0.036705  -0.003296
   11  C  1 YY   -0.009938  -0.015078   0.001693   0.032179   0.021640
   12  C  1 ZZ    0.001644   0.010161   0.030252   0.004526  -0.018344
   13  C  1 XY   -0.012812  -0.002185   0.026248  -0.006689   0.006457
   14  C  1 XZ    0.003249   0.002933  -0.000799   0.000642  -0.032281
   15  C  1 YZ    0.011314  -0.002391  -0.009345  -0.001150  -0.061878
   16  C  2  S   -0.105038  -0.045264   0.051441   0.061925  -0.033355
   17  C  2  S    0.125738   0.058271  -0.103742  -0.037373   0.027649
   18  C  2  X   -0.057398   0.004368   0.389198   0.036683   0.006108
   19  C  2  Y   -0.200058  -0.045577  -0.305733  -0.254891   0.019963
   20  C  2  Z   -0.067832   0.028870  -0.030891  -0.046738   0.636921
   21  C  2  S    1.789825   0.727598  -0.914906  -1.762083   0.016087
   22  C  2  X   -0.227691   0.080905   1.813270  -1.437385   0.071985
   23  C  2  Y   -0.428720  -0.301063  -0.743507  -1.455433   0.219441
   24  C  2  Z   -0.260818   0.286667  -0.141236  -0.146750  -0.566420
   25  C  2 XX   -0.009073  -0.016716  -0.001285  -0.001222  -0.047068
   26  C  2 YY   -0.002166   0.007049   0.001477   0.010100  -0.000203
   27  C  2 ZZ    0.011239   0.009667  -0.000192  -0.008879   0.047271
   28  C  2 XY   -0.003376  -0.015016  -0.008167  -0.000544   0.022840
   29  C  2 XZ   -0.005077   0.005335  -0.002607  -0.002955   0.007075
   30  C  2 YZ    0.009064  -0.009443   0.001769   0.006593  -0.003564
   31  O  3  S    0.017183   0.016883   0.029414  -0.098518   0.011617
   32  O  3  S   -0.039977  -0.036578  -0.043831   0.141228  -0.034124
   33  O  3  X    0.069964   0.063392  -0.065303  -0.151070   0.039527
   34  O  3  Y    0.070226   0.079389   0.136396  -0.061259   0.021059
   35  O  3  Z    0.032620  -0.040420   0.018965  -0.010733   0.043017
   36  O  3  S   -0.169384  -0.182738  -0.608097   2.018303  -0.138242
   37  O  3  X    0.101511   0.093660  -0.030591  -0.799622   0.105433
   38  O  3  Y    0.138857   0.126311   0.439933  -0.390423  -0.006368
   39  O  3  Z    0.084262  -0.085904   0.056759  -0.027208   0.032595
   40  O  3 XX   -0.005848   0.000380  -0.012652   0.023274   0.006172
   41  O  3 YY   -0.001140  -0.003401   0.010298   0.002947  -0.005818
   42  O  3 ZZ    0.006988   0.003021   0.002354  -0.026221  -0.000353
   43  O  3 XY    0.000156  -0.000977  -0.012378   0.040503   0.013975
   44  O  3 XZ   -0.002751   0.003410  -0.001953   0.003104  -0.032075
   45  O  3 YZ    0.001325  -0.001113   0.000932   0.005398  -0.029158
   46  H  4  S   -0.071350  -0.009284   0.007309   0.067931  -0.109555
   47  H  4  S   -1.409994  -0.542707  -0.791170  -0.610479   0.064458
   48  H  5  S   -0.070020  -0.053747   0.020304   0.095881   0.247931
   49  H  5  S    0.060886  -1.589233   0.110668  -0.591724  -0.169584
   50  H  6  S    0.058072   0.035037   0.089137   0.002651  -0.255549
   51  H  6  S    1.215798  -0.338847   0.206539   0.573898   0.027082
   52  H  7  S   -0.042504   0.043170   0.100513  -0.011271   0.253286
   53  H  7  S   -0.380595   1.682089  -0.009579   0.375824  -0.042348

                     21         22         23         24         25
                    0.5469     0.5724     0.6505     0.6741     0.7152
                     A          A          A          A          A   
    1  C  1  S    0.018391  -0.010332  -0.018079   0.023869  -0.012403
    2  C  1  S   -0.215992   0.188198  -0.131560  -0.109902   0.038149
    3  C  1  X   -0.696113   0.533084   0.066633  -0.334520   0.101628
    4  C  1  Y    0.338896   0.222524   0.286925  -0.132614   0.254659
    5  C  1  Z    0.057715   0.379925  -0.482021   0.081361   0.130994
    6  C  1  S   -0.063397   0.279654   0.344808   1.069287  -0.575321
    7  C  1  X    0.812085  -0.714029  -0.302783   1.392143  -0.958682
    8  C  1  Y   -0.479800  -0.571222  -0.939416   0.414144  -0.613077
    9  C  1  Z   -0.004724  -0.784872   1.389541  -0.248510  -0.365657
   10  C  1 XX   -0.024541   0.015415  -0.048767   0.030259  -0.006384
   11  C  1 YY    0.013797   0.037570   0.098395  -0.017618   0.008806
   12  C  1 ZZ    0.010744  -0.052985  -0.049629  -0.012641  -0.002422
   13  C  1 XY    0.012344  -0.018642  -0.044786  -0.082933   0.036974
   14  C  1 XZ    0.007199  -0.033084   0.042684  -0.015549  -0.006961
   15  C  1 YZ   -0.005269  -0.050545   0.045501  -0.009603   0.009279
   16  C  2  S   -0.041041   0.007409   0.004458   0.042551   0.037725
   17  C  2  S   -0.126951   0.131648  -0.488571  -0.107953  -0.349524
   18  C  2  X    0.053862  -0.086037  -0.052767  -1.002291  -0.203192
   19  C  2  Y    0.133851   0.132559  -0.085437   0.090777  -0.895703
   20  C  2  Z   -0.609813  -0.493174   0.127211   0.018801  -0.127978
   21  C  2  S   -0.139308   0.283015   0.847783  -1.145676   0.511271
   22  C  2  X   -0.269065   0.739332   0.488490   1.444019  -0.143380
   23  C  2  Y   -0.052500  -0.032193   0.022600  -1.355403   2.378548
   24  C  2  Z    0.728195   0.831464  -0.594126  -0.100611   0.403342
   25  C  2 XX   -0.078037   0.044198   0.057114   0.027243   0.063830
   26  C  2 YY   -0.004261  -0.008126  -0.098735   0.006977   0.006699
   27  C  2 ZZ    0.082298  -0.036072   0.041621  -0.034220  -0.070529
   28  C  2 XY    0.050121  -0.018513   0.076812   0.094859   0.082558
   29  C  2 XZ   -0.000668  -0.007677  -0.008987   0.010809   0.014657
   30  C  2 YZ   -0.022383  -0.019354   0.016265   0.001522  -0.004553
   31  O  3  S    0.012257   0.006915   0.009870  -0.045714  -0.011094
   32  O  3  S   -0.087969   0.041271  -0.027092   0.169085   0.076377
   33  O  3  X    0.114755  -0.138099  -0.217338  -0.260742  -0.156372
   34  O  3  Y   -0.065031   0.165527   0.070954  -0.032180  -0.351360
   35  O  3  Z   -0.048469  -0.019082   0.042916  -0.012305  -0.033383
   36  O  3  S    0.147778  -0.500147  -0.425639   0.187725  -0.661418
   37  O  3  X    0.038664   0.132116   0.150333  -0.469395   0.143995
   38  O  3  Y   -0.046244   0.137472   0.106545  -0.073437  -0.110220
   39  O  3  Z   -0.075069  -0.098188   0.109102  -0.007559  -0.045856
   40  O  3 XX    0.016895  -0.016487  -0.056717  -0.012507  -0.111310
   41  O  3 YY   -0.021481   0.005336   0.010011  -0.024708   0.038515
   42  O  3 ZZ    0.004586   0.011150   0.046706   0.037215   0.072795
   43  O  3 XY    0.003496  -0.001306  -0.024820  -0.105451  -0.079433
   44  O  3 XZ    0.037584   0.037509  -0.021337  -0.009795   0.000694
   45  O  3 YZ    0.019784   0.009558   0.009660  -0.008148  -0.009117
   46  H  4  S   -0.142140  -0.109956  -0.560380   0.016742   0.091828
   47  H  4  S    0.058951  -0.014724   0.088661  -0.679741   1.202353
   48  H  5  S    0.122562   0.257152   0.173816   0.051282  -0.167513
   49  H  5  S    0.145246  -0.081328   0.419171  -0.373424   0.240434
   50  H  6  S    0.087133  -0.297258  -0.138801   0.077418  -0.072553
   51  H  6  S    0.127035  -0.100225   0.299792   0.382380  -0.452290
   52  H  7  S   -0.005404   0.044328  -0.494814   0.147799  -0.049454
   53  H  7  S   -0.092639  -0.137671  -0.578012   0.482165  -0.129455

                     26         27         28         29         30
                    0.7916     0.8174     0.8602     0.9047     0.9367
                     A          A          A          A          A   
    1  C  1  S   -0.026447   0.027553  -0.013243  -0.010087   0.054661
    2  C  1  S    0.123714  -0.118008   0.096213  -0.251115  -1.310607
    3  C  1  X   -0.190828  -0.034834   0.040629   0.214632   0.415762
    4  C  1  Y   -0.711969  -0.261843   0.138131   0.277864  -0.106440
    5  C  1  Z    0.417076  -0.701357  -0.072013  -0.205740   0.219298
    6  C  1  S   -0.700594  -0.080783  -0.517018   0.365462   2.140585
    7  C  1  X   -0.156936  -0.096800  -0.417566  -0.590939  -0.852371
    8  C  1  Y    2.164402   0.207548  -0.152493  -0.218060   0.351011
    9  C  1  Z   -1.360164   1.206083   0.159874   0.167780  -0.343087
   10  C  1 XX   -0.082912  -0.028483  -0.028584   0.015532  -0.109313
   11  C  1 YY    0.046107   0.064568   0.012025  -0.080166   0.009991
   12  C  1 ZZ    0.036805  -0.036085   0.016559   0.064634   0.099321
   13  C  1 XY   -0.038964   0.024355   0.036748   0.073034   0.030320
   14  C  1 XZ   -0.054460  -0.128248  -0.008014  -0.079543   0.054629
   15  C  1 YZ   -0.007392  -0.108818  -0.003966   0.006006  -0.041516
   16  C  2  S   -0.002740  -0.001898   0.050914  -0.022811  -0.010880
   17  C  2  S   -0.850602   0.194093  -0.968991  -1.111091  -0.306069
   18  C  2  X    0.264281   0.008945   0.138560  -0.043381   0.067165
   19  C  2  Y   -0.048424  -0.132212   0.532720   0.087939  -0.031822
   20  C  2  Z   -0.016792  -0.056844   0.050589  -0.003195   0.016003
   21  C  2  S    1.910812  -0.076342   2.864371   1.133310   0.849484
   22  C  2  X   -1.115539  -0.078268  -0.033095  -0.467661  -0.364564
   23  C  2  Y   -0.415261   0.671829  -0.557870  -0.632092   0.149682
   24  C  2  Z    0.348099  -0.038286  -0.068626  -0.009289  -0.007936
   25  C  2 XX    0.060795   0.016279   0.002484  -0.108620  -0.022677
   26  C  2 YY   -0.112630   0.002722   0.100314   0.024765  -0.031395
   27  C  2 ZZ    0.051835  -0.019001  -0.102798   0.083855   0.054071
   28  C  2 XY    0.037588   0.015539   0.098907  -0.116162   0.088747
   29  C  2 XZ    0.033527   0.037209   0.015581   0.042702  -0.023704
   30  C  2 YZ   -0.057405  -0.005971   0.021075  -0.044267   0.012457
   31  O  3  S   -0.002317   0.009113   0.027437  -0.048131   0.009720
   32  O  3  S   -0.005067  -0.027348  -0.094646   0.208631  -0.074196
   33  O  3  X   -0.047874   0.005573  -0.318791   0.405936  -0.143174
   34  O  3  Y    0.009018  -0.068440  -0.310548   0.279075  -0.055073
   35  O  3  Z   -0.091753  -0.196684  -0.032320  -0.087825  -0.013823
   36  O  3  S    0.170534  -0.178339  -0.565981   0.332060  -0.033716
   37  O  3  X    0.072753   0.143726   0.700344  -0.914445   0.266929
   38  O  3  Y    0.004064   0.012436   0.520982  -0.533783   0.044619
   39  O  3  Z   -0.000025   0.189943   0.049364   0.049170   0.030022
   40  O  3 XX   -0.040038  -0.006398   0.001629  -0.002090  -0.008101
   41  O  3 YY    0.012272  -0.002970  -0.052545  -0.011788  -0.019971
   42  O  3 ZZ    0.027767   0.009368   0.050916   0.013878   0.028072
   43  O  3 XY   -0.010354  -0.003857  -0.068928  -0.001371  -0.014124
   44  O  3 XZ    0.008207  -0.017984  -0.007409   0.000573  -0.001667
   45  O  3 YZ   -0.022224   0.010851  -0.012677  -0.015800   0.002493
   46  H  4  S   -0.409667   0.094527   0.722186   0.018144  -0.164188
   47  H  4  S   -0.091635   0.416268  -1.686525  -0.733295   0.099929
   48  H  5  S    0.026043   0.480844  -0.062716  -0.407107   0.410337
   49  H  5  S   -1.572442  -0.672977   0.225051   0.479761  -0.934211
   50  H  6  S   -0.386741  -0.573170  -0.139294  -0.093653   0.676848
   51  H  6  S    0.097352   1.446315   0.034433  -0.300066  -1.297554
   52  H  7  S   -0.154233   0.579747  -0.044797   0.370336   0.412760
   53  H  7  S    1.099975  -1.181993  -0.192795  -0.860353  -0.822748

                     31         32         33         34         35
                    0.9471     0.9980     1.0847     1.1928     1.5083
                     A          A          A          A          A   
    1  C  1  S   -0.001538  -0.012972  -0.012061  -0.090385  -0.030717
    2  C  1  S   -0.318117  -0.225936  -0.113400  -1.762311  -0.507554
    3  C  1  X   -0.048060  -0.024829  -0.105378  -0.066320  -0.063289
    4  C  1  Y   -0.311330   0.026471  -0.067291   0.029072   0.015702
    5  C  1  Z    0.175301   0.156969  -0.014858   0.101402  -0.062376
    6  C  1  S    0.763404   0.777641  -0.595949   5.435990   1.457940
    7  C  1  X   -0.044240   0.202930  -0.370623   1.101288   0.263322
    8  C  1  Y   -0.186471  -0.427119   0.014647  -0.329238   0.117182
    9  C  1  Z   -0.038828  -0.072311  -0.013178  -0.737450  -0.225955
   10  C  1 XX    0.014249   0.022883  -0.019639   0.053017   0.080204
   11  C  1 YY    0.133847   0.032992  -0.006225   0.067345  -0.056252
   12  C  1 ZZ   -0.148096  -0.055875   0.025864  -0.120362  -0.023952
   13  C  1 XY    0.061831   0.014713   0.053736   0.040229  -0.042743
   14  C  1 XZ    0.120508   0.050901  -0.008959  -0.202764   0.092021
   15  C  1 YZ   -0.044422   0.064988   0.008908   0.218930  -0.240002
   16  C  2  S   -0.005048   0.006035  -0.000986   0.032295   0.009618
   17  C  2  S   -0.268909   0.177356  -0.001453   0.564630   0.015893
   18  C  2  X   -0.068476  -0.031977   0.138270  -0.036069   0.038714
   19  C  2  Y   -0.004953  -0.000086  -0.268585   0.053856  -0.020321
   20  C  2  Z    0.000372   0.121539  -0.035830  -0.010408   0.158742
   21  C  2  S   -0.205170  -0.708547  -0.026542  -2.929012  -0.412368
   22  C  2  X    0.338262   0.423396  -0.926825   1.482847   0.261906
   23  C  2  Y    0.374112   0.069744   1.574984  -1.200178  -0.313287
   24  C  2  Z   -0.016263  -0.627235   0.218485   0.177995  -0.086563
   25  C  2 XX   -0.085812  -0.021463  -0.133944  -0.000410   0.028182
   26  C  2 YY    0.074800   0.037720   0.144641   0.124557   0.124635
   27  C  2 ZZ    0.011012  -0.016257  -0.010697  -0.124147  -0.152816
   28  C  2 XY   -0.060717  -0.003094   0.056401  -0.031663   0.007231
   29  C  2 XZ   -0.083901  -0.070909   0.021478   0.220398  -0.464855
   30  C  2 YZ    0.070906   0.032828   0.011219  -0.094276  -0.398656
   31  O  3  S   -0.015832   0.002205   0.001823   0.005663  -0.004531
   32  O  3  S    0.082405  -0.025600  -0.031012  -0.142139   0.086268
   33  O  3  X    0.395480   0.035343  -0.429652   0.038210  -0.031849
   34  O  3  Y    0.047199   0.103989   0.692355  -0.088877  -0.020949
   35  O  3  Z    0.227319  -0.876853   0.098413   0.070922   0.127009
   36  O  3  S   -0.137035  -0.010593   0.007292   0.445968  -0.057553
   37  O  3  X   -0.567269  -0.066101   0.793031  -0.315975   0.015167
   38  O  3  Y   -0.236478  -0.134886  -1.300001   0.311756   0.068557
   39  O  3  Z   -0.246046   1.224799  -0.186194  -0.213185   0.097833
   40  O  3 XX    0.020298   0.017241   0.089296   0.058460   0.031600
   41  O  3 YY   -0.031075  -0.006679  -0.091481   0.089237   0.062606
   42  O  3 ZZ    0.010777  -0.010562   0.002185  -0.147696  -0.094205
   43  O  3 XY   -0.013738  -0.005833  -0.054701  -0.016576  -0.068161
   44  O  3 XZ   -0.007457   0.027854  -0.008797  -0.027690   0.427608
   45  O  3 YZ    0.018300   0.031636  -0.016218  -0.066913   0.208402
   46  H  4  S    0.485998   0.136277   0.216685   0.031336  -0.055888
   47  H  4  S   -0.234302  -0.045352   0.753087  -0.338248  -0.117955
   48  H  5  S    0.698313   0.063097  -0.045074  -0.373549  -0.250121
   49  H  5  S   -0.746388   0.121328   0.012541  -0.644565  -0.284216
   50  H  6  S   -0.069190   0.052432  -0.106249  -0.489668  -0.220093
   51  H  6  S   -0.007344  -0.361998  -0.024779  -0.602628  -0.110398
   52  H  7  S   -0.547656  -0.313619  -0.076884  -0.288345  -0.006489
   53  H  7  S    0.307910   0.271539  -0.038190  -0.302017  -0.133068

                     36         37         38         39         40
                    1.5713     1.6137     1.7156     1.7822     1.8154
                     A          A          A          A          A   
    1  C  1  S   -0.037732   0.009399  -0.050495   0.022508   0.012897
    2  C  1  S   -0.671427   0.071047  -0.583612  -0.142725  -0.266555
    3  C  1  X   -0.119849  -0.024072   0.018930  -0.167999  -0.195012
    4  C  1  Y    0.027153  -0.005906   0.084299   0.085636  -0.015465
    5  C  1  Z    0.013760   0.013792   0.002665  -0.042979   0.034289
    6  C  1  S    1.776507  -0.443399   2.144977  -0.486807   0.036802
    7  C  1  X    0.263353   0.112642   0.298808  -0.259705   0.274921
    8  C  1  Y    0.164904   0.537041  -0.677068  -0.448164   0.258683
    9  C  1  Z   -0.769618  -0.102979  -0.302798   0.574745  -0.063600
   10  C  1 XX    0.189414  -0.022241  -0.378795   0.157513   0.398803
   11  C  1 YY   -0.197740  -0.023364  -0.060786  -0.238882  -0.117169
   12  C  1 ZZ    0.008326   0.045604   0.439582   0.081369  -0.281634
   13  C  1 XY   -0.062023  -0.208974  -0.570782  -0.234248   0.288601
   14  C  1 XZ    0.201970   0.004996  -0.028127   0.165614  -0.084898
   15  C  1 YZ   -0.252272  -0.046012  -0.042007  -0.275887   0.101839
   16  C  2  S    0.012795  -0.015569   0.029269   0.002931   0.016425
   17  C  2  S   -0.071681  -0.148968   0.424800  -0.239846  -0.078703
   18  C  2  X    0.079958  -0.062920   0.033366   0.093758  -0.079789
   19  C  2  Y   -0.003659  -0.008905   0.045517   0.014953   0.075408
   20  C  2  Z   -0.101500  -0.006353   0.005162  -0.056492   0.034237
   21  C  2  S   -0.100345  -1.728137  -1.563977   0.837081  -0.529468
   22  C  2  X    0.361326  -1.619250   1.047464  -0.164697  -0.649458
   23  C  2  Y   -0.293632  -1.072682   0.611738   0.895973  -0.159642
   24  C  2  Z    0.253876  -0.051924   0.142838  -0.175476   0.036211
   25  C  2 XX    0.082061  -0.003429   0.104000   0.239438   0.125390
   26  C  2 YY   -0.031732   0.059967  -0.325351  -0.128081  -0.262795
   27  C  2 ZZ   -0.050329  -0.056538   0.221351  -0.111357   0.137405
   28  C  2 XY   -0.049784  -0.283014   0.179438  -0.199181  -0.239727
   29  C  2 XZ   -0.242352  -0.066238  -0.057734   0.193703  -0.054403
   30  C  2 YZ    0.569354   0.065378  -0.012953  -0.056709  -0.079186
   31  O  3  S   -0.011552   0.033245   0.010230  -0.005693  -0.009070
   32  O  3  S    0.307953  -1.598458   0.038898   0.312915  -0.149342
   33  O  3  X   -0.083725   0.075949   0.119251  -0.110981  -0.223482
   34  O  3  Y   -0.011400   0.094427   0.098639   0.103562   0.086658
   35  O  3  Z    0.002755   0.014856   0.025212  -0.059888   0.032856
   36  O  3  S   -0.492341   3.805847  -0.524088  -0.815744   0.838662
   37  O  3  X    0.173062  -1.076848   0.000076   0.391400  -0.006804
   38  O  3  Y    0.166360  -0.718535  -0.011692  -0.108535  -0.316028
   39  O  3  Z   -0.089590  -0.080483  -0.031075   0.102874  -0.064547
   40  O  3 XX    0.026562  -0.122331  -0.134042  -0.145552  -0.506730
   41  O  3 YY    0.153407   0.159501  -0.206702   0.405722   0.037423
   42  O  3 ZZ   -0.179969  -0.037170   0.340744  -0.260170   0.469307
   43  O  3 XY    0.000876  -0.206067   0.200753   0.032368   0.407784
   44  O  3 XZ   -0.299560  -0.043447  -0.002512   0.177556   0.002119
   45  O  3 YZ    0.288443   0.058795   0.038881  -0.562220   0.143223
   46  H  4  S   -0.100689  -0.003841   0.546782   0.234997   0.273645
   47  H  4  S   -0.150213  -0.200078   0.332731   0.179854  -0.069112
   48  H  5  S   -0.304154  -0.034666  -0.185047   0.227388   0.097159
   49  H  5  S   -0.350590  -0.163646   0.008574   0.198576  -0.177063
   50  H  6  S   -0.363854   0.043987  -0.304103   0.098954   0.080463
   51  H  6  S   -0.404743   0.072824  -0.306297   0.082659   0.021475
   52  H  7  S    0.050119   0.104761  -0.165565  -0.096175   0.044909
   53  H  7  S    0.043420   0.158868  -0.176996  -0.325266   0.079446

                     41         42         43         44         45
                    1.8958     1.9945     2.0682     2.1296     2.2984
                     A          A          A          A          A   
    1  C  1  S   -0.068979   0.018809  -0.005911   0.020774  -0.004630
    2  C  1  S   -0.410563   0.035119   0.101769   0.027902  -0.086660
    3  C  1  X    0.102737  -0.021868   0.036376  -0.045127   0.010065
    4  C  1  Y   -0.106669   0.078009  -0.029883  -0.060219  -0.037597
    5  C  1  Z   -0.042420  -0.025397  -0.023355  -0.025493  -0.079345
    6  C  1  S    2.397428  -0.547299  -0.128131  -0.381753   0.311744
    7  C  1  X    0.784185   0.032620  -0.283710  -0.112245   0.113990
    8  C  1  Y    0.460813   0.570847   0.136093  -0.222580   0.099884
    9  C  1  Z   -0.559075  -0.613605  -0.326707  -0.115690  -0.303299
   10  C  1 XX    0.065332  -0.070387  -0.319076   0.208690   0.086382
   11  C  1 YY   -0.065822   0.693923   0.053972  -0.502612  -0.088817
   12  C  1 ZZ    0.000490  -0.623537   0.265105   0.293922   0.002435
   13  C  1 XY    0.271274  -0.211609   0.362181  -0.136962  -0.152119
   14  C  1 XZ    0.326960   0.161260   0.080283  -0.137611   0.936949
   15  C  1 YZ   -0.279931   0.279071   0.257764   0.678495   0.416028
   16  C  2  S    0.022822  -0.018197   0.008097   0.000205   0.014238
   17  C  2  S    0.412804  -0.216758   0.279471  -0.172383   0.025859
   18  C  2  X   -0.157652   0.163055  -0.273725   0.104419   0.027152
   19  C  2  Y   -0.004325   0.043163   0.144566  -0.120685  -0.030448
   20  C  2  Z   -0.059913  -0.015124   0.038446   0.069135  -0.067881
   21  C  2  S   -2.267793   0.732060  -0.395631   0.530930  -0.229865
   22  C  2  X    0.381198  -0.200019  -0.202598  -0.036412   0.015966
   23  C  2  Y   -1.663977   0.343524   0.249977   0.103330  -0.125221
   24  C  2  Z   -0.046246   0.295988   0.217913   0.228467  -0.014101
   25  C  2 XX   -0.333665   0.325346  -0.172667  -0.033141  -0.097538
   26  C  2 YY    0.121540  -0.179230  -0.417225   0.141058   0.040337
   27  C  2 ZZ    0.212125  -0.146116   0.589892  -0.107916   0.057202
   28  C  2 XY    0.072559   0.231745   0.061953  -0.200082  -0.157237
   29  C  2 XZ   -0.124253  -0.200041  -0.147668  -0.210358   0.215241
   30  C  2 YZ    0.221075   0.268718   0.104773   0.405190  -0.374967
   31  O  3  S   -0.003592   0.015698  -0.007039  -0.005898  -0.007084
   32  O  3  S   -0.428154  -0.070354  -0.014636   0.173805   0.082588
   33  O  3  X    0.012393   0.142218  -0.122642  -0.056439  -0.083382
   34  O  3  Y   -0.145715   0.181704  -0.006040  -0.091051  -0.063838
   35  O  3  Z   -0.016244   0.050229   0.034955   0.049076  -0.013908
   36  O  3  S    1.572743  -0.365413   0.291804  -0.310500   0.071721
   37  O  3  X   -0.630188   0.152128   0.028416   0.084609  -0.004165
   38  O  3  Y    0.097254  -0.110560  -0.177858   0.153583   0.052229
   39  O  3  Z   -0.004821  -0.105695  -0.115637  -0.161449   0.039758
   40  O  3 XX   -0.016680   0.006971  -0.176514   0.097637   0.036954
   41  O  3 YY   -0.309312   0.011229   0.578603  -0.187283  -0.072620
   42  O  3 ZZ    0.325991  -0.018200  -0.402089   0.089646   0.035666
   43  O  3 XY    0.092481   0.034749  -0.116197  -0.059516  -0.032471
   44  O  3 XZ    0.174652   0.187789   0.180090   0.390594  -0.204761
   45  O  3 YZ   -0.505348  -0.206811   0.020188  -0.116488   0.137281
   46  H  4  S   -0.264947   0.127778   0.392099  -0.207531  -0.000596
   47  H  4  S   -0.367493   0.055422   0.111061   0.034207  -0.019086
   48  H  5  S   -0.438820  -0.381828  -0.029448   0.593972   0.111434
   49  H  5  S   -0.419885  -0.208640  -0.094735  -0.082985  -0.220312
   50  H  6  S   -0.444706   0.115040  -0.308587  -0.211078  -0.557536
   51  H  6  S   -0.107575  -0.088420  -0.025578   0.071682   0.126303
   52  H  7  S   -0.053680   0.648831   0.032530   0.156601   0.566845
   53  H  7  S    0.167644   0.217936   0.091596  -0.069460  -0.102909

                     46         47         48         49         50
                    2.3462     2.5306     2.5914     2.8579     2.9476
                     A          A          A          A          A   
    1  C  1  S    0.040645   0.041092  -0.002383   0.028631  -0.011868
    2  C  1  S    0.308043   0.052476  -0.041860  -0.134827   0.063470
    3  C  1  X   -0.124041  -0.255614  -0.025714  -0.233310   0.092566
    4  C  1  Y    0.017272   0.079803   0.014336   0.145889  -0.055677
    5  C  1  Z   -0.009497   0.003841   0.034197   0.027068  -0.005660
    6  C  1  S   -1.627437  -1.257122   0.068973  -0.148811   0.113475
    7  C  1  X   -0.843028  -0.761110  -0.019786  -0.184372   0.186654
    8  C  1  Y    0.204063   0.200800   0.080923   0.242842   0.087193
    9  C  1  Z    0.069646  -0.032310  -0.055033  -0.054593  -0.007361
   10  C  1 XX   -0.368524  -0.786272  -0.109605  -0.250331   0.077649
   11  C  1 YY   -0.099540   0.569607   0.161230  -0.027907   0.006988
   12  C  1 ZZ    0.468063   0.216665  -0.051626   0.278238  -0.084637
   13  C  1 XY    0.364132   0.069412  -0.012543   0.513891  -0.179003
   14  C  1 XZ    0.207106  -0.012785   0.142152   0.085864  -0.024539
   15  C  1 YZ    0.082366  -0.026062  -0.213069  -0.054312   0.012020
   16  C  2  S   -0.081531  -0.023717   0.000480  -0.043324  -0.029689
   17  C  2  S   -0.247791  -0.001990   0.032674  -0.302791  -1.334998
   18  C  2  X   -0.204707  -0.235708  -0.028229  -0.358910  -1.070559
   19  C  2  Y    0.156244   0.056594  -0.014277  -0.159896  -0.690395
   20  C  2  Z    0.022643  -0.028533   0.236401  -0.012685  -0.061592
   21  C  2  S    1.745478   1.430871   0.005995   0.137470  -1.737672
   22  C  2  X   -0.512327  -0.676284  -0.044319  -0.329453  -0.688539
   23  C  2  Y    0.786311   0.699385  -0.044153  -0.568869  -0.580841
   24  C  2  Z    0.087416   0.072174   0.256085  -0.035696  -0.051335
   25  C  2 XX    0.389833  -0.116196  -0.012667   0.927851  -0.653567
   26  C  2 YY    0.378895   0.349985  -0.051828  -0.814811   0.199464
   27  C  2 ZZ   -0.768728  -0.233789   0.064496  -0.113040   0.454103
   28  C  2 XY    0.392816  -0.854228  -0.197349  -0.501213  -0.447012
   29  C  2 XZ    0.086409  -0.229640   0.857615  -0.069711  -0.033759
   30  C  2 YZ    0.098399   0.039618   0.446311  -0.078880  -0.025319
   31  O  3  S    0.026715  -0.021286  -0.003371  -0.009222  -0.061725
   32  O  3  S   -0.291713   0.568605   0.063064  -0.328852  -0.691101
   33  O  3  X    0.300986  -0.346243  -0.049280  -0.006999  -0.245230
   34  O  3  Y    0.237488  -0.164371  -0.023508   0.046522  -0.173160
   35  O  3  Z    0.022156  -0.014293  -0.013107   0.007136  -0.015429
   36  O  3  S   -0.367320  -0.650395  -0.008812   0.982167   3.122732
   37  O  3  X    0.142553   0.470123   0.028381  -0.644289  -1.501681
   38  O  3  Y   -0.301006  -0.002300   0.053145   0.076081  -1.004045
   39  O  3  Z   -0.044075   0.057521  -0.448640   0.007245  -0.091710
   40  O  3 XX   -0.334713  -0.169714  -0.002687   0.828937   0.694339
   41  O  3 YY    0.292898   0.029228  -0.107404  -0.668689   0.019016
   42  O  3 ZZ    0.041815   0.140486   0.110091  -0.160248  -0.713355
   43  O  3 XY    0.355475   0.124715  -0.069992  -0.081995   1.177920
   44  O  3 XZ    0.052297  -0.102081   0.808085  -0.019887   0.108107
   45  O  3 YZ    0.067186  -0.098836   0.542348  -0.059683   0.077870
   46  H  4  S   -0.175578  -0.236361  -0.026172   0.252119  -0.020525
   47  H  4  S    0.211230   0.302974   0.013077  -0.429329  -0.005897
   48  H  5  S    0.153324  -0.223868  -0.161400  -0.031631  -0.001467
   49  H  5  S    0.004942   0.123029   0.006243  -0.091768  -0.021170
   50  H  6  S   -0.187944   0.055821   0.018933  -0.125816   0.029997
   51  H  6  S    0.125111  -0.116816  -0.033062   0.010929   0.027109
   52  H  7  S    0.004858   0.027412  -0.007284  -0.090436   0.031145
   53  H  7  S    0.011238  -0.015921  -0.001503   0.055775   0.036023
 ...... END OF RHF CALCULATION ......
 STEP CPU TIME =     5.17 TOTAL CPU TIME =          5.3 (      0.1 MIN)
 TOTAL WALL CLOCK TIME=          5.3 SECONDS, CPU UTILIZATION IS    99.25%

     ---------------------------------------------------------------------
     PROPERTIES FOR THE B3LYP    DFT FUNCTIONAL (RHF  TYPE) DENSITY MATRIX
     ---------------------------------------------------------------------

          -----------------
          ENERGY COMPONENTS
          -----------------

         WAVEFUNCTION NORMALIZATION =       1.0000000000

                ONE ELECTRON ENERGY =    -345.6483953277
                TWO ELECTRON ENERGY =     122.4714189995
           NUCLEAR REPULSION ENERGY =      69.4627587121
                                      ------------------
                       TOTAL ENERGY =    -153.7142176162

 ELECTRON-ELECTRON POTENTIAL ENERGY =     122.4714189995
  NUCLEUS-ELECTRON POTENTIAL ENERGY =    -498.4713969698
   NUCLEUS-NUCLEUS POTENTIAL ENERGY =      69.4627587121
                                      ------------------
             TOTAL POTENTIAL ENERGY =    -306.5372192583
               TOTAL KINETIC ENERGY =     152.8230016421
                 VIRIAL RATIO (V/T) =       2.0058316874

          ---------------------------------------
          MULLIKEN AND LOWDIN POPULATION ANALYSES
          ---------------------------------------

     ATOMIC MULLIKEN POPULATION IN EACH MOLECULAR ORBITAL

                      1          2          3          4          5

                  2.000000   2.000000   2.000000   2.000000   2.000000

    1            -0.000048   0.001201   1.995099   0.021804   1.139477
    2             0.002352   2.000649   0.001777   0.525404   0.408039
    3             1.997659  -0.002807   0.000001   1.453095   0.080502
    4             0.000033   0.000893   0.000022  -0.000640   0.020858
    5             0.000006   0.000025   0.001043  -0.000161   0.109121
    6            -0.000000   0.000021   0.001200   0.000081   0.132843
    7            -0.000001   0.000018   0.000859   0.000417   0.109160

                      6          7          8          9         10

                  2.000000   2.000000   2.000000   2.000000   2.000000

    1             0.359766   0.730305   0.659590   0.310309   0.352524
    2             0.819950   0.310342   0.538121   0.432123   0.489918
    3             0.265254   0.451313   0.269267   1.137428   0.836193
    4             0.345255   0.052374   0.141014   0.015422   0.037805
    5             0.120518   0.081330   0.086047   0.008615   0.194430
    6             0.071273   0.002631   0.206465   0.000001   0.038208
    7             0.017983   0.371705   0.099496   0.096101   0.050922

                     11         12

                  2.000000   2.000000

    1             0.736244   0.226777
    2             0.141399   0.090173
    3             0.476692   1.384576
    4             0.029591   0.257884
    5             0.197187   0.015439
    6             0.368040   0.009864
    7             0.050846   0.015287

               ----- POPULATIONS IN EACH AO -----
                             MULLIKEN      LOWDIN
              1  C  1  S      1.99662     1.98016
              2  C  1  S      0.67201     0.36433
              3  C  1  X      0.70593     0.63548
              4  C  1  Y      0.73321     0.66279
              5  C  1  Z      0.71167     0.63596
              6  C  1  S      0.63306     0.33371
              7  C  1  X      0.30478     0.41245
              8  C  1  Y      0.37197     0.49300
              9  C  1  Z      0.37140     0.48963
             10  C  1 XX      0.00516     0.14761
             11  C  1 YY      0.00736     0.15186
             12  C  1 ZZ      0.00503     0.15633
             13  C  1 XY      0.00817     0.00935
             14  C  1 XZ      0.00667     0.01562
             15  C  1 YZ      0.00000     0.01034
             16  C  2  S      1.99655     1.97464
             17  C  2  S      0.70919     0.36668
             18  C  2  X      0.74362     0.64974
             19  C  2  Y      0.74701     0.65001
             20  C  2  Z      0.45683     0.40987
             21  C  2  S      0.45226     0.30862
             22  C  2  X      0.10193     0.28214
             23  C  2  Y      0.18878     0.37361
             24  C  2  Z      0.27869     0.33056
             25  C  2 XX      0.00497     0.21592
             26  C  2 YY      0.04050     0.19538
             27  C  2 ZZ      0.02324     0.10553
             28  C  2 XY      0.01287     0.04766
             29  C  2 XZ      0.00382     0.02475
             30  C  2 YZ      0.00000     0.00677
             31  O  3  S      1.99730     1.97771
             32  O  3  S      0.92829     0.72026
             33  O  3  X      0.99943     0.93763
             34  O  3  Y      1.08518     1.03685
             35  O  3  Z      0.77271     0.72165
             36  O  3  S      0.93178     0.46990
             37  O  3  X      0.49910     0.57448
             38  O  3  Y      0.59420     0.65811
             39  O  3  Z      0.51317     0.55088
             40  O  3 XX      0.00231     0.18362
             41  O  3 YY      0.00728     0.17482
             42  O  3 ZZ      0.00725     0.17361
             43  O  3 XY      0.00800     0.01583
             44  O  3 XZ      0.00315     0.01046
             45  O  3 YZ      0.00000     0.00416
             46  H  4  S      0.53461     0.50159
             47  H  4  S      0.36590     0.38882
             48  H  5  S      0.51385     0.47365
             49  H  5  S      0.29975     0.34411
             50  H  6  S      0.51649     0.48234
             51  H  6  S      0.31413     0.34664
             52  H  7  S      0.51286     0.46575
             53  H  7  S      0.29993     0.34660

          ----- MULLIKEN ATOMIC OVERLAP POPULATIONS -----
          (OFF-DIAGONAL ELEMENTS NEED TO BE MULTIPLIED BY 2)

             1           2           3           4           5

    1    5.3861760
    2    0.3087462   4.5444559
    3   -0.0789681   0.6215433   7.8623272
    4   -0.1243613   0.3431581  -0.0619016   0.7299681
    5    0.3475966  -0.0203159   0.0027908   0.0064749   0.5481945
    6    0.3352249  -0.0159717   0.0025688   0.0017248  -0.0675266
    7    0.3586340  -0.0213678   0.0008127   0.0054482  -0.0036133

             6           7

    6    0.6003833
    7   -0.0257761   0.4986528

          TOTAL MULLIKEN AND LOWDIN ATOMIC POPULATIONS
       ATOM         MULL.POP.    CHARGE          LOW.POP.     CHARGE
    1 C             6.533048   -0.533048         6.498626   -0.498626
    2 C             5.760248    0.239752         5.941877    0.058123
    3 O             8.349173   -0.349173         8.209992   -0.209992
    4 H             0.900511    0.099489         0.890411    0.109589
    5 H             0.813601    0.186399         0.817759    0.182241
    6 H             0.830627    0.169373         0.828979    0.171021
    7 H             0.812790    0.187210         0.812355    0.187645

          MULLIKEN SPHERICAL HARMONIC POPULATIONS
       ATOM           S       P       D      F      G      H      I    TOTAL
    1 C             3.30    3.20    0.03   0.00   0.00   0.00   0.00    6.53
    2 C             3.16    2.52    0.09   0.00   0.00   0.00   0.00    5.76
    3 O             3.86    4.46    0.03   0.00   0.00   0.00   0.00    8.35
    4 H             0.90    0.00    0.00   0.00   0.00   0.00   0.00    0.90
    5 H             0.81    0.00    0.00   0.00   0.00   0.00   0.00    0.81
    6 H             0.83    0.00    0.00   0.00   0.00   0.00   0.00    0.83
    7 H             0.81    0.00    0.00   0.00   0.00   0.00   0.00    0.81

          -------------------------------
          BOND ORDER AND VALENCE ANALYSIS     BOND ORDER THRESHOLD=0.050
          -------------------------------

                   BOND                       BOND                       BOND
  ATOM PAIR DIST  ORDER      ATOM PAIR DIST  ORDER      ATOM PAIR DIST  ORDER
    1   2  1.509  0.969        1   5  1.093  0.941        1   6  1.098  0.926
    1   7  1.098  0.931        2   3  1.211  2.026        2   4  1.115  0.886

                       TOTAL       BONDED        FREE
      ATOM            VALENCE     VALENCE     VALENCE
    1 C                 3.769       3.769      -0.000
    2 C                 3.878       3.878      -0.000
    3 O                 2.116       2.116       0.000
    4 H                 0.927       0.927       0.000
    5 H                 0.929       0.929       0.000
    6 H                 0.913       0.913       0.000
    7 H                 0.937       0.937       0.000

          ---------------------
          ELECTROSTATIC MOMENTS
          ---------------------

 POINT   1           X           Y           Z (BOHR)    CHARGE
                -0.000000    0.000000    0.000000        0.00 (A.U.)
         DX          DY          DZ         /D/  (DEBYE)
    -2.520123   -1.005249   -0.311497    2.731040
 ...... END OF PROPERTY EVALUATION ......
 STEP CPU TIME =     0.00 TOTAL CPU TIME =          5.3 (      0.1 MIN)
 TOTAL WALL CLOCK TIME=          5.3 SECONDS, CPU UTILIZATION IS    99.25%
                580000  WORDS OF DYNAMIC MEMORY USED
 EXECUTION OF GAMESS TERMINATED NORMALLY Thu Dec 12 13:18:11 2019
 DDI: 263640 bytes (0.3 MB / 0 MWords) used by master data server.

 ----------------------------------------
 CPU timing information for all processes
 ========================================
 0: 5.138 + 0.154 = 5.292
 ----------------------------------------
 ddikick.x: exited gracefully.
----- accounting info -----
Files used on the master node crcfe02.crc.nd.edu were:
-rw-r--r-- 1 cdrisko campus      489 Dec 12 13:18 /afs/crc.nd.edu/user/c/cdrisko/acetaldehyde.F05
-rw-r--r-- 1 cdrisko campus    45118 Dec 12 13:18 /afs/crc.nd.edu/user/c/cdrisko/acetaldehyde.F07
-rw-r--r-- 1 cdrisko campus 11881056 Dec 12 13:18 /afs/crc.nd.edu/user/c/cdrisko/acetaldehyde.F08
-rw-r--r-- 1 cdrisko campus  1799600 Dec 12 13:18 /afs/crc.nd.edu/user/c/cdrisko/acetaldehyde.F10
Thu Dec 12 13:18:14 EST 2019
0.341u 0.349s 0:08.99 7.5%	0+0k 0+16io 0pf+0w
