----- GAMESS execution script 'rungms' -----
This job is running on host crcfe02.crc.nd.edu
under operating system Linux at Sun Sep 29 10:54:26 EDT 2019
Available scratch disk space (Kbyte units) at beginning of the job is
Filesystem      1K-blocks  Used  Available Use% Mounted on
AFS            2147483647     0 2147483647   0% /afs
GAMESS temporary binary files will be written to /afs/crc.nd.edu/user/c/cdrisko
GAMESS supplementary output files will be written to /afs/crc.nd.edu/user/c/cdrisko/scr
Copying input file SO2.inp to your run's scratch directory...

 Distributed Data Interface kickoff program.
 Initiating 1 compute processes on 1 nodes to run the following command:
 /afs/crc.nd.edu/x86_64_linux/g/gamess/nov-2017/gamess/gamess.00.x SO2 

          ******************************************************
          *         GAMESS VERSION = 11 NOV 2017 (R3)         *
          *             FROM IOWA STATE UNIVERSITY             *
          * M.W.SCHMIDT, K.K.BALDRIDGE, J.A.BOATZ, S.T.ELBERT, *
          *   M.S.GORDON, J.H.JENSEN, S.KOSEKI, N.MATSUNAGA,   *
          *          K.A.NGUYEN, S.J.SU, T.L.WINDUS,           *
          *       TOGETHER WITH M.DUPUIS, J.A.MONTGOMERY       *
          *         J.COMPUT.CHEM.  14, 1347-1363(1993)        *
          **************** 64 BIT INTEL VERSION ****************

  SINCE 1993, STUDENTS AND POSTDOCS WORKING AT IOWA STATE UNIVERSITY
  AND ALSO IN THEIR VARIOUS JOBS AFTER LEAVING ISU HAVE MADE IMPORTANT
  CONTRIBUTIONS TO THE CODE:
     IVANA ADAMOVIC, CHRISTINE AIKENS, YURI ALEXEEV, POOJA ARORA,
     ANDREY ASADCHEV, ROB BELL, PRADIPTA BANDYOPADHYAY, JONATHAN BENTZ,
     BRETT BODE, KURT BRORSEN, CALEB CARLIN, GALINA CHABAN, WEI CHEN,
     CHEOL HO CHOI, PAUL DAY, ALBERT DEFUSCO, NUWAN DESILVA, TIM DUDLEY,
     DMITRI FEDOROV, ALEX FINDLATER, GRAHAM FLETCHER, MARK FREITAG,
     KURT GLAESEMANN, ANASTASIA GUININA,
     DAN KEMP, GRANT MERRILL, NORIYUKI MINEZAWA, JONATHAN MULLIN,
     TAKESHI NAGATA, SEAN NEDD, HEATHER NETZLOFF, BOSILJKA NJEGIC, RYAN OLSON,
     MIKE PAK, BUU PHAM,
     SPENCER PRUITT, LUKE ROSKOP, JIM SHOEMAKER, LYUDMILA SLIPCHENKO,
     TONY SMITH, SAROM SOK LEANG, JIE SONG, TETSUYA TAKETSUGU, SIMON WEBB,
     PENG XU, SOOHAENG YOO, FEDERICO ZAHARIEV

  ADDITIONAL CODE HAS BEEN PROVIDED BY COLLABORATORS IN OTHER GROUPS:
     IOWA STATE UNIVERSITY:
          JOE IVANIC, AARON WEST, LAIMUTIS BYTAUTAS, KLAUS RUEDENBERG
     UNIVERSITY OF TOKYO: KIMIHIKO HIRAO, TAKAHITO NAKAJIMA,
          TAKAO TSUNEDA, MUNEAKI KAMIYA, SUSUMU YANAGISAWA,
          KIYOSHI YAGI, MAHITO CHIBA, SEIKEN TOKURA, NAOAKI KAWAKAMI
     UNIVERSITY OF AARHUS: FRANK JENSEN
     UNIVERSITY OF IOWA: VISVALDAS KAIRYS, HUI LI
     NATIONAL INST. OF STANDARDS AND TECHNOLOGY: WALT STEVENS, DAVID GARMER
     UNIVERSITY OF PISA: BENEDETTA MENNUCCI, JACOPO TOMASI
     UNIVERSITY OF MEMPHIS: HENRY KURTZ, PRAKASHAN KORAMBATH
     UNIVERSITY OF ALBERTA: TOBY ZENG, MARIUSZ KLOBUKOWSKI
     UNIVERSITY OF NEW ENGLAND: MARK SPACKMAN
     MIE UNIVERSITY: HIROAKI UMEDA
     NAT. INST. OF ADVANCED INDUSTRIAL SCIENCE AND TECHNOLOGY: KAZUO KITAURA
     MICHIGAN STATE UNIVERSITY:
          KAROL KOWALSKI, MARTA WLOCH, JEFFREY GOUR, JESSE LUTZ,
          WEI LI, PIOTR PIECUCH
     UNIVERSITY OF SILESIA: MONIKA MUSIAL, STANISLAW KUCHARSKI
     FACULTES UNIVERSITAIRES NOTRE-DAME DE LA PAIX:
          OLIVIER QUINET, BENOIT CHAMPAGNE
     UNIVERSITY OF CALIFORNIA - SANTA BARBARA: BERNARD KIRTMAN
     INSTITUTE FOR MOLECULAR SCIENCE:
          KAZUYA ISHIMURA, MICHIO KATOUDA, AND SHIGERU NAGASE
     UNIVERSITY OF NOTRE DAME: ANNA POMOGAEVA, DAN CHIPMAN
     KYUSHU UNIVERSITY:
          HARUYUKI NAKANO,
          FENG LONG GU, JACEK KORCHOWIEC, MARCIN MAKOWSKI, AND YURIKO AOKI,
          HIROTOSHI MORI AND EISAKU MIYOSHI
     PENNSYLVANIA STATE UNIVERSITY:
          TZVETELIN IORDANOV, CHET SWALINA, JONATHAN SKONE,
          SHARON HAMMES-SCHIFFER
     WASEDA UNIVERSITY:
          MASATO KOBAYASHI, TOMOKO AKAMA, TSUGUKI TOUMA,
          TAKESHI YOSHIKAWA, YASUHIRO IKABATA, JUNJI SEINO,
          YUYA NAKAJIMA, HIROMI NAKAI
     NANJING UNIVERSITY: SHUHUA LI
     UNIVERSITY OF NEBRASKA:
          PEIFENG SU, DEJUN SI, NANDUN THELLAMUREGE, YALI WANG, HUI LI
     UNIVERSITY OF ZURICH: ROBERTO PEVERATI, KIM BALDRIDGE
     N. COPERNICUS UNIVERSITY AND JACKSON STATE UNIVERSITY:
          MARIA BARYSZ
     UNIVERSITY OF COPENHAGEN: Jimmy Kromann, CASPER STEINMANN
     TOKYO INSTITUTE OF TECHNOLOGY: HIROYA NAKATA
     NAGOYA UNIVERSITY: YOSHIO NISHIMOTO, STEPHAN IRLE
     MOSCOW STATE UNIVERSITY: VLADIMIR MIRONOV

 EXECUTION OF GAMESS BEGUN Sun Sep 29 10:54:26 2019

            ECHO OF THE FIRST FEW INPUT CARDS -
 INPUT CARD> $BASIS GBASIS=PCSEG-1 $END                                                     
 INPUT CARD> $CONTRL COORD=ZMT ISPHER=1 RUNTYP=ENERGY DFTTYP=PBE MULT=1 $END                
 INPUT CARD>                                                                                
 INPUT CARD> $DATA                                                                          
 INPUT CARD>Title SO2 single-point calculation template with Z-Matrix                       
 INPUT CARD>C1                                                                              
 INPUT CARD>S                                                                               
 INPUT CARD>O 1 1.70                                                                        
 INPUT CARD>O 1 1.70 2 130                                                                  
 INPUT CARD> $END                                                                           
    1000000 WORDS OF MEMORY AVAILABLE

     BASIS OPTIONS
     -------------
     GBASIS=PCSEG-1      IGAUSS=       0      POLAR=NONE    
     NDFUNC=       0     NFFUNC=       0     DIFFSP=       F
     NPFUNC=       0      DIFFS=       F     BASNAM=        


     RUN TITLE
     ---------
 Title SO2 single-point calculation template with Z-Matrix                       

 THE POINT GROUP OF THE MOLECULE IS C1      
 THE ORDER OF THE PRINCIPAL AXIS IS     0

 YOUR FULLY SUBSTITUTED Z-MATRIX IS
 S   
 O      1   1.7000000
 O      1   1.7000000  2  130.0000

 THE MOMENTS OF INERTIA ARE (AMU-ANGSTROM**2)
 IXX=     8.254   IYY=    75.938   IZZ=    84.192

 ATOM      ATOMIC                      COORDINATES (BOHR)
           CHARGE         X                   Y                   Z
 S          16.0     0.0000000000       -0.6790261889        0.0000000000
 O           8.0     2.9115447427        0.6786494217        0.0000000000
 O           8.0    -2.9115447427        0.6786494217        0.0000000000

          INTERNUCLEAR DISTANCES (ANGS.)
          ------------------------------

                1 S          2 O          3 O     

   1 S       0.0000000    1.7000000 *  1.7000000 *
   2 O       1.7000000 *  0.0000000    3.0814465  
   3 O       1.7000000 *  3.0814465    0.0000000  

  * ... LESS THAN  3.000


     ATOMIC BASIS SET
     ----------------
 THE CONTRACTED PRIMITIVE FUNCTIONS HAVE BEEN UNNORMALIZED
 THE CONTRACTED BASIS FUNCTIONS ARE NOW NORMALIZED TO UNITY

  SHELL TYPE  PRIMITIVE        EXPONENT          CONTRACTION COEFFICIENT(S)

 S         

      1   S       1         49299.4000000    0.000677492991
      1   S       2          7395.8400000    0.005232317766
      1   S       3          1683.3000000    0.026769459077
      1   S       4           476.1440000    0.102869580705
      1   S       5           154.3290000    0.286438127414
      1   S       6            55.0288000    0.454278639081
      1   S       7            20.5029000    0.271743121997

      2   S       8            45.9596000   -0.088421914560
      2   S       9             4.9274000    0.564350486135
      2   S      10             1.9179900    0.505415953466

      3   S      11             0.3684980    1.000000000000

      4   S      12             0.1291650    1.000000000000

      5   P      13           451.6620000    0.003707705453
      5   P      14           106.0980000    0.029219352245
      5   P      15            33.6996000    0.124444551509
      5   P      16            12.3054000    0.321808587656
      5   P      17             4.7141200    0.462822172957
      5   P      18             1.7810500    0.266513371364

      6   P      19             0.8722350    0.349265132972
      6   P      20             0.3102780    0.717115018770

      7   P      21             0.1001940    1.000000000000

      8   D      22             0.5500000    1.000000000000

 O         

      9   S      23          2288.6400000    0.005451138222
      9   S      24           344.4160000    0.040718922842
      9   S      25            78.2538000    0.181369420873
      9   S      26            21.7195000    0.465536820246
      9   S      27             6.5590700    0.451211321214

     10   S      28            10.4656000   -0.150211201174
     10   S      29             0.9643510    1.052867983385

     11   S      30             0.2851270    1.000000000000

     12   P      31            17.0590000    0.068749256972
     12   P      32             3.6899900    0.351671941499
     12   P      33             0.9929960    0.724532099722

     13   P      34             0.2449240    1.000000000000

     14   D      35             1.0000000    1.000000000000

 O         

     15   S      36          2288.6400000    0.005451138222
     15   S      37           344.4160000    0.040718922842
     15   S      38            78.2538000    0.181369420873
     15   S      39            21.7195000    0.465536820246
     15   S      40             6.5590700    0.451211321214

     16   S      41            10.4656000   -0.150211201174
     16   S      42             0.9643510    1.052867983385

     17   S      43             0.2851270    1.000000000000

     18   P      44            17.0590000    0.068749256972
     18   P      45             3.6899900    0.351671941499
     18   P      46             0.9929960    0.724532099722

     19   P      47             0.2449240    1.000000000000

     20   D      48             1.0000000    1.000000000000

 TOTAL NUMBER OF BASIS SET SHELLS             =   20
 NUMBER OF CARTESIAN GAUSSIAN BASIS FUNCTIONS =   49
 NOTE: THIS RUN WILL RESTRICT THE MO VARIATION SPACE TO SPHERICAL HARMONICS.
 THE NUMBER OF ORBITALS KEPT IN THE VARIATIONAL SPACE WILL BE PRINTED LATER.
 NUMBER OF ELECTRONS                          =   32
 CHARGE OF MOLECULE                           =    0
 SPIN MULTIPLICITY                            =    1
 NUMBER OF OCCUPIED ORBITALS (ALPHA)          =   16
 NUMBER OF OCCUPIED ORBITALS (BETA )          =   16
 TOTAL NUMBER OF ATOMS                        =    3
 THE NUCLEAR REPULSION ENERGY IS       90.6785973826

     LEBEDEV GRID-BASED DFT OPTIONS
     ------------------------------
     DFTTYP=PBE     
     NRAD  =      96     NLEB  =     302
     NRAD0 =      24     NLEB0 =     110
     SWOFF =    5.00E-03 (PURE SCF -> DFT)
     SWITCH=    3.00E-04 (COARSE -> TIGHT GRID)
     THRESH=    0.00E+00 GTHRE=    1.00E+00

 GRIMME'S EMPIRICAL DISPERSION CORRECTION= F

     $CONTRL OPTIONS
     ---------------
 SCFTYP=RHF          RUNTYP=ENERGY       EXETYP=RUN     
 MPLEVL=       0     CITYP =NONE         CCTYP =NONE         VBTYP =NONE    
 DFTTYP=PBE          TDDFT =NONE    
 MULT  =       1     ICHARG=       0     NZVAR =       0     COORD =ZMT     
 PP    =NONE         RELWFN=NONE         LOCAL =NONE         NUMGRD=       F
 ISPHER=       1     NOSYM =       0     MAXIT =      30     UNITS =ANGS    
 PLTORB=       F     MOLPLT=       F     AIMPAC=       F     FRIEND=        
 NPRINT=       7     IREST =       0     GEOM  =INPUT   
 NORMF =       0     NORMP =       0     ITOL  =      20     ICUT  =       9
 INTTYP=BEST         GRDTYP=BEST         QMTTOL= 1.0E-06

     $SYSTEM OPTIONS
     ---------------
  REPLICATED MEMORY=     1000000 WORDS (ON EVERY NODE).
 DISTRIBUTED MEMDDI=           0 MILLION WORDS IN AGGREGATE,
 MEMDDI DISTRIBUTED OVER   1 PROCESSORS IS           0 WORDS/PROCESSOR.
 TOTAL MEMORY REQUESTED ON EACH PROCESSOR=     1000000 WORDS.
 TIMLIM=      525600.00 MINUTES, OR     365.0 DAYS.
 PARALL= F  BALTYP=  DLB     KDIAG=    0  COREFL= F
 MXSEQ2=     300 MXSEQ3=     150  mem10=         0

          ----------------
          PROPERTIES INPUT
          ----------------

     MOMENTS            FIELD           POTENTIAL          DENSITY
 IEMOM =       1   IEFLD =       0   IEPOT =       0   IEDEN =       0
 WHERE =COMASS     WHERE =NUCLEI     WHERE =NUCLEI     WHERE =NUCLEI  
 OUTPUT=BOTH       OUTPUT=BOTH       OUTPUT=BOTH       OUTPUT=BOTH    
 IEMINT=       0   IEFINT=       0                     IEDINT=       0
                                                       MORB  =       0
          EXTRAPOLATION IN EFFECT
          DIIS IN EFFECT
 ORBITAL PRINTING OPTION: NPREO=     1    49     2     1

     -------------------------------
     INTEGRAL TRANSFORMATION OPTIONS
     -------------------------------
     NWORD  =            0
     CUTOFF = 1.0E-09     MPTRAN =       0
     DIRTRF =       F     AOINTS =DUP     

          ----------------------
          INTEGRAL INPUT OPTIONS
          ----------------------
 NOPK  =       1 NORDER=       0 SCHWRZ=       F

   --- ENCODED Z MATRIX ---
 COORD  TYPE   I   J   K   L   M   N
    1      1    2   1
    2      1    3   1
    3      2    3   1   2

 THE DETERMINANT OF THE G MATRIX IS 10**(    -4)

 THE DETERMINANT OF THE G MATRIX IS 10**(    -4)
 * * * WARNING * * *
 YOUR B MATRIX HAS A SMALL DETERMINANT.
 THIS SUGGESTS YOU MAY HAVE BADLY CHOSEN COORDINATES.

     ------------------------------------------
     THE POINT GROUP IS C1 , NAXIS= 0, ORDER= 1
     ------------------------------------------

 -- VARIATIONAL SPACE WILL BE RESTRICTED TO PURE SPHERICAL HARMONICS ONLY --
 AFTER EXCLUDING CONTAMINANT COMBINATIONS FROM THE CARTESIAN GAUSSIAN BASIS
 SET, THE NUMBER OF SPHERICAL HARMONICS KEPT IN THE VARIATION SPACE IS   46

     DIMENSIONS OF THE SYMMETRY SUBSPACES ARE
 A   =   46

 ..... DONE SETTING UP THE RUN .....
 STEP CPU TIME =     0.03 TOTAL CPU TIME =          0.0 (      0.0 MIN)
 TOTAL WALL CLOCK TIME=          0.0 SECONDS, CPU UTILIZATION IS   100.00%

          ********************
          1 ELECTRON INTEGRALS
          ********************
 ...... END OF ONE-ELECTRON INTEGRALS ......
 STEP CPU TIME =     0.00 TOTAL CPU TIME =          0.0 (      0.0 MIN)
 TOTAL WALL CLOCK TIME=          0.0 SECONDS, CPU UTILIZATION IS   100.00%

          -------------
          GUESS OPTIONS
          -------------
          GUESS =HUCKEL            NORB  =       0          NORDER=       0
          MIX   =       F          PRTMO =       F          PUNMO =       F
          TOLZ  = 1.0E-08          TOLE  = 1.0E-05
          SYMDEN=       F          PURIFY=       F

 INITIAL GUESS ORBITALS GENERATED BY HUCKEL   ROUTINE.
 HUCKEL GUESS REQUIRES     21634 WORDS.

 STATISTICS FOR GENERATION OF SYMMETRY ORBITAL -Q- MATRIX
 NUMBER OF CARTESIAN ATOMIC ORBITALS=         49
 NUMBER OF SPHERICAL CONTAMINANTS DROPPED=     3
 NUMBER OF LINEARLY DEPENDENT MOS DROPPED=     0
 TOTAL NUMBER OF MOS IN VARIATION SPACE=      46

 SYMMETRIES FOR INITIAL GUESS ORBITALS FOLLOW.   BOTH SET(S).
    16 ORBITALS ARE OCCUPIED (    7 CORE ORBITALS).
     8=A        9=A       10=A       11=A       12=A       13=A       14=A   
    15=A       16=A       17=A       18=A       19=A       20=A       21=A   
    22=A       23=A       24=A       25=A       26=A   
 ...... END OF INITIAL ORBITAL SELECTION ......
 STEP CPU TIME =     0.01 TOTAL CPU TIME =          0.0 (      0.0 MIN)
 TOTAL WALL CLOCK TIME=          0.0 SECONDS, CPU UTILIZATION IS   100.00%

                    ----------------------
                    AO INTEGRAL TECHNOLOGY
                    ----------------------
     S,P,L SHELL ROTATED AXIS INTEGRALS, REPROGRAMMED BY
        KAZUYA ISHIMURA (IMS) AND JOSE SIERRA (SYNSTAR).
     S,P,D,L SHELL ROTATED AXIS INTEGRALS PROGRAMMED BY
        KAZUYA ISHIMURA (INSTITUTE FOR MOLECULAR SCIENCE).
     S,P,D,F,G SHELL TO TOTAL QUARTET ANGULAR MOMENTUM SUM 5,
        ERIC PROGRAM BY GRAHAM FLETCHER (ELORET AND NASA ADVANCED
        SUPERCOMPUTING DIVISION, AMES RESEARCH CENTER).
     S,P,D,F,G,L SHELL GENERAL RYS QUADRATURE PROGRAMMED BY
        MICHEL DUPUIS (PACIFIC NORTHWEST NATIONAL LABORATORY).

          --------------------
          2 ELECTRON INTEGRALS
          --------------------

 THE -PK- OPTION IS OFF, THE INTEGRALS ARE NOT IN SUPERMATRIX FORM.
 STORING   15000 INTEGRALS/RECORD ON DISK, USING 12 BYTES/INTEGRAL.
 TWO ELECTRON INTEGRAL EVALUATION REQUIRES   90606 WORDS OF MEMORY.
 II,JST,KST,LST =  1  1  1  1 NREC =         1 INTLOC =    1
 II,JST,KST,LST =  2  1  1  1 NREC =         1 INTLOC =    2
 II,JST,KST,LST =  3  1  1  1 NREC =         1 INTLOC =    7
 II,JST,KST,LST =  4  1  1  1 NREC =         1 INTLOC =   22
 II,JST,KST,LST =  5  1  1  1 NREC =         1 INTLOC =   56
 II,JST,KST,LST =  6  1  1  1 NREC =         1 INTLOC =  125
 II,JST,KST,LST =  7  1  1  1 NREC =         1 INTLOC =  329
 II,JST,KST,LST =  8  1  1  1 NREC =         1 INTLOC =  776
 II,JST,KST,LST =  9  1  1  1 NREC =         1 INTLOC = 2864
 II,JST,KST,LST = 10  1  1  1 NREC =         1 INTLOC = 4833
 II,JST,KST,LST = 11  1  1  1 NREC =         1 INTLOC = 7483
 II,JST,KST,LST = 12  1  1  1 NREC =         1 INTLOC =10589
 II,JST,KST,LST = 13  1  1  1 NREC =         2 INTLOC = 6418
 II,JST,KST,LST = 14  1  1  1 NREC =         3 INTLOC = 6634
 II,JST,KST,LST = 15  1  1  1 NREC =         6 INTLOC = 8400
 II,JST,KST,LST = 16  1  1  1 NREC =         7 INTLOC =   57
 II,JST,KST,LST = 17  1  1  1 NREC =         7 INTLOC =10272
 II,JST,KST,LST = 18  1  1  1 NREC =         8 INTLOC = 8492
 II,JST,KST,LST = 19  1  1  1 NREC =        10 INTLOC =12958
 II,JST,KST,LST = 20  1  1  1 NREC =        14 INTLOC = 3643
 TOTAL NUMBER OF NONZERO TWO-ELECTRON INTEGRALS =              315015
         22 INTEGRAL RECORDS WERE STORED ON DISK FILE  8.
  ...... END OF TWO-ELECTRON INTEGRALS .....
 STEP CPU TIME =     0.09 TOTAL CPU TIME =          0.1 (      0.0 MIN)
 TOTAL WALL CLOCK TIME=          0.1 SECONDS, CPU UTILIZATION IS   100.00%

          --------------------------
               R-PBE SCF CALCULATION
          --------------------------

     NUCLEAR ENERGY =        90.6785973826
     MAXIT =   30     NPUNCH=    2
     EXTRAP=T  DAMP=F  SHIFT=F  RSTRCT=F  DIIS=T  DEM=F  SOSCF=F
         DENSITY MATRIX CONVERGENCE THRESHOLD=  1.00E-05
     COARSE -> FINE DFT GRID SWITCH THRESHOLD=  3.00E-04 (SWITCH IN $DFT)
                   HF -> DFT SWITCH THRESHOLD=  5.00E-03 (SWOFF IN $DFT)
     MEMORY REQUIRED FOR RHF ITERS=    183108 WORDS.

 DFT CODE IS SWITCHING FROM THE FINE GRID NRAD= 96,  NLEB=  302
                      TO THE COARSE GRID NRAD0= 24, NLEB0=  110

     EXCHANGE FUNCTIONAL   =PBE       
     CORRELATION FUNCTIONAL=PBE       
     DFT THRESHOLD         =.460E-07
     GRID CHANGE THRESHOLD =.300E-03
 FOR AN EULER-MACLAURIN QUADRATURE USING  96 RADIAL POINTS:
 SMALLEST GAUSSIAN PRIMITIVE EXPONENT=        0.1001940000 OF TYPE -P-
 ON ATOM NUMBER   1 HAS RADIAL NORMALIZATION=  1.000000
  LARGEST GAUSSIAN PRIMITIVE EXPONENT=    49299.4000000000 OF TYPE -S-
 ON ATOM NUMBER   1 HAS RADIAL NORMALIZATION=  1.000000
 DFT IS SWITCHED OFF, PERFORMING PURE SCF UNTIL SWOFF THRESHOLD IS REACHED.

 ITER EX DEM     TOTAL ENERGY        E CHANGE  DENSITY CHANGE    DIIS ERROR
   1  0  0     -545.9490575677  -545.9490575677   0.709457155   0.790044177
          * * *   INITIATING DIIS PROCEDURE   * * *
   2  1  0     -546.3878964239    -0.4388388562   0.830250560   0.375655532
   3  2  0     -546.3220716432     0.0658247807   0.360399615   0.398338685
   4  3  0     -546.9612948260    -0.6392231828   0.044725386   0.012334315
   5  4  0     -546.9625690212    -0.0012741952   0.011409466   0.007876986
   6  5  0     -546.9628034921    -0.0002344709   0.004922340   0.002208281
 CONVERGED TO SWOFF, SO DFT CALCULATION IS NOW SWITCHED ON.
          * * *   INITIATING DIIS PROCEDURE   * * *
   7  6  0     -548.1295501967    -1.1667467046   0.518703490   0.103969751
   8  7  0     -548.1032013364     0.0263488603   0.456129148   0.157605114
   9  8  0     -548.1169622775    -0.0137609411   0.140485326   0.154701670
  10  9  0     -548.1791756350    -0.0622133575   0.034435334   0.014731869
  11 10  0     -548.1800205790    -0.0008449440   0.003030242   0.001766315
  12 11  0     -548.1800311242    -0.0000105453   0.000847517   0.000430442
  13 12  0     -548.1800316527    -0.0000005285   0.000366021   0.000271547
  14 13  0     -548.1800315360     0.0000001167   0.000225776   0.000392866
 DFT CODE IS SWITCHING BACK TO THE FINE GRID
          * * *   INITIATING DIIS PROCEDURE   * * *
  15 14  0     -548.1888563232    -0.0088247872   0.024099106   0.013351076
  16 15  0     -548.1889842781    -0.0001279549   0.029795121   0.008193316
  17 16  0     -548.1885833657     0.0004009124   0.020024231   0.015583087
  18 17  0     -548.1891990434    -0.0006156777   0.000728984   0.000617447
  19 18  0     -548.1891982817     0.0000007616   0.001004405   0.001100184
  20 19  0     -548.1891992437    -0.0000009619   0.000436371   0.000757520
  21 20  0     -548.1892001260    -0.0000008824   0.000064653   0.000025470
  22 21  0     -548.1892001282    -0.0000000021   0.000010681   0.000006382
  23 22  0     -548.1892001283    -0.0000000001   0.000000699   0.000000488
  24 23  0     -548.1892001283    -0.0000000000   0.000000026   0.000000011

          -----------------
          DENSITY CONVERGED
          -----------------
     TIME TO FORM FOCK OPERATORS=       2.7 SECONDS (       0.1 SEC/ITER)
     TIME TO SOLVE SCF EQUATIONS=       0.0 SECONDS (       0.0 SEC/ITER)

 FINAL R-PBE ENERGY IS     -548.1892001283 AFTER  24 ITERATIONS
 DFT EXCHANGE + CORRELATION ENERGY =       -42.2458209436
 TOTAL ELECTRON NUMBER             =        32.0000175888

          ------------
          EIGENVECTORS
          ------------

                      1          2          3          4          5
                  -88.2325   -18.8299   -18.8299    -7.8453    -5.8718
                     A          A          A          A          A   
    1  S  1  S    0.997764   0.000004   0.000000  -0.308401  -0.000000
    2  S  1  S    0.008203  -0.000094  -0.000001   1.031845   0.000000
    3  S  1  S   -0.002833  -0.000694  -0.000008   0.027484   0.000000
    4  S  1  S    0.001020   0.006499   0.000078  -0.005711  -0.000000
    5  S  1  X   -0.000000   0.000002  -0.000165  -0.000000   0.994698
    6  S  1  Y    0.000103  -0.000125  -0.000001   0.009914  -0.000001
    7  S  1  Z    0.000000   0.000000   0.000000   0.000000   0.000000
    8  S  1  X    0.000000  -0.000020   0.001648  -0.000000   0.017077
    9  S  1  Y   -0.000187   0.001007   0.000012   0.000882  -0.000000
   10  S  1  Z    0.000000   0.000000   0.000000   0.000000   0.000000
   11  S  1  X    0.000000  -0.000051   0.004278  -0.000000  -0.002445
   12  S  1  Y    0.000024   0.002262   0.000027  -0.000154   0.000000
   13  S  1  Z    0.000000   0.000000   0.000000   0.000000   0.000000
   14  S  1 XX   -0.000157   0.000955   0.000011   0.000702  -0.000000
   15  S  1 YY    0.000052  -0.000180  -0.000002  -0.000309  -0.000000
   16  S  1 ZZ    0.000105  -0.000775  -0.000009  -0.000393   0.000000
   17  S  1 XY    0.000000  -0.000009   0.000746  -0.000000   0.001195
   18  S  1 XZ    0.000000   0.000000   0.000000   0.000000   0.000000
   19  S  1 YZ    0.000000   0.000000   0.000000   0.000000   0.000000
   20  O  2  S   -0.000007   0.693936   0.710633   0.000026  -0.000069
   21  O  2  S   -0.000112   0.023253   0.023754   0.000068  -0.000053
   22  O  2  S    0.000158  -0.010590  -0.010885  -0.000325  -0.000784
   23  O  2  X    0.000012  -0.000886  -0.000699   0.000183   0.000082
   24  O  2  Y    0.000009  -0.000213  -0.000447   0.000074   0.000061
   25  O  2  Z    0.000000   0.000000   0.000000   0.000000   0.000000
   26  O  2  X   -0.000264   0.002739   0.001721   0.000788   0.001068
   27  O  2  Y   -0.000133   0.000527   0.001434   0.000417   0.000528
   28  O  2  Z    0.000000   0.000000   0.000000   0.000000   0.000000
   29  O  2 XX    0.000138  -0.000305  -0.000151  -0.000313   0.000133
   30  O  2 YY   -0.000041   0.000110   0.000004   0.000090  -0.000056
   31  O  2 ZZ   -0.000096   0.000195   0.000147   0.000223  -0.000077
   32  O  2 XY    0.000129  -0.000187  -0.000216  -0.000306   0.000070
   33  O  2 XZ    0.000000   0.000000   0.000000   0.000000   0.000000
   34  O  2 YZ    0.000000   0.000000   0.000000   0.000000   0.000000
   35  O  3  S   -0.000007   0.710635  -0.693934   0.000026   0.000069
   36  O  3  S   -0.000112   0.023812  -0.023194   0.000068   0.000053
   37  O  3  S    0.000158  -0.010847   0.010630  -0.000325   0.000784
   38  O  3  X   -0.000012   0.000902  -0.000678  -0.000183   0.000082
   39  O  3  Y    0.000009  -0.000223   0.000442   0.000074  -0.000061
   40  O  3  Z    0.000000   0.000000   0.000000   0.000000   0.000000
   41  O  3  X    0.000264  -0.002779   0.001655  -0.000788   0.001068
   42  O  3  Y   -0.000133   0.000562  -0.001421   0.000417  -0.000528
   43  O  3  Z    0.000000   0.000000   0.000000   0.000000   0.000000
   44  O  3 XX    0.000138  -0.000309   0.000143  -0.000313  -0.000133
   45  O  3 YY   -0.000041   0.000110  -0.000001   0.000090   0.000056
   46  O  3 ZZ   -0.000096   0.000199  -0.000142   0.000223   0.000077
   47  O  3 XY   -0.000129   0.000192  -0.000211   0.000306   0.000070
   48  O  3 XZ    0.000000   0.000000   0.000000   0.000000   0.000000
   49  O  3 YZ    0.000000   0.000000   0.000000   0.000000   0.000000

                      6          7          8          9         10
                   -5.8696    -5.8666    -0.9557    -0.9080    -0.6366
                     A          A          A          A          A   
    1  S  1  S    0.000000   0.003086   0.044830  -0.000000   0.072708
    2  S  1  S    0.000000  -0.010603  -0.277470   0.000000  -0.463919
    3  S  1  S    0.000000  -0.000102   0.393948  -0.000001   0.706068
    4  S  1  S    0.000000   0.000674   0.085328   0.000003   0.262611
    5  S  1  X    0.000000   0.000001  -0.000000   0.092640   0.000000
    6  S  1  Y    0.000000   0.994961  -0.038965  -0.000000   0.015709
    7  S  1  Z    0.995018   0.000000   0.000000   0.000000   0.000000
    8  S  1  X    0.000000   0.000000   0.000000  -0.209847   0.000000
    9  S  1  Y    0.000000   0.015812   0.088304   0.000000  -0.032944
   10  S  1  Z    0.015746   0.000000   0.000000   0.000000   0.000000
   11  S  1  X    0.000000  -0.000000   0.000003   0.003888  -0.000001
   12  S  1  Y    0.000000  -0.002882  -0.008190   0.000001  -0.024544
   13  S  1  Z   -0.003103   0.000000   0.000000   0.000000   0.000000
   14  S  1 XX    0.000000  -0.000104   0.039441   0.000000  -0.012405
   15  S  1 YY    0.000000   0.000588  -0.012726  -0.000000   0.000688
   16  S  1 ZZ    0.000000  -0.000483  -0.026716  -0.000000   0.011716
   17  S  1 XY    0.000000   0.000000   0.000000  -0.046196  -0.000000
   18  S  1 XZ   -0.000000   0.000000   0.000000   0.000000   0.000000
   19  S  1 YZ    0.000549   0.000000   0.000000   0.000000   0.000000
   20  O  2  S    0.000000  -0.000038  -0.143146   0.166689   0.108845
   21  O  2  S    0.000000  -0.000055   0.293968  -0.346302  -0.232886
   22  O  2  S    0.000000  -0.000227   0.287394  -0.341297  -0.286958
   23  O  2  X    0.000000   0.000023  -0.080015   0.070128  -0.108461
   24  O  2  Y    0.000000  -0.000032  -0.034640   0.033345  -0.052369
   25  O  2  Z   -0.000061   0.000000   0.000000   0.000000   0.000000
   26  O  2  X    0.000000   0.000478  -0.038279   0.027153  -0.051542
   27  O  2  Y    0.000000   0.000083  -0.014823   0.014434  -0.020178
   28  O  2  Z   -0.000051   0.000000   0.000000   0.000000   0.000000
   29  O  2 XX    0.000000  -0.000025   0.008641  -0.006369   0.004382
   30  O  2 YY    0.000000   0.000091  -0.004690   0.003793  -0.000066
   31  O  2 ZZ    0.000000  -0.000067  -0.003951   0.002575  -0.004316
   32  O  2 XY    0.000000   0.000224   0.006431  -0.005874   0.004464
   33  O  2 XZ    0.000182   0.000000   0.000000   0.000000   0.000000
   34  O  2 YZ    0.000078   0.000000   0.000000   0.000000   0.000000
   35  O  3  S    0.000000  -0.000038  -0.143146  -0.166689   0.108845
   36  O  3  S    0.000000  -0.000055   0.293968   0.346302  -0.232887
   37  O  3  S    0.000000  -0.000227   0.287399   0.341292  -0.286960
   38  O  3  X    0.000000  -0.000023   0.080015   0.070128   0.108461
   39  O  3  Y    0.000000  -0.000032  -0.034640  -0.033345  -0.052369
   40  O  3  Z   -0.000061   0.000000   0.000000   0.000000   0.000000
   41  O  3  X    0.000000  -0.000478   0.038280   0.027150   0.051543
   42  O  3  Y    0.000000   0.000083  -0.014824  -0.014433  -0.020177
   43  O  3  Z   -0.000051   0.000000   0.000000   0.000000   0.000000
   44  O  3 XX    0.000000  -0.000025   0.008641   0.006368   0.004382
   45  O  3 YY    0.000000   0.000091  -0.004690  -0.003793  -0.000066
   46  O  3 ZZ    0.000000  -0.000067  -0.003951  -0.002575  -0.004316
   47  O  3 XY    0.000000  -0.000224  -0.006431  -0.005873  -0.004464
   48  O  3 XZ   -0.000182   0.000000   0.000000   0.000000   0.000000
   49  O  3 YZ    0.000078   0.000000   0.000000   0.000000   0.000000

                     11         12         13         14         15
                   -0.4383    -0.4011    -0.3996    -0.3172    -0.3038
                     A          A          A          A          A   
    1  S  1  S    0.000000  -0.011567   0.000000   0.000000   0.000000
    2  S  1  S   -0.000000   0.073858   0.000000   0.000000  -0.000000
    3  S  1  S    0.000000  -0.094664   0.000000   0.000000  -0.000001
    4  S  1  S   -0.000001  -0.156892   0.000000   0.000000   0.000003
    5  S  1  X   -0.187315  -0.000000   0.000000   0.000000  -0.020527
    6  S  1  Y    0.000000  -0.218970   0.000000   0.000000   0.000000
    7  S  1  Z    0.000000   0.000000  -0.219548  -0.000000   0.000000
    8  S  1  X    0.503811   0.000000   0.000000   0.000000   0.055698
    9  S  1  Y   -0.000000   0.592140   0.000000   0.000000  -0.000001
   10  S  1  Z    0.000000   0.000000   0.597529   0.000000   0.000000
   11  S  1  X    0.015723   0.000002   0.000000   0.000000   0.096465
   12  S  1  Y   -0.000001   0.149056   0.000000   0.000000   0.000001
   13  S  1  Z    0.000000   0.000000   0.182281   0.000000   0.000000
   14  S  1 XX   -0.000000  -0.010395   0.000000   0.000000  -0.000000
   15  S  1 YY    0.000000   0.032279   0.000000   0.000000   0.000000
   16  S  1 ZZ    0.000000  -0.021884   0.000000   0.000000   0.000000
   17  S  1 XY    0.041530   0.000000   0.000000   0.000000  -0.083923
   18  S  1 XZ    0.000000   0.000000  -0.000000   0.090947   0.000000
   19  S  1 YZ    0.000000   0.000000   0.032197   0.000000   0.000000
   20  O  2  S    0.063457   0.021087   0.000000   0.000000   0.002017
   21  O  2  S   -0.137264  -0.045667   0.000000   0.000000  -0.001315
   22  O  2  S   -0.196039  -0.069439   0.000000   0.000000  -0.039976
   23  O  2  X   -0.310877  -0.261050   0.000000   0.000000   0.273759
   24  O  2  Y   -0.183189   0.139253   0.000000   0.000000  -0.382661
   25  O  2  Z    0.000000   0.000000   0.291859   0.470538   0.000000
   26  O  2  X   -0.168106  -0.164531   0.000000   0.000000   0.190747
   27  O  2  Y   -0.107685   0.090984   0.000000   0.000000  -0.266135
   28  O  2  Z    0.000000   0.000000   0.182077   0.334728   0.000000
   29  O  2 XX    0.007564   0.014779   0.000000   0.000000  -0.010206
   30  O  2 YY   -0.000156  -0.010391   0.000000   0.000000   0.010411
   31  O  2 ZZ   -0.007408  -0.004388   0.000000   0.000000  -0.000205
   32  O  2 XY    0.011247  -0.003924   0.000000   0.000000   0.009210
   33  O  2 XZ    0.000000   0.000000  -0.014635  -0.014050   0.000000
   34  O  2 YZ    0.000000   0.000000  -0.006479  -0.006969   0.000000
   35  O  3  S   -0.063457   0.021087   0.000000   0.000000  -0.002017
   36  O  3  S    0.137262  -0.045668   0.000000   0.000000   0.001315
   37  O  3  S    0.196041  -0.069437   0.000000   0.000000   0.039974
   38  O  3  X   -0.310877   0.261050   0.000000   0.000000   0.273758
   39  O  3  Y    0.183189   0.139254   0.000000   0.000000   0.382662
   40  O  3  Z    0.000000   0.000000   0.291859  -0.470537   0.000000
   41  O  3  X   -0.168105   0.164532   0.000000   0.000000   0.190746
   42  O  3  Y    0.107685   0.090984   0.000000   0.000000   0.266137
   43  O  3  Z    0.000000   0.000000   0.182078  -0.334728   0.000000
   44  O  3 XX   -0.007564   0.014779   0.000000   0.000000   0.010205
   45  O  3 YY    0.000156  -0.010391   0.000000   0.000000  -0.010411
   46  O  3 ZZ    0.007408  -0.004388   0.000000   0.000000   0.000205
   47  O  3 XY    0.011247   0.003924   0.000000   0.000000   0.009210
   48  O  3 XZ    0.000000   0.000000   0.014635  -0.014050   0.000000
   49  O  3 YZ    0.000000   0.000000  -0.006479   0.006969   0.000000

                     16         17         18         19         20
                   -0.2855    -0.2189    -0.1316    -0.0237     0.2176
                     A          A          A          A          A   
    1  S  1  S    0.020131   0.000000   0.025731   0.000000   0.000000
    2  S  1  S   -0.130686   0.000000  -0.172119  -0.000000   0.000000
    3  S  1  S    0.168166   0.000000   0.279321  -0.000001   0.000000
    4  S  1  S    0.334513   0.000000   0.357210  -0.000000   0.000000
    5  S  1  X    0.000000   0.000000   0.000000  -0.227898   0.000000
    6  S  1  Y    0.073281   0.000000  -0.203386  -0.000000   0.000000
    7  S  1  Z    0.000000  -0.217798   0.000000   0.000000   0.251039
    8  S  1  X    0.000000   0.000000   0.000000   0.705455   0.000000
    9  S  1  Y   -0.202999   0.000000   0.615399   0.000001   0.000000
   10  S  1  Z    0.000000   0.634871   0.000000   0.000000  -0.994933
   11  S  1  X   -0.000001   0.000000  -0.000008   0.760209   0.000000
   12  S  1  Y    0.001955   0.000000   0.368924   0.000001   0.000000
   13  S  1  Z    0.000000   0.243631   0.000000   0.000000   1.305279
   14  S  1 XX   -0.120934   0.000000  -0.105805  -0.000002   0.000000
   15  S  1 YY    0.069764   0.000000   0.007883   0.000000   0.000000
   16  S  1 ZZ    0.051170   0.000000   0.097921   0.000001   0.000000
   17  S  1 XY    0.000000   0.000000   0.000001  -0.164452   0.000000
   18  S  1 XZ    0.000000  -0.000000   0.000000   0.000000  -0.000000
   19  S  1 YZ    0.000000  -0.032334   0.000000   0.000000  -0.078565
   20  O  2  S   -0.000280   0.000000   0.033199   0.054081   0.000000
   21  O  2  S    0.003388   0.000000  -0.073171  -0.108858   0.000000
   22  O  2  S   -0.041504   0.000000  -0.207094  -0.429605   0.000000
   23  O  2  X    0.123953   0.000000   0.396086   0.198372   0.000000
   24  O  2  Y    0.441017   0.000000  -0.084666   0.264286   0.000000
   25  O  2  Z    0.000000  -0.397893   0.000000   0.000000  -0.068420
   26  O  2  X    0.091502   0.000000   0.331275   0.217164   0.000000
   27  O  2  Y    0.315014   0.000000  -0.064063   0.233060   0.000000
   28  O  2  Z    0.000000  -0.299890   0.000000   0.000000  -0.126846
   29  O  2 XX    0.001114   0.000000   0.001583  -0.003301   0.000000
   30  O  2 YY   -0.004728   0.000000  -0.003081   0.005527   0.000000
   31  O  2 ZZ    0.003613   0.000000   0.001497  -0.002225   0.000000
   32  O  2 XY   -0.010758   0.000000  -0.004002   0.005806   0.000000
   33  O  2 XZ    0.000000   0.001637   0.000000   0.000000   0.011566
   34  O  2 YZ    0.000000   0.000392   0.000000   0.000000   0.004082
   35  O  3  S   -0.000280   0.000000   0.033200  -0.054081   0.000000
   36  O  3  S    0.003388   0.000000  -0.073172   0.108852   0.000000
   37  O  3  S   -0.041505   0.000000  -0.207100   0.429609   0.000000
   38  O  3  X   -0.123955   0.000000  -0.396088   0.198366   0.000000
   39  O  3  Y    0.441016   0.000000  -0.084664  -0.264287   0.000000
   40  O  3  Z    0.000000  -0.397893   0.000000   0.000000  -0.068420
   41  O  3  X   -0.091503   0.000000  -0.331276   0.217165   0.000000
   42  O  3  Y    0.315012   0.000000  -0.064060  -0.233061   0.000000
   43  O  3  Z    0.000000  -0.299890   0.000000   0.000000  -0.126845
   44  O  3 XX    0.001114   0.000000   0.001583   0.003301   0.000000
   45  O  3 YY   -0.004728   0.000000  -0.003081  -0.005527   0.000000
   46  O  3 ZZ    0.003613   0.000000   0.001498   0.002225   0.000000
   47  O  3 XY    0.010758   0.000000   0.004002   0.005806   0.000000
   48  O  3 XZ    0.000000  -0.001636   0.000000   0.000000  -0.011566
   49  O  3 YZ    0.000000   0.000392   0.000000   0.000000   0.004082

                     21         22         23         24         25
                    0.2226     0.2373     0.2383     0.4785     0.4953
                     A          A          A          A          A   
    1  S  1  S    0.020630   0.000031  -0.063328   0.000000   0.000229
    2  S  1  S   -0.150637  -0.000229   0.467859   0.000000  -0.001520
    3  S  1  S    0.515469   0.000899  -1.837217   0.000000   0.006501
    4  S  1  S   -0.451055  -0.001047   2.126999   0.000000  -0.024070
    5  S  1  X   -0.000002   0.262992   0.000128   0.000000  -0.000000
    6  S  1  Y    0.244558  -0.000023   0.050479   0.000000   0.028202
    7  S  1  Z    0.000000   0.000000   0.000000   0.000000   0.000000
    8  S  1  X    0.000009  -1.023245  -0.000496   0.000000   0.000001
    9  S  1  Y   -0.966288   0.000089  -0.199786   0.000000  -0.113763
   10  S  1  Z    0.000000   0.000000   0.000000  -0.000000   0.000000
   11  S  1  X   -0.000011   1.523209   0.000743   0.000000  -0.000001
   12  S  1  Y    1.264538  -0.000255   0.539944   0.000000   0.064616
   13  S  1  Z    0.000000   0.000000   0.000000   0.000000   0.000000
   14  S  1 XX    0.090192   0.000033  -0.074566   0.000000  -0.202947
   15  S  1 YY   -0.101511   0.000008  -0.015745   0.000000   0.890333
   16  S  1 ZZ    0.011319  -0.000041   0.090310   0.000000  -0.687387
   17  S  1 XY    0.000000   0.030803   0.000017   0.000000   0.000000
   18  S  1 XZ    0.000000   0.000000   0.000000   0.857361   0.000000
   19  S  1 YZ    0.000000   0.000000   0.000000  -0.000001   0.000000
   20  O  2  S    0.003372   0.013582   0.023976   0.000000  -0.001281
   21  O  2  S    0.011829   0.026492  -0.032916   0.000000   0.002721
   22  O  2  S   -0.121877  -0.476282  -0.410020   0.000000   0.003384
   23  O  2  X   -0.032140  -0.230196  -0.092910   0.000000   0.093255
   24  O  2  Y   -0.057031  -0.055556  -0.116706   0.000000  -0.210313
   25  O  2  Z    0.000000   0.000000   0.000000  -0.339644   0.000000
   26  O  2  X    0.028865  -0.026599   0.171356   0.000000  -0.069002
   27  O  2  Y   -0.112510   0.051702   0.023939   0.000000   0.103875
   28  O  2  Z    0.000000   0.000000   0.000000   0.172115   0.000000
   29  O  2 XX   -0.012621  -0.022271  -0.026959   0.000000   0.023935
   30  O  2 YY    0.009404   0.004851   0.006617   0.000000  -0.010223
   31  O  2 ZZ    0.003217   0.017420   0.020343   0.000000  -0.013713
   32  O  2 XY    0.005827  -0.025355  -0.025704   0.000000  -0.030311
   33  O  2 XZ    0.000000   0.000000   0.000000  -0.049748   0.000000
   34  O  2 YZ    0.000000   0.000000   0.000000  -0.031420   0.000000
   35  O  3  S    0.003373  -0.013604   0.023963   0.000000  -0.001281
   36  O  3  S    0.011827  -0.026469  -0.032949   0.000000   0.002721
   37  O  3  S   -0.121882   0.476694  -0.409547   0.000000   0.003383
   38  O  3  X    0.032142  -0.230293   0.092682   0.000000  -0.093255
   39  O  3  Y   -0.057032   0.055668  -0.116652   0.000000  -0.210313
   40  O  3  Z    0.000000   0.000000   0.000000   0.339644   0.000000
   41  O  3  X   -0.028862  -0.026422  -0.171375   0.000000   0.069003
   42  O  3  Y   -0.112509  -0.051730   0.023887   0.000000   0.103875
   43  O  3  Z    0.000000   0.000000   0.000000  -0.172115   0.000000
   44  O  3 XX   -0.012621   0.022297  -0.026938   0.000000   0.023935
   45  O  3 YY    0.009404  -0.004857   0.006612   0.000000  -0.010223
   46  O  3 ZZ    0.003218  -0.017440   0.020326   0.000000  -0.013713
   47  O  3 XY   -0.005827  -0.025380   0.025679   0.000000   0.030311
   48  O  3 XZ    0.000000   0.000000   0.000000  -0.049748   0.000000
   49  O  3 YZ    0.000000   0.000000   0.000000   0.031420   0.000000

                     26         27         28         29         30
                    0.4953     0.6193     0.6518     0.7944     0.8033
                     A          A          A          A          A   
    1  S  1  S    0.000000  -0.000000   0.001506   0.000000  -0.000000
    2  S  1  S    0.000000   0.000000  -0.010141   0.000000   0.000000
    3  S  1  S    0.000000   0.000001  -0.124256   0.000000  -0.000001
    4  S  1  S    0.000000  -0.000009   0.839456   0.000000  -0.000004
    5  S  1  X    0.000000  -0.082655  -0.000001   0.000000  -0.049185
    6  S  1  Y    0.000000   0.000000  -0.053638   0.000000   0.000000
    7  S  1  Z    0.023091   0.000000   0.000000   0.000000   0.000000
    8  S  1  X    0.000000   0.369607   0.000004   0.000000   0.315045
    9  S  1  Y    0.000000  -0.000002   0.242143   0.000000  -0.000001
   10  S  1  Z   -0.092129   0.000000   0.000000  -0.000000   0.000000
   11  S  1  X    0.000000   0.377133   0.000006   0.000000  -0.270657
   12  S  1  Y    0.000000  -0.000002   0.208475   0.000000   0.000002
   13  S  1  Z    0.053811   0.000000   0.000000   0.000000   0.000000
   14  S  1 XX    0.000000  -0.000005   0.826940   0.000000  -0.000003
   15  S  1 YY    0.000000   0.000001  -0.146470   0.000000   0.000003
   16  S  1 ZZ    0.000000   0.000004  -0.680470   0.000000   0.000000
   17  S  1 XY    0.000000   0.880560   0.000006   0.000000   0.272737
   18  S  1 XZ    0.000001   0.000000   0.000000  -0.529747   0.000000
   19  S  1 YZ    0.954298   0.000000   0.000000  -0.000000   0.000000
   20  O  2  S    0.000000   0.066212   0.074179   0.000000   0.007353
   21  O  2  S    0.000000  -0.275221  -0.330290   0.000000  -0.004163
   22  O  2  S    0.000000  -0.147919  -0.121134   0.000000  -0.002474
   23  O  2  X    0.000000   0.065919  -0.173030   0.000000  -0.452937
   24  O  2  Y    0.000000  -0.233400   0.129518   0.000000   0.402040
   25  O  2  Z   -0.189406   0.000000   0.000000  -0.555538   0.000000
   26  O  2  X    0.000000   0.365759   0.631860   0.000000   0.709634
   27  O  2  Y    0.000000   0.386132   0.092301   0.000000  -0.450130
   28  O  2  Z    0.103446   0.000000   0.000000   0.747401   0.000000
   29  O  2 XX    0.000000   0.048989   0.000172   0.000000   0.042494
   30  O  2 YY    0.000000  -0.039769   0.020598   0.000000  -0.023016
   31  O  2 ZZ    0.000000  -0.009220  -0.020770   0.000000  -0.019478
   32  O  2 XY    0.000000  -0.004651   0.030994   0.000000   0.011374
   33  O  2 XZ   -0.033910   0.000000   0.000000   0.049746   0.000000
   34  O  2 YZ    0.004539   0.000000   0.000000   0.029102   0.000000
   35  O  3  S    0.000000  -0.066213   0.074178   0.000000  -0.007354
   36  O  3  S    0.000000   0.275221  -0.330289   0.000000   0.004176
   37  O  3  S    0.000000   0.147927  -0.121126   0.000000   0.002465
   38  O  3  X    0.000000   0.065912   0.173023   0.000000  -0.452943
   39  O  3  Y    0.000000   0.233400   0.129518   0.000000  -0.402029
   40  O  3  Z   -0.189406   0.000000   0.000000   0.555537   0.000000
   41  O  3  X    0.000000   0.365773  -0.631844   0.000000   0.709644
   42  O  3  Y    0.000000  -0.386135   0.092297   0.000000   0.450113
   43  O  3  Z    0.103446   0.000000   0.000000  -0.747400   0.000000
   44  O  3 XX    0.000000  -0.048989   0.000171   0.000000  -0.042494
   45  O  3 YY    0.000000   0.039769   0.020598   0.000000   0.023016
   46  O  3 ZZ    0.000000   0.009221  -0.020770   0.000000   0.019478
   47  O  3 XY    0.000000  -0.004651  -0.030994   0.000000   0.011375
   48  O  3 XZ    0.033910   0.000000   0.000000   0.049746   0.000000
   49  O  3 YZ    0.004539   0.000000   0.000000  -0.029102   0.000000

                     31         32         33         34         35
                    0.8149     0.8352     0.8400     0.8461     1.4253
                     A          A          A          A          A   
    1  S  1  S    0.016056  -0.000000   0.000000  -0.004309   0.000000
    2  S  1  S   -0.133845   0.000000   0.000000   0.036839  -0.000001
    3  S  1  S    0.601408  -0.000001   0.000000  -0.205375   0.000018
    4  S  1  S   -0.083864   0.000001   0.000000   0.176262  -0.000073
    5  S  1  X   -0.000000   0.049991   0.000000  -0.000000  -0.072557
    6  S  1  Y   -0.023694  -0.000000   0.000000  -0.009227   0.000002
    7  S  1  Z    0.000000   0.000000  -0.002766   0.000000   0.000000
    8  S  1  X    0.000002  -0.392994   0.000000   0.000002   0.426841
    9  S  1  Y    0.193404  -0.000000   0.000000   0.018424  -0.000009
   10  S  1  Z    0.000000   0.000000   0.020495   0.000000   0.000000
   11  S  1  X   -0.000001   0.181704   0.000000  -0.000002   1.033343
   12  S  1  Y   -0.282111  -0.000000   0.000000  -0.361578  -0.000026
   13  S  1  Z    0.000000   0.000000  -0.520865   0.000000   0.000000
   14  S  1 XX   -0.175690   0.000001   0.000000   0.577830  -0.000017
   15  S  1 YY   -0.082766  -0.000000   0.000000  -0.438310   0.000003
   16  S  1 ZZ    0.258456  -0.000001   0.000000  -0.139519   0.000014
   17  S  1 XY    0.000004   0.461336   0.000000   0.000000   0.322356
   18  S  1 XZ    0.000000   0.000000   0.000000   0.000000   0.000000
   19  S  1 YZ    0.000000   0.000000  -0.298169   0.000000   0.000000
   20  O  2  S    0.007790  -0.008395   0.000000  -0.001084  -0.077839
   21  O  2  S   -0.060322   0.102524   0.000000   0.082022   1.216221
   22  O  2  S    0.088661  -0.150148   0.000000  -0.124885  -1.831954
   23  O  2  X   -0.396859   0.430440   0.000000   0.424984  -0.037960
   24  O  2  Y   -0.483234   0.415145   0.000000  -0.345484  -0.118497
   25  O  2  Z    0.000000   0.000000  -0.612656   0.000000   0.000000
   26  O  2  X    0.497775  -0.490804   0.000000  -0.434881   0.389107
   27  O  2  Y    0.619796  -0.542310   0.000000   0.612366   0.400440
   28  O  2  Z    0.000000   0.000000   0.870593   0.000000   0.000000
   29  O  2 XX    0.025602   0.013309   0.000000  -0.030916   0.104999
   30  O  2 YY   -0.015433  -0.028552   0.000000   0.039369  -0.032999
   31  O  2 ZZ   -0.010169   0.015243   0.000000  -0.008453  -0.071999
   32  O  2 XY    0.021318  -0.038058   0.000000   0.054031   0.105143
   33  O  2 XZ    0.000000   0.000000   0.034821   0.000000   0.000000
   34  O  2 YZ    0.000000   0.000000   0.007427   0.000000   0.000000
   35  O  3  S    0.007789   0.008396   0.000000  -0.001084   0.077845
   36  O  3  S   -0.060314  -0.102530   0.000000   0.082018  -1.216320
   37  O  3  S    0.088655   0.150154   0.000000  -0.124883   1.832105
   38  O  3  X    0.396849   0.430440   0.000000  -0.424987  -0.037970
   39  O  3  Y   -0.483242  -0.415144   0.000000  -0.345486   0.118493
   40  O  3  Z    0.000000   0.000000  -0.612657   0.000000   0.000000
   41  O  3  X   -0.497760  -0.490805   0.000000   0.434886   0.389164
   42  O  3  Y    0.619805   0.542310   0.000000   0.612369  -0.400446
   43  O  3  Z    0.000000   0.000000   0.870594   0.000000   0.000000
   44  O  3 XX    0.025601  -0.013309   0.000000  -0.030916  -0.105010
   45  O  3 YY   -0.015433   0.028552   0.000000   0.039369   0.033003
   46  O  3 ZZ   -0.010169  -0.015243   0.000000  -0.008453   0.072007
   47  O  3 XY   -0.021318  -0.038058   0.000000  -0.054030   0.105150
   48  O  3 XZ    0.000000   0.000000  -0.034821   0.000000   0.000000
   49  O  3 YZ    0.000000   0.000000   0.007427   0.000000   0.000000

                     36         37         38         39         40
                    1.4551     2.0768     2.0771     2.0802     2.0840
                     A          A          A          A          A   
    1  S  1  S   -0.001233  -0.000000   0.000000   0.000000  -0.000818
    2  S  1  S    0.012883   0.000000   0.000000   0.000000   0.006289
    3  S  1  S    0.295370  -0.000000   0.000000   0.000000  -0.022270
    4  S  1  S   -1.605447   0.000000   0.000000   0.000000   0.016076
    5  S  1  X    0.000002  -0.003179   0.000000   0.000000   0.000000
    6  S  1  Y    0.041276   0.000000   0.000000   0.000000   0.003724
    7  S  1  Z    0.000000   0.000000  -0.000000  -0.013626   0.000000
    8  S  1  X   -0.000014   0.009547   0.000000   0.000000  -0.000000
    9  S  1  Y   -0.239987  -0.000000   0.000000   0.000000  -0.014254
   10  S  1  Z    0.000000   0.000000   0.000000   0.042417   0.000000
   11  S  1  X   -0.000052   0.019816   0.000000   0.000000  -0.000000
   12  S  1  Y   -0.566402   0.000000   0.000000   0.000000   0.006358
   13  S  1  Z    0.000000   0.000000   0.000000   0.021107   0.000000
   14  S  1 XX   -0.361539   0.000000   0.000000   0.000000   0.018442
   15  S  1 YY    0.060050   0.000000   0.000000   0.000000   0.031943
   16  S  1 ZZ    0.301489  -0.000000   0.000000   0.000000  -0.050385
   17  S  1 XY   -0.000015  -0.035048   0.000000   0.000000   0.000000
   18  S  1 XZ    0.000000   0.000000   0.027260  -0.000000   0.000000
   19  S  1 YZ    0.000000   0.000000  -0.000000  -0.000911   0.000000
   20  O  2  S    0.073071  -0.001394   0.000000   0.000000   0.001225
   21  O  2  S   -1.181267   0.013076   0.000000   0.000000  -0.003628
   22  O  2  S    1.772359  -0.017540   0.000000   0.000000  -0.004983
   23  O  2  X    0.149397   0.001958   0.000000   0.000000   0.007701
   24  O  2  Y   -0.034602  -0.010511   0.000000   0.000000   0.001923
   25  O  2  Z    0.000000   0.000000   0.005313   0.013931   0.000000
   26  O  2  X   -0.698979  -0.005646   0.000000   0.000000  -0.004730
   27  O  2  Y   -0.078707   0.015157   0.000000   0.000000  -0.001853
   28  O  2  Z    0.000000   0.000000  -0.008372  -0.022663   0.000000
   29  O  2 XX   -0.147440   0.235220   0.000000   0.000000  -0.061376
   30  O  2 YY    0.050578   0.359044   0.000000   0.000000  -0.536672
   31  O  2 ZZ    0.096862  -0.594264   0.000000   0.000000   0.598048
   32  O  2 XY   -0.093960  -0.376863   0.000000   0.000000   0.258735
   33  O  2 XZ    0.000000   0.000000   0.406267  -0.051323   0.000000
   34  O  2 YZ    0.000000   0.000000  -0.578868   0.705829   0.000000
   35  O  3  S    0.073065   0.001394   0.000000   0.000000   0.001225
   36  O  3  S   -1.181166  -0.013076   0.000000   0.000000  -0.003628
   37  O  3  S    1.772201   0.017539   0.000000   0.000000  -0.004984
   38  O  3  X   -0.149397   0.001958   0.000000   0.000000  -0.007701
   39  O  3  Y   -0.034613   0.010511   0.000000   0.000000   0.001923
   40  O  3  Z    0.000000   0.000000  -0.005313   0.013931   0.000000
   41  O  3  X    0.698951  -0.005646   0.000000   0.000000   0.004731
   42  O  3  Y   -0.078671  -0.015158   0.000000   0.000000  -0.001853
   43  O  3  Z    0.000000   0.000000   0.008372  -0.022663   0.000000
   44  O  3 XX   -0.147432  -0.235221   0.000000   0.000000  -0.061373
   45  O  3 YY    0.050575  -0.359051   0.000000   0.000000  -0.536667
   46  O  3 ZZ    0.096856   0.594272   0.000000   0.000000   0.598040
   47  O  3 XY    0.093952  -0.376867   0.000000   0.000000  -0.258730
   48  O  3 XZ    0.000000   0.000000   0.406270   0.051313   0.000000
   49  O  3 YZ    0.000000   0.000000   0.578886   0.705814   0.000000

                     41         42         43         44         45
                    2.1090     2.1125     2.1708     2.1780     2.5077
                     A          A          A          A          A   
    1  S  1  S    0.000000   0.000000   0.000000  -0.004545  -0.025508
    2  S  1  S    0.000000  -0.000000   0.000000   0.034611   0.190930
    3  S  1  S    0.000000   0.000000   0.000000  -0.054707  -0.351267
    4  S  1  S    0.000000  -0.000000   0.000000  -0.193202  -0.712222
    5  S  1  X    0.000000  -0.039040   0.000000  -0.000000  -0.000000
    6  S  1  Y    0.000000  -0.000000   0.000000   0.049374   0.080123
    7  S  1  Z   -0.035603   0.000000  -0.000000   0.000000   0.000000
    8  S  1  X    0.000000   0.164097   0.000000   0.000000   0.000002
    9  S  1  Y    0.000000   0.000000   0.000000  -0.180119  -0.381168
   10  S  1  Z    0.109459   0.000000   0.000000   0.000000   0.000000
   11  S  1  X    0.000000   0.040812   0.000000  -0.000001  -0.000003
   12  S  1  Y    0.000000  -0.000000   0.000000  -0.140041  -0.098327
   13  S  1  Z    0.077398   0.000000  -0.000000   0.000000   0.000000
   14  S  1 XX    0.000000  -0.000000   0.000000   0.134923  -0.577280
   15  S  1 YY    0.000000   0.000000   0.000000  -0.210924   0.207963
   16  S  1 ZZ    0.000000  -0.000000   0.000000   0.076000   0.369317
   17  S  1 XY    0.000000  -0.158298   0.000000  -0.000000   0.000000
   18  S  1 XZ   -0.000000   0.000000   0.313192   0.000000   0.000000
   19  S  1 YZ    0.159927   0.000000   0.000000   0.000000   0.000000
   20  O  2  S    0.000000  -0.005719   0.000000   0.009065   0.011032
   21  O  2  S    0.000000   0.085871   0.000000  -0.155216  -0.460551
   22  O  2  S    0.000000  -0.122237   0.000000   0.242991   0.839584
   23  O  2  X    0.000000  -0.022489   0.000000   0.068108   0.070559
   24  O  2  Y    0.000000  -0.046584   0.000000  -0.030993   0.033788
   25  O  2  Z    0.045543   0.000000   0.037705   0.000000   0.000000
   26  O  2  X    0.000000   0.046036   0.000000  -0.172355  -0.490026
   27  O  2  Y    0.000000   0.083884   0.000000   0.065286  -0.233840
   28  O  2  Z   -0.088229   0.000000  -0.082958   0.000000   0.000000
   29  O  2 XX    0.000000   0.347503   0.000000   0.562173   0.452665
   30  O  2 YY    0.000000  -0.557211   0.000000  -0.459860  -0.068989
   31  O  2 ZZ    0.000000   0.209708   0.000000  -0.102313  -0.383676
   32  O  2 XY    0.000000  -0.432485   0.000000  -0.388103   0.572180
   33  O  2 XZ    0.710775   0.000000   0.586156   0.000000   0.000000
   34  O  2 YZ    0.055420   0.000000   0.409023   0.000000   0.000000
   35  O  3  S    0.000000   0.005719   0.000000   0.009065   0.011032
   36  O  3  S    0.000000  -0.085871   0.000000  -0.155216  -0.460550
   37  O  3  S    0.000000   0.122237   0.000000   0.242990   0.839582
   38  O  3  X    0.000000  -0.022488   0.000000  -0.068108  -0.070560
   39  O  3  Y    0.000000   0.046584   0.000000  -0.030993   0.033788
   40  O  3  Z    0.045543   0.000000  -0.037705   0.000000   0.000000
   41  O  3  X    0.000000   0.046036   0.000000   0.172356   0.490028
   42  O  3  Y    0.000000  -0.083884   0.000000   0.065286  -0.233840
   43  O  3  Z   -0.088229   0.000000   0.082958   0.000000   0.000000
   44  O  3 XX    0.000000  -0.347504   0.000000   0.562172   0.452667
   45  O  3 YY    0.000000   0.557212   0.000000  -0.459859  -0.068990
   46  O  3 ZZ    0.000000  -0.209708   0.000000  -0.102313  -0.383677
   47  O  3 XY    0.000000  -0.432485   0.000000   0.388102  -0.572182
   48  O  3 XZ   -0.710775   0.000000   0.586155   0.000000   0.000000
   49  O  3 YZ    0.055422   0.000000  -0.409023   0.000000   0.000000

                     46
                    2.5342
                     A   
    1  S  1  S    0.000000
    2  S  1  S   -0.000001
    3  S  1  S    0.000002
    4  S  1  S   -0.000001
    5  S  1  X   -0.177222
    6  S  1  Y   -0.000000
    7  S  1  Z    0.000000
    8  S  1  X    0.817203
    9  S  1  Y    0.000001
   10  S  1  Z    0.000000
   11  S  1  X    0.163377
   12  S  1  Y   -0.000001
   13  S  1  Z    0.000000
   14  S  1 XX    0.000001
   15  S  1 YY   -0.000000
   16  S  1 ZZ   -0.000000
   17  S  1 XY    0.493262
   18  S  1 XZ    0.000000
   19  S  1 YZ    0.000000
   20  O  2  S   -0.008431
   21  O  2  S    0.397389
   22  O  2  S   -0.735211
   23  O  2  X   -0.055621
   24  O  2  Y   -0.025964
   25  O  2  Z    0.000000
   26  O  2  X    0.450456
   27  O  2  Y    0.206165
   28  O  2  Z    0.000000
   29  O  2 XX   -0.614358
   30  O  2 YY    0.267338
   31  O  2 ZZ    0.347020
   32  O  2 XY   -0.444060
   33  O  2 XZ    0.000000
   34  O  2 YZ    0.000000
   35  O  3  S    0.008431
   36  O  3  S   -0.397388
   37  O  3  S    0.735210
   38  O  3  X   -0.055621
   39  O  3  Y    0.025964
   40  O  3  Z    0.000000
   41  O  3  X    0.450455
   42  O  3  Y   -0.206164
   43  O  3  Z    0.000000
   44  O  3 XX    0.614357
   45  O  3 YY   -0.267338
   46  O  3 ZZ   -0.347019
   47  O  3 XY   -0.444058
   48  O  3 XZ    0.000000
   49  O  3 YZ    0.000000
 ...... END OF RHF CALCULATION ......
 STEP CPU TIME =     2.70 TOTAL CPU TIME =          2.8 (      0.0 MIN)
 TOTAL WALL CLOCK TIME=          2.9 SECONDS, CPU UTILIZATION IS    98.95%

     ---------------------------------------------------------------------
     PROPERTIES FOR THE PBE      DFT FUNCTIONAL (RHF  TYPE) DENSITY MATRIX
     ---------------------------------------------------------------------

          -----------------
          ENERGY COMPONENTS
          -----------------

         WAVEFUNCTION NORMALIZATION =       1.0000000000

                ONE ELECTRON ENERGY =    -935.7417388908
                TWO ELECTRON ENERGY =     296.8739413799
           NUCLEAR REPULSION ENERGY =      90.6785973826
                                      ------------------
                       TOTAL ENERGY =    -548.1892001283

 ELECTRON-ELECTRON POTENTIAL ENERGY =     296.8739413799
  NUCLEUS-ELECTRON POTENTIAL ENERGY =   -1482.4567233596
   NUCLEUS-NUCLEUS POTENTIAL ENERGY =      90.6785973826
                                      ------------------
             TOTAL POTENTIAL ENERGY =   -1094.9041845971
               TOTAL KINETIC ENERGY =     546.7149844688
                 VIRIAL RATIO (V/T) =       2.0026964976

          ---------------------------------------
          MULLIKEN AND LOWDIN POPULATION ANALYSES
          ---------------------------------------

     ATOMIC MULLIKEN POPULATION IN EACH MOLECULAR ORBITAL

                      1          2          3          4          5

                  2.000000   2.000000   2.000000   2.000000   2.000000

    1             1.999980   0.000754   0.000822   2.000508   2.000346
    2             0.000010   0.975857   1.023355  -0.000254  -0.000173
    3             0.000010   1.023390   0.975822  -0.000254  -0.000173

                      6          7          8          9         10

                  2.000000   2.000000   2.000000   2.000000   2.000000

    1             2.000006   2.000065   0.574554   0.228205   1.175384
    2            -0.000003  -0.000032   0.712719   0.885902   0.412307
    3            -0.000003  -0.000032   0.712727   0.885894   0.412309

                     11         12         13         14         15

                  2.000000   2.000000   2.000000   2.000000   2.000000

    1             0.577900   1.109031   1.140513   0.048996   0.088469
    2             0.711051   0.445483   0.429743   0.975503   0.955764
    3             0.711048   0.445486   0.429744   0.975502   0.955767

                     16

                  2.000000

    1             0.327866
    2             0.836070
    3             0.836064

               ----- POPULATIONS IN EACH AO -----
                             MULLIKEN      LOWDIN
              1  S  1  S      1.99984     1.99929
              2  S  1  S      1.99275     1.88965
              3  S  1  S      1.37067     0.70447
              4  S  1  S      0.54513     0.46783
              5  S  1  X      1.99341     1.95640
              6  S  1  Y      1.99455     1.96462
              7  S  1  Z      1.99393     1.96121
              8  S  1  X      0.79544     0.68146
              9  S  1  Y      0.98280     0.90326
             10  S  1  Z      0.88388     0.80199
             11  S  1  X      0.03618     0.20454
             12  S  1  Y      0.18741     0.31934
             13  S  1  Z      0.25755     0.36299
             14  S  1 XX      0.02756     0.30211
             15  S  1 YY      0.08743     0.30257
             16  S  1 ZZ      0.07071     0.30497
             17  S  1 XY      0.04900     0.08406
             18  S  1 XZ      0.00515     0.05728
             19  S  1 YZ      0.00000     0.00497
             20  O  2  S      1.99571     1.97304
             21  O  2  S      0.96929     0.71310
             22  O  2  S      0.98337     0.55711
             23  O  2  X      0.79178     0.75137
             24  O  2  Y      1.08027     1.04925
             25  O  2  Z      0.83633     0.80424
             26  O  2  X      0.45796     0.56432
             27  O  2  Y      0.67122     0.71632
             28  O  2  Z      0.56580     0.59749
             29  O  2 XX      0.00142     0.21263
             30  O  2 YY      0.00368     0.20465
             31  O  2 ZZ      0.00336     0.21011
             32  O  2 XY      0.00256     0.00583
             33  O  2 XZ      0.00055     0.00334
             34  O  2 YZ      0.00000     0.00071
             35  O  3  S      1.99571     1.97304
             36  O  3  S      0.96929     0.71310
             37  O  3  S      0.98338     0.55711
             38  O  3  X      0.79178     0.75137
             39  O  3  Y      1.08027     1.04925
             40  O  3  Z      0.83633     0.80424
             41  O  3  X      0.45796     0.56431
             42  O  3  Y      0.67122     0.71632
             43  O  3  Z      0.56580     0.59749
             44  O  3 XX      0.00142     0.21263
             45  O  3 YY      0.00368     0.20465
             46  O  3 ZZ      0.00336     0.21011
             47  O  3 XY      0.00256     0.00583
             48  O  3 XZ      0.00055     0.00334
             49  O  3 YZ      0.00000     0.00071

          ----- MULLIKEN ATOMIC OVERLAP POPULATIONS -----
          (OFF-DIAGONAL ELEMENTS NEED TO BE MULTIPLIED BY 2)

             1           2           3

    1   14.7835035
    2    0.2449483   8.1263308
    3    0.2449478  -0.0079787   8.1263310

          TOTAL MULLIKEN AND LOWDIN ATOMIC POPULATIONS
       ATOM         MULL.POP.    CHARGE          LOW.POP.     CHARGE
    1 S            15.273400    0.726600        15.273021    0.726979
    2 O             8.363300   -0.363300         8.363489   -0.363489
    3 O             8.363300   -0.363300         8.363490   -0.363490

          MULLIKEN SPHERICAL HARMONIC POPULATIONS
       ATOM           S       P       D      F      G      H      I    TOTAL
    1 S             5.91    9.13    0.24   0.00   0.00   0.00   0.00   15.27
    2 O             3.95    4.40    0.01   0.00   0.00   0.00   0.00    8.36
    3 O             3.95    4.40    0.01   0.00   0.00   0.00   0.00    8.36

          -------------------------------
          BOND ORDER AND VALENCE ANALYSIS     BOND ORDER THRESHOLD=0.050
          -------------------------------

                   BOND                       BOND                       BOND
  ATOM PAIR DIST  ORDER      ATOM PAIR DIST  ORDER      ATOM PAIR DIST  ORDER
    1   2  1.700  1.673        1   3  1.700  1.673        2   3  3.081  0.458

                       TOTAL       BONDED        FREE
      ATOM            VALENCE     VALENCE     VALENCE
    1 S                 3.345       3.345       0.000
    2 O                 2.131       2.131      -0.000
    3 O                 2.131       2.131       0.000

          ---------------------
          ELECTROSTATIC MOMENTS
          ---------------------

 POINT   1           X           Y           Z (BOHR)    CHARGE
                 0.000000    0.000000    0.000000        0.00 (A.U.)
         DX          DY          DZ         /D/  (DEBYE)
    -0.000000   -1.623188    0.000000    1.623188
 ...... END OF PROPERTY EVALUATION ......
 STEP CPU TIME =     0.00 TOTAL CPU TIME =          2.8 (      0.0 MIN)
 TOTAL WALL CLOCK TIME=          2.9 SECONDS, CPU UTILIZATION IS    98.61%
                580000  WORDS OF DYNAMIC MEMORY USED
 EXECUTION OF GAMESS TERMINATED NORMALLY Sun Sep 29 10:54:29 2019
 DDI: 263640 bytes (0.3 MB / 0 MWords) used by master data server.

 ----------------------------------------
 CPU timing information for all processes
 ========================================
 0: 2.754 + 0.84 = 2.839
 ----------------------------------------
 ddikick.x: exited gracefully.
----- accounting info -----
Files used on the master node crcfe02.crc.nd.edu were:
-rw-r--r-- 1 cdrisko campus     208 Sep 29 10:54 /afs/crc.nd.edu/user/c/cdrisko/SO2.F05
-rw-r--r-- 1 cdrisko campus   37566 Sep 29 10:54 /afs/crc.nd.edu/user/c/cdrisko/SO2.F07
-rw-r--r-- 1 cdrisko campus 3960352 Sep 29 10:54 /afs/crc.nd.edu/user/c/cdrisko/SO2.F08
-rw-r--r-- 1 cdrisko campus 1766880 Sep 29 10:54 /afs/crc.nd.edu/user/c/cdrisko/SO2.F10
Sun Sep 29 10:54:32 EDT 2019
0.428u 0.248s 0:06.51 10.1%	0+0k 0+24io 0pf+0w
