   4   4   0   0
  0.9562511E+01  0.3369333E-09  0.3369333E-09  0.3369333E-09  0.5000000E-15
  1.000000000000000E-004
  CAR 
 unknown system                          
     55.18565927     -3.22364793  301     10.60523472      1.00000000
     -3.224  0.0000E+00  0.0000E+00
     -3.029  0.0000E+00  0.0000E+00
     -2.834  0.0000E+00  0.0000E+00
     -2.640  0.0000E+00  0.0000E+00
     -2.445  0.0000E+00  0.0000E+00
     -2.250  0.0000E+00  0.0000E+00
     -2.055  0.0000E+00  0.0000E+00
     -1.861  0.0000E+00  0.0000E+00
     -1.666  0.0000E+00  0.0000E+00
     -1.471 -0.1467E-36 -0.2857E-37
     -1.277 -0.4789E-23 -0.9324E-24
     -1.082 -0.7093E-13 -0.1381E-13
     -0.887 -0.4481E-06 -0.8724E-07
     -0.693 -0.5072E-03 -0.9884E-04
     -0.498  0.1158E-01  0.2155E-02
     -0.303  0.8907E-01  0.1950E-01
     -0.108  0.1823E+00  0.5500E-01
      0.086  0.1177E+00  0.7791E-01
      0.281  0.2034E+00  0.1175E+00
      0.476  0.4280E+00  0.2009E+00
      0.670  0.1054E+00  0.2214E+00
      0.865  0.1771E+00  0.2559E+00
      1.060  0.4811E+00  0.3495E+00
      1.254  0.4310E+00  0.4334E+00
      1.449  0.2712E+00  0.4863E+00
      1.644  0.3767E+00  0.5596E+00
      1.838  0.6850E+00  0.6930E+00
      2.033  0.2348E-01  0.6975E+00
      2.228  0.7409E+00  0.8418E+00
      2.423  0.6620E+00  0.9707E+00
      2.617  0.4491E+00  0.1058E+01
      2.812  0.1068E+01  0.1266E+01
      3.007  0.1344E+00  0.1292E+01
      3.201  0.5010E+00  0.1390E+01
      3.396  0.1553E+01  0.1692E+01
      3.591  0.8147E+00  0.1851E+01
      3.785  0.1219E+01  0.2088E+01
      3.980  0.1094E+01  0.2301E+01
      4.175  0.2653E+01  0.2818E+01
      4.370  0.3632E+01  0.3525E+01
      4.564  0.3046E+01  0.4118E+01
      4.759  0.5137E+01  0.5118E+01
      4.954  0.4742E+01  0.6041E+01
      5.148  0.6581E+01  0.7323E+01
      5.343  0.7234E+01  0.8731E+01
      5.538  0.7151E+01  0.1012E+02
      5.732  0.6314E+01  0.1135E+02
      5.927  0.5795E+01  0.1248E+02
      6.122  0.6520E+01  0.1375E+02
      6.317  0.9316E+01  0.1556E+02
      6.511  0.8652E+01  0.1725E+02
      6.706  0.1004E+02  0.1920E+02
      6.901  0.1234E+02  0.2161E+02
      7.095  0.1212E+02  0.2397E+02
      7.290  0.8318E+01  0.2559E+02
      7.485  0.7707E+01  0.2709E+02
      7.679  0.9243E+01  0.2889E+02
      7.874  0.1049E+02  0.3093E+02
      8.069  0.9719E+01  0.3282E+02
      8.264  0.9422E+01  0.3466E+02
      8.458  0.9388E+01  0.3648E+02
      8.653  0.1570E+02  0.3954E+02
      8.848  0.1073E+02  0.4163E+02
      9.042  0.3554E+01  0.4232E+02
      9.237  0.3945E+00  0.4240E+02
      9.432  0.4377E+00  0.4248E+02
      9.626  0.2688E+01  0.4301E+02
      9.821  0.9353E+00  0.4319E+02
     10.016  0.1091E+01  0.4340E+02
     10.210  0.7730E+00  0.4355E+02
     10.405  0.1546E+01  0.4385E+02
     10.600  0.7050E+00  0.4399E+02
     10.795  0.1186E+01  0.4422E+02
     10.989  0.5390E+00  0.4433E+02
     11.184  0.8686E+00  0.4449E+02
     11.379  0.1636E+01  0.4481E+02
     11.573  0.1067E+01  0.4502E+02
     11.768  0.1312E+01  0.4528E+02
     11.963  0.4688E+00  0.4537E+02
     12.157  0.4775E+00  0.4546E+02
     12.352  0.8493E+00  0.4563E+02
     12.547  0.8803E+00  0.4580E+02
     12.742  0.9466E+00  0.4598E+02
     12.936  0.1803E+01  0.4633E+02
     13.131  0.2582E+00  0.4638E+02
     13.326  0.9568E+00  0.4657E+02
     13.520  0.7787E+00  0.4672E+02
     13.715  0.3765E+00  0.4679E+02
     13.910  0.3204E+00  0.4686E+02
     14.104  0.7187E+00  0.4700E+02
     14.299  0.7795E+00  0.4715E+02
     14.494  0.3900E+00  0.4722E+02
     14.689  0.1335E+01  0.4748E+02
     14.883  0.2269E+00  0.4753E+02
     15.078  0.1550E+00  0.4756E+02
     15.273  0.7506E-01  0.4757E+02
     15.467  0.1314E+01  0.4783E+02
     15.662  0.4469E+00  0.4792E+02
     15.857  0.9268E+00  0.4810E+02
     16.051  0.7192E+00  0.4824E+02
     16.246  0.1143E+01  0.4846E+02
     16.441  0.1418E+01  0.4873E+02
     16.636  0.6894E+00  0.4887E+02
     16.830  0.1712E+01  0.4920E+02
     17.025  0.1327E+01  0.4946E+02
     17.220  0.1156E+00  0.4948E+02
     17.414  0.1467E+01  0.4977E+02
     17.609  0.9806E+00  0.4996E+02
     17.804  0.7317E+00  0.5010E+02
     17.998  0.1312E+01  0.5036E+02
     18.193  0.1581E+00  0.5039E+02
     18.388  0.7717E+00  0.5054E+02
     18.582  0.9791E+00  0.5073E+02
     18.777  0.9709E+00  0.5092E+02
     18.972  0.1225E+01  0.5116E+02
     19.167  0.4064E+00  0.5124E+02
     19.361  0.1204E+01  0.5147E+02
     19.556  0.1966E+01  0.5185E+02
     19.751  0.1452E+00  0.5188E+02
     19.945  0.4324E+00  0.5197E+02
     20.140  0.1146E+01  0.5219E+02
     20.335  0.8439E+00  0.5235E+02
     20.529  0.2518E+01  0.5284E+02
     20.724  0.1192E+01  0.5308E+02
     20.919  0.1247E+01  0.5332E+02
     21.114  0.7491E+00  0.5346E+02
     21.308  0.1705E+01  0.5380E+02
     21.503  0.2081E+01  0.5420E+02
     21.698  0.1227E+01  0.5444E+02
     21.892  0.9475E+00  0.5462E+02
     22.087  0.6541E+00  0.5475E+02
     22.282  0.7365E+00  0.5490E+02
     22.476  0.1900E+01  0.5527E+02
     22.671  0.1730E+01  0.5560E+02
     22.866  0.1012E+01  0.5580E+02
     23.061  0.9748E+00  0.5599E+02
     23.255  0.1711E+01  0.5632E+02
     23.450  0.1672E+01  0.5665E+02
     23.645  0.2671E+01  0.5717E+02
     23.839  0.8394E+00  0.5733E+02
     24.034  0.6146E+00  0.5745E+02
     24.229  0.6817E+00  0.5758E+02
     24.423  0.2237E+01  0.5802E+02
     24.618  0.2325E+01  0.5847E+02
     24.813  0.1073E+01  0.5868E+02
     25.008  0.1017E+01  0.5888E+02
     25.202  0.1259E+01  0.5912E+02
     25.397  0.2719E+01  0.5965E+02
     25.592  0.1257E+01  0.5990E+02
     25.786  0.1878E+01  0.6026E+02
     25.981  0.5426E+00  0.6037E+02
     26.176  0.1763E+01  0.6071E+02
     26.370  0.1623E+01  0.6103E+02
     26.565  0.1430E+01  0.6131E+02
     26.760  0.1470E+01  0.6159E+02
     26.954  0.1768E+01  0.6194E+02
     27.149  0.1854E+01  0.6230E+02
     27.344  0.1486E+01  0.6259E+02
     27.539  0.8504E+00  0.6275E+02
     27.733  0.2812E+01  0.6330E+02
     27.928  0.8435E+00  0.6346E+02
     28.123  0.1245E+01  0.6371E+02
     28.317  0.9228E+00  0.6389E+02
     28.512  0.2205E+01  0.6432E+02
     28.707  0.1391E+01  0.6459E+02
     28.901  0.2258E+00  0.6463E+02
     29.096  0.1051E+01  0.6484E+02
     29.291  0.1548E+01  0.6514E+02
     29.486  0.6326E+00  0.6526E+02
     29.680  0.2424E+01  0.6573E+02
     29.875  0.1242E+01  0.6597E+02
     30.070  0.1353E+01  0.6624E+02
     30.264  0.9787E+00  0.6643E+02
     30.459  0.1117E+01  0.6665E+02
     30.654  0.1364E+01  0.6691E+02
     30.848  0.4515E+00  0.6700E+02
     31.043  0.8612E+00  0.6717E+02
     31.238  0.2362E+01  0.6763E+02
     31.433  0.9809E+00  0.6782E+02
     31.627  0.1355E+01  0.6808E+02
     31.822  0.1840E+01  0.6844E+02
     32.017  0.8152E+00  0.6860E+02
     32.211  0.1101E+01  0.6881E+02
     32.406  0.1662E+01  0.6914E+02
     32.601  0.2083E+01  0.6954E+02
     32.795  0.1890E+01  0.6991E+02
     32.990 -0.3002E-01  0.6990E+02
     33.185  0.3190E+01  0.7052E+02
     33.380  0.1631E+01  0.7084E+02
     33.574  0.1374E+01  0.7111E+02
     33.769  0.1277E+01  0.7136E+02
     33.964  0.1583E+01  0.7167E+02
     34.158  0.3548E+01  0.7236E+02
     34.353  0.1602E+01  0.7267E+02
     34.548  0.1084E+01  0.7288E+02
     34.742  0.1551E+01  0.7318E+02
     34.937  0.2457E+01  0.7366E+02
     35.132  0.1670E+01  0.7399E+02
     35.326  0.2230E+01  0.7442E+02
     35.521  0.1492E+01  0.7471E+02
     35.716  0.1658E+01  0.7503E+02
     35.911  0.1961E+01  0.7541E+02
     36.105  0.2176E+01  0.7584E+02
     36.300  0.2557E+01  0.7634E+02
     36.495  0.1167E+01  0.7656E+02
     36.689  0.1391E+01  0.7683E+02
     36.884  0.2114E+01  0.7725E+02
     37.079  0.3653E+01  0.7796E+02
     37.273  0.9549E+00  0.7814E+02
     37.468  0.1440E+01  0.7842E+02
     37.663  0.1070E+01  0.7863E+02
     37.858  0.6062E+00  0.7875E+02
     38.052  0.1338E+01  0.7901E+02
     38.247  0.1510E+01  0.7930E+02
     38.442  0.1022E+01  0.7950E+02
     38.636  0.8051E+00  0.7966E+02
     38.831  0.1073E+01  0.7987E+02
     39.026  0.2380E+01  0.8033E+02
     39.220  0.8791E+00  0.8050E+02
     39.415  0.1026E+01  0.8070E+02
     39.610  0.2004E+01  0.8109E+02
     39.805  0.5413E+00  0.8120E+02
     39.999  0.1105E+01  0.8141E+02
     40.194  0.1926E+01  0.8179E+02
     40.389  0.1467E+01  0.8207E+02
     40.583  0.1125E+01  0.8229E+02
     40.778  0.6275E+00  0.8242E+02
     40.973  0.3389E+01  0.8308E+02
     41.167  0.2300E+01  0.8352E+02
     41.362  0.1310E+01  0.8378E+02
     41.557  0.2442E+01  0.8425E+02
     41.752  0.2235E+01  0.8469E+02
     41.946  0.1595E+01  0.8500E+02
     42.141  0.1390E+01  0.8527E+02
     42.336  0.2122E+01  0.8568E+02
     42.530  0.3170E+01  0.8630E+02
     42.725  0.2419E+01  0.8677E+02
     42.920  0.2379E+01  0.8723E+02
     43.114  0.1498E+01  0.8753E+02
     43.309  0.1126E+01  0.8775E+02
     43.504  0.1532E+01  0.8804E+02
     43.698  0.1440E+01  0.8832E+02
     43.893  0.1123E+01  0.8854E+02
     44.088  0.1104E+01  0.8876E+02
     44.283  0.1550E+01  0.8906E+02
     44.477  0.7945E+00  0.8921E+02
     44.672  0.2401E+01  0.8968E+02
     44.867  0.1205E+01  0.8992E+02
     45.061  0.1822E+01  0.9027E+02
     45.256  0.1652E+01  0.9059E+02
     45.451  0.3000E+01  0.9118E+02
     45.645  0.2979E+01  0.9176E+02
     45.840  0.9211E+00  0.9194E+02
     46.035  0.4437E+00  0.9202E+02
     46.230  0.2354E+01  0.9248E+02
     46.424  0.1967E+01  0.9286E+02
     46.619  0.1623E+01  0.9318E+02
     46.814  0.1235E+01  0.9342E+02
     47.008  0.1966E+01  0.9380E+02
     47.203  0.2320E+01  0.9425E+02
     47.398  0.2021E+01  0.9465E+02
     47.592  0.6513E+00  0.9477E+02
     47.787  0.4985E+00  0.9487E+02
     47.982  0.1422E+01  0.9515E+02
     48.177  0.1238E+01  0.9539E+02
     48.371 -0.3986E-01  0.9538E+02
     48.566  0.1724E+00  0.9542E+02
     48.761  0.7067E+00  0.9555E+02
     48.955  0.2640E+00  0.9560E+02
     49.150  0.2036E+00  0.9564E+02
     49.345  0.3002E+00  0.9570E+02
     49.539 -0.1668E-01  0.9570E+02
     49.734  0.4773E+00  0.9579E+02
     49.929  0.2114E+00  0.9583E+02
     50.124 -0.1025E-01  0.9583E+02
     50.318  0.1634E+00  0.9586E+02
     50.513  0.2206E+00  0.9591E+02
     50.708  0.1201E+00  0.9593E+02
     50.902  0.3473E+00  0.9600E+02
     51.097  0.9608E-04  0.9600E+02
     51.292 -0.9791E-04  0.9600E+02
     51.486 -0.7853E-10  0.9600E+02
     51.681 -0.1517E-32  0.9600E+02
     51.876 -0.6156E-20  0.9600E+02
     52.070 -0.1107E-10  0.9600E+02
     52.265 -0.7942E-05  0.9600E+02
     52.460  0.5345E-03  0.9600E+02
     52.655  0.1406E-01  0.9600E+02
     52.849 -0.4988E-03  0.9600E+02
     53.044 -0.4481E-06  0.9600E+02
     53.239 -0.7093E-13  0.9600E+02
     53.433  0.0000E+00  0.9600E+02
     53.628  0.0000E+00  0.9600E+02
     53.823  0.0000E+00  0.9600E+02
     54.017  0.0000E+00  0.9600E+02
     54.212  0.0000E+00  0.9600E+02
     54.407  0.0000E+00  0.9600E+02
     54.602  0.0000E+00  0.9600E+02
     54.796  0.0000E+00  0.9600E+02
     54.991  0.0000E+00  0.9600E+02
     55.186  0.0000E+00  0.9600E+02
