    4    4    1    1
  0.9562511E+01  0.3369333E-09  0.3369333E-09  0.3369333E-09  0.5000000E-15
  1.000000000000000E-004
  CAR 
 unknown system                          
     44     35     48
 
  0.0000000E+00  0.0000000E+00  0.0000000E+00  0.1371742E-02
    1       -0.568679   1.000000
    2        4.210118   1.000000
    3        4.210118   1.000000
    4        4.210118   1.000000
    5        4.821570   1.000000
    6        4.821570   1.000000
    7        4.821570   1.000000
    8        6.750924   1.000000
    9        6.750924   1.000000
   10        6.750924   1.000000
   11        7.897152   1.000000
   12        7.897152   1.000000
   13        8.656126   1.000000
   14        8.656126   1.000000
   15        8.656126   1.000000
   16        8.872581   1.000000
   17        8.872581   1.000000
   18        8.872581   1.000000
   19        8.872581   1.000000
   20        8.872581   1.000000
   21        8.872581   1.000000
   22       11.865434  -0.000000
   23       11.865434  -0.000000
   24       11.865434  -0.000000
   25       19.237740   0.000000
   26       19.237740   0.000000
   27       19.237740   0.000000
   28       25.339212   0.000000
   29       25.339212   0.000000
   30       25.339212   0.000000
   31       25.339212   0.000000
   32       25.339212   0.000000
   33       25.339212   0.000000
   34       30.435713   0.000000
   35       30.435713   0.000000
   36       30.435713   0.000000
   37       34.629007   0.000000
   38       34.629007   0.000000
   39       34.629007   0.000000
   40       34.759531   0.000000
   41       39.116956   0.000000
   42       39.116956   0.000000
   43       39.116956   0.000000
   44       42.016092   0.000000
   45       42.016092   0.000000
   46       42.016092   0.000000
   47       45.649143   0.000000
   48       52.530691   0.000000
 
  0.1111111E+00  0.0000000E+00  0.0000000E+00  0.8230453E-02
    1       -0.393753   1.000000
    2        4.219253   1.000000
    3        4.299910   1.000000
    4        4.299910   1.000000
    5        4.875373   1.000000
    6        4.879791   1.000000
    7        4.879791   1.000000
    8        6.687794   1.000000
    9        6.799339   1.000000
   10        6.799339   1.000000
   11        7.839842   1.000000
   12        7.919367   1.000000
   13        8.488443   1.000000
   14        8.488443   1.000000
   15        8.582558   1.000000
   16        8.582558   1.000000
   17        8.633259   1.000000
   18        8.786250   1.000000
   19        8.786250   1.000000
   20        8.872997   1.000000
   21        8.872997   1.000000
   22       11.004080  -0.000000
   23       12.397025  -0.000000
   24       12.397025  -0.000000
   25       19.278328   0.000000
   26       19.278328   0.000000
   27       20.402978   0.000000
   28       24.342798   0.000000
   29       24.342798   0.000000
   30       24.760726   0.000000
   31       24.760726   0.000000
   32       25.608026   0.000000
   33       25.608026   0.000000
   34       30.490883   0.000000
   35       31.622025   0.000000
   36       31.622025   0.000000
   37       34.383093   0.000000
   38       34.695980   0.000000
   39       35.603292   0.000000
   40       35.603292   0.000000
   41       37.702388   0.000000
   42       37.702388   0.000000
   43       38.273836   0.000000
   44       42.771279   0.000000
   45       43.412278   0.000000
   46       43.412278   0.000000
   47       46.467016   0.000000
   48       49.618071   0.000000
 
  0.2222222E+00  0.0000000E+00  0.0000000E+00  0.8230453E-02
    1        0.122145   1.000000
    2        4.186768   1.000000
    3        4.546275   1.000000
    4        4.546275   1.000000
    5        5.031673   1.000000
    6        5.055514   1.000000
    7        5.055514   1.000000
    8        6.507912   1.000000
    9        6.942647   1.000000
   10        6.942647   1.000000
   11        7.680254   1.000000
   12        7.740544   1.000000
   13        7.740544   1.000000
   14        7.983584   1.000000
   15        8.374030   1.000000
   16        8.374030   1.000000
   17        8.548883   1.000000
   18        8.548883   1.000000
   19        8.565599   1.000000
   20        8.873449   1.000000
   21        8.873449   1.000000
   22        9.364909   1.000000
   23       13.584907   0.000000
   24       13.584907   0.000000
   25       19.406262   0.000000
   26       19.406262   0.000000
   27       22.461928   0.000000
   28       22.461928   0.000000
   29       22.991261   0.000000
   30       23.548132   0.000000
   31       23.548132   0.000000
   32       26.389134   0.000000
   33       26.389134   0.000000
   34       30.659879   0.000000
   35       33.568471   0.000000
   36       34.075909   0.000000
   37       34.075909   0.000000
   38       34.928595   0.000000
   39       35.463639   0.000000
   40       35.463639   0.000000
   41       36.566883   0.000000
   42       37.986198   0.000000
   43       37.986198   0.000000
   44       44.680121   0.000000
   45       44.711349   0.000000
   46       45.617663   0.000000
   47       45.617663   0.000000
   48       49.759196   0.000000
 
  0.3333333E+00  0.0000000E+00  0.0000000E+00  0.8230453E-02
    1        0.947321   1.000000
    2        3.898762   1.000000
    3        4.872806   1.000000
    4        4.872806   1.000000
    5        5.274877   1.000000
    6        5.351903   1.000000
    7        5.351903   1.000000
    8        6.237621   1.000000
    9        6.983535   1.000000
   10        6.983535   1.000000
   11        7.174152   1.000000
   12        7.174153   1.000000
   13        7.461159   1.000000
   14        7.977165   1.000000
   15        8.082482   1.000000
   16        8.088570   1.000000
   17        8.088570   1.000000
   18        8.212423   1.000000
   19        8.212423   1.000000
   20        8.462394   1.000000
   21        8.874231   1.000000
   22        8.874231   1.000000
   23       15.068411   0.000000
   24       15.068411   0.000000
   25       19.630907   0.000000
   26       19.630907   0.000000
   27       20.473761   0.000000
   28       20.473761   0.000000
   29       22.360559   0.000000
   30       22.360559   0.000000
   31       26.106833   0.000000
   32       27.618686   0.000000
   33       27.618686   0.000000
   34       30.952733   0.000000
   35       32.710344   0.000000
   36       33.217384   0.000000
   37       33.217384   0.000000
   38       34.608121   0.000000
   39       35.429240   0.000000
   40       37.029874   0.000000
   41       37.029874   0.000000
   42       41.040030   0.000000
   43       41.040030   0.000000
   44       41.098107   0.000000
   45       47.411362   0.000000
   46       47.795011   0.000000
   47       47.800259   0.000000
   48       47.896746   0.000000
 
  0.4444444E+00  0.0000000E+00  0.0000000E+00  0.8230453E-02
    1        2.005290   1.000000
    2        3.109760   1.000000
    3        5.127466   1.000000
    4        5.127466   1.000000
    5        5.580364   1.000000
    6        5.771893   1.000000
    7        5.771893   1.000000
    8        5.914494   1.000000
    9        6.318034   1.000000
   10        6.318034   1.000000
   11        7.274722   1.000000
   12        7.324782   1.000000
   13        7.480942   1.000000
   14        7.480942   1.000000
   15        7.839139   1.000000
   16        7.839139   1.000000
   17        7.859416   1.000000
   18        7.859416   1.000000
   19        8.205148   1.000000
   20        8.337025   1.000000
   21        8.874443   1.000000
   22        8.874443   1.000000
   23       16.736943   0.000000
   24       16.736943   0.000000
   25       18.548647   0.000000
   26       18.548647   0.000000
   27       19.895398   0.000000
   28       19.895398   0.000000
   29       21.560960   0.000000
   30       21.560960   0.000000
   31       29.217791   0.000000
   32       29.217791   0.000000
   33       29.330622   0.000000
   34       31.108507   0.000000
   35       31.108507   0.000000
   36       31.384270   0.000000
   37       31.969150   0.000000
   38       32.260514   0.000000
   39       36.404415   0.000000
   40       38.211093   0.000000
   41       40.326094   0.000000
   42       40.326094   0.000000
   43       43.925206   0.000000
   44       43.925206   0.000000
   45       44.009057   0.000000
   46       44.009057   0.000000
   47       50.248030   0.000000
   48       50.248636   0.000000
 
  0.1111111E+00  0.1111111E+00  0.0000000E+00  0.1646091E-01
    1       -0.220449   1.000000
    2        4.312208   1.000000
    3        4.312208   1.000000
    4        4.386288   1.000000
    5        4.931669   1.000000
    6        4.931669   1.000000
    7        4.934428   1.000000
    8        6.652855   1.000000
    9        6.822063   1.000000
   10        6.838744   1.000000
   11        7.824795   1.000000
   12        7.908573   1.000000
   13        8.240792   1.000000
   14        8.334522   1.000000
   15        8.334522   1.000000
   16        8.514069   1.000000
   17        8.595550   1.000000
   18        8.595550   1.000000
   19        8.786093   1.000000
   20        8.786093   1.000000
   21        8.817652   1.000000
   22       11.537187  -0.000000
   23       11.537187  -0.000000
   24       12.848372  -0.000000
   25       19.307988   0.000000
   26       20.473041   0.000000
   27       20.473041   0.000000
   28       22.560072   0.000000
   29       24.583557   0.000000
   30       24.583557   0.000000
   31       25.012252   0.000000
   32       25.012252   0.000000
   33       25.864033   0.000000
   34       31.668339   0.000000
   35       31.707428   0.000000
   36       31.707428   0.000000
   37       33.644804   0.000000
   38       35.680377   0.000000
   39       35.680377   0.000000
   40       35.773338   0.000000
   41       36.834273   0.000000
   42       37.761719   0.000000
   43       39.597798   0.000000
   44       42.159775   0.000000
   45       42.572853   0.000000
   46       45.041337   0.000000
   47       48.062011   0.000000
   48       48.722795   0.000000
 
  0.2222222E+00  0.1111111E+00  0.0000000E+00  0.3292181E-01
    1        0.290368   1.000000
    2        4.289245   1.000000
    3        4.568264   1.000000
    4        4.624251   1.000000
    5        5.082191   1.000000
    6        5.097724   1.000000
    7        5.101441   1.000000
    8        6.494430   1.000000
    9        6.950866   1.000000
   10        6.950971   1.000000
   11        7.588519   1.000000
   12        7.623523   1.000000
   13        7.694273   1.000000
   14        7.963887   1.000000
   15        7.975278   1.000000
   16        8.320481   1.000000
   17        8.384362   1.000000
   18        8.531662   1.000000
   19        8.547673   1.000000
   20        8.785475   1.000000
   21        8.788198   1.000000
   22       10.002250   1.000000
   23       12.633099  -0.000000
   24       13.936829   0.000000
   25       19.319824   0.000000
   26       20.686895   0.000000
   27       20.693515   0.000000
   28       22.684333   0.000000
   29       23.072822   0.000000
   30       23.777250   0.000000
   31       25.275331   0.000000
   32       25.530879   0.000000
   33       25.757623   0.000000
   34       31.971916   0.000000
   35       32.224374   0.000000
   36       33.119719   0.000000
   37       33.619457   0.000000
   38       34.186487   0.000000
   39       35.940981   0.000000
   40       36.853132   0.000000
   41       38.061907   0.000000
   42       38.475306   0.000000
   43       39.449260   0.000000
   44       43.324132   0.000000
   45       43.355605   0.000000
   46       45.565238   0.000000
   47       47.203687   0.000000
   48       50.818119   0.000000
 
  0.3333333E+00  0.1111111E+00  0.0000000E+00  0.3292181E-01
    1        1.106592   1.000000
    2        4.015098   1.000000
    3        4.911824   1.000000
    4        4.945853   1.000000
    5        5.316580   1.000000
    6        5.363570   1.000000
    7        5.387346   1.000000
    8        6.239224   1.000000
    9        6.855715   1.000000
   10        6.936557   1.000000
   11        7.089506   1.000000
   12        7.177716   1.000000
   13        7.421723   1.000000
   14        7.543934   1.000000
   15        8.054157   1.000000
   16        8.099148   1.000000
   17        8.101466   1.000000
   18        8.211297   1.000000
   19        8.347295   1.000000
   20        8.781867   1.000000
   21        8.784573   1.000000
   22        8.896004   1.000000
   23       13.927020   0.000000
   24       15.359382   0.000000
   25       18.401896   0.000000
   26       20.053392   0.000000
   27       20.695688   0.000000
   28       21.005605   0.000000
   29       22.632132   0.000000
   30       24.342946   0.000000
   31       25.996300   0.000000
   32       26.337956   0.000000
   33       27.123499   0.000000
   34       30.686506   0.000000
   35       31.593522   0.000000
   36       32.440513   0.000000
   37       35.436122   0.000000
   38       35.807030   0.000000
   39       36.079290   0.000000
   40       36.473077   0.000000
   41       37.152882   0.000000
   42       41.006275   0.000000
   43       41.515761   0.000000
   44       42.585156   0.000000
   45       45.785301   0.000000
   46       46.049588   0.000000
   47       47.208869   0.000000
   48       47.928563   0.000000
 
  0.4444444E+00  0.1111111E+00  0.0000000E+00  0.3292181E-01
    1        2.151432   1.000000
    2        3.240272   1.000000
    3        5.190168   1.000000
    4        5.204902   1.000000
    5        5.610233   1.000000
    6        5.728697   1.000000
    7        5.790957   1.000000
    8        5.930769   1.000000
    9        6.225313   1.000000
   10        6.311671   1.000000
   11        7.073670   1.000000
   12        7.078011   1.000000
   13        7.481939   1.000000
   14        7.637842   1.000000
   15        7.838401   1.000000
   16        7.845853   1.000000
   17        7.865073   1.000000
   18        7.977535   1.000000
   19        8.259727   1.000000
   20        8.464558   1.000000
   21        8.781511   1.000000
   22        8.783144   1.000000
   23       15.331738   0.000000
   24       16.832990   0.000000
   25       16.991564   0.000000
   26       18.781554   0.000000
   27       20.413917   0.000000
   28       20.954188   0.000000
   29       22.357831   0.000000
   30       23.158227   0.000000
   31       27.665110   0.000000
   32       27.990945   0.000000
   33       29.145734   0.000000
   34       29.721525   0.000000
   35       29.934687   0.000000
   36       33.152950   0.000000
   37       33.175614   0.000000
   38       34.151163   0.000000
   39       37.429080   0.000000
   40       39.006223   0.000000
   41       39.041872   0.000000
   42       40.456385   0.000000
   43       42.087080   0.000000
   44       44.060023   0.000000
   45       45.462376   0.000000
   46       45.579349   0.000000
   47       48.052182   0.000000
   48       48.709613   0.000000
 
  0.2222222E+00  0.2222222E+00  0.0000000E+00  0.1646091E-01
    1        0.785259   1.000000
    2        4.574469   1.000000
    3        4.574469   1.000000
    4        4.838566   1.000000
    5        5.222997   1.000000
    6        5.234585   1.000000
    7        5.234585   1.000000
    8        6.410743   1.000000
    9        6.977068   1.000000
   10        7.024997   1.000000
   11        7.222237   1.000000
   12        7.222237   1.000000
   13        7.276102   1.000000
   14        7.649866   1.000000
   15        8.043313   1.000000
   16        8.165466   1.000000
   17        8.344511   1.000000
   18        8.344511   1.000000
   19        8.545120   1.000000
   20        8.545120   1.000000
   21        8.655041   1.000000
   22       11.000048  -0.000000
   23       11.000048  -0.000000
   24       14.863140   0.000000
   25       18.067973   0.000000
   26       19.986110   0.000000
   27       23.222689   0.000000
   28       23.222689   0.000000
   29       23.323424   0.000000
   30       23.323424   0.000000
   31       24.576797   0.000000
   32       24.576797   0.000000
   33       27.353122   0.000000
   34       30.378966   0.000000
   35       31.484294   0.000000
   36       32.369505   0.000000
   37       34.522445   0.000000
   38       34.522445   0.000000
   39       38.303638   0.000000
   40       38.313047   0.000000
   41       38.313047   0.000000
   42       40.693230   0.000000
   43       40.770399   0.000000
   44       42.243576   0.000000
   45       42.609477   0.000000
   46       44.567561   0.000000
   47       49.203045   0.000000
   48       49.644781   0.000000
 
  0.3333333E+00  0.2222222E+00  0.0000000E+00  0.3292181E-01
    1        1.572860   1.000000
    2        4.340888   1.000000
    3        4.968975   1.000000
    4        5.139365   1.000000
    5        5.409248   1.000000
    6        5.440723   1.000000
    7        5.489088   1.000000
    8        6.224234   1.000000
    9        6.564481   1.000000
   10        6.788719   1.000000
   11        6.840434   1.000000
   12        6.981143   1.000000
   13        7.212460   1.000000
   14        7.562998   1.000000
   15        7.946999   1.000000
   16        8.077629   1.000000
   17        8.182309   1.000000
   18        8.209052   1.000000
   19        8.240198   1.000000
   20        8.542462   1.000000
   21        8.580638   1.000000
   22        9.696758   1.000000
   23       12.098760  -0.000000
   24       16.161888   0.000000
   25       16.262854   0.000000
   26       20.262814   0.000000
   27       21.333296   0.000000
   28       22.649266   0.000000
   29       24.309670   0.000000
   30       24.352475   0.000000
   31       24.993938   0.000000
   32       27.011601   0.000000
   33       27.221539   0.000000
   34       28.629301   0.000000
   35       29.541903   0.000000
   36       33.961151   0.000000
   37       35.093717   0.000000
   38       37.522575   0.000000
   39       37.558185   0.000000
   40       38.006833   0.000000
   41       38.805021   0.000000
   42       40.885095   0.000000
   43       42.556531   0.000000
   44       42.858257   0.000000
   45       44.137198   0.000000
   46       45.458285   0.000000
   47       46.120677   0.000000
   48       47.973852   0.000000
 
  0.4444444E+00  0.2222222E+00  0.0000000E+00  0.3292181E-01
    1        2.574417   1.000000
    2        3.610516   1.000000
    3        5.326668   1.000000
    4        5.420345   1.000000
    5        5.611075   1.000000
    6        5.696551   1.000000
    7        5.843209   1.000000
    8        5.970845   1.000000
    9        6.016473   1.000000
   10        6.286854   1.000000
   11        6.729909   1.000000
   12        6.862091   1.000000
   13        7.495824   1.000000
   14        7.646563   1.000000
   15        7.784632   1.000000
   16        7.837539   1.000000
   17        7.841458   1.000000
   18        7.905498   1.000000
   19        8.523387   1.000000
   20        8.542362   1.000000
   21        8.550945   1.000000
   22        8.939722   1.000000
   23       13.305122  -0.000000
   24       14.672460   0.000000
   25       17.710732   0.000000
   26       19.447201   0.000000
   27       20.815564   0.000000
   28       21.628471   0.000000
   29       25.081515   0.000000
   30       25.562895   0.000000
   31       26.131757   0.000000
   32       26.315457   0.000000
   33       27.016818   0.000000
   34       27.819274   0.000000
   35       30.444494   0.000000
   36       34.045002   0.000000
   37       35.905875   0.000000
   38       36.932123   0.000000
   39       36.972733   0.000000
   40       39.628495   0.000000
   41       40.179288   0.000000
   42       40.846060   0.000000
   43       40.878048   0.000000
   44       44.463506   0.000000
   45       44.610867   0.000000
   46       46.298350   0.000000
   47       46.430042   0.000000
   48       46.977636   0.000000
 
  0.3333333E+00  0.3333333E+00  0.0000000E+00  0.1646091E-01
    1        2.306657   1.000000
    2        4.798537   1.000000
    3        4.798537   1.000000
    4        5.352972   1.000000
    5        5.526543   1.000000
    6        5.643521   1.000000
    7        5.643521   1.000000
    8        6.151536   1.000000
    9        6.359719   1.000000
   10        6.359719   1.000000
   11        6.540092   1.000000
   12        6.886926   1.000000
   13        7.329641   1.000000
   14        7.473304   1.000000
   15        7.780264   1.000000
   16        7.937754   1.000000
   17        7.937754   1.000000
   18        8.211624   1.000000
   19        8.211624   1.000000
   20        8.396611   1.000000
   21        8.544209   1.000000
   22       10.583394   0.680031
   23       10.583394   0.680031
   24       14.377235   0.000000
   25       17.343298   0.000000
   26       20.704771   0.000000
   27       22.320013   0.000000
   28       22.320013   0.000000
   29       23.580442   0.000000
   30       23.580442   0.000000
   31       26.759168   0.000000
   32       27.553532   0.000000
   33       27.553532   0.000000
   34       27.674604   0.000000
   35       29.621153   0.000000
   36       33.022381   0.000000
   37       38.085285   0.000000
   38       38.137344   0.000000
   39       38.137344   0.000000
   40       39.371505   0.000000
   41       40.076059   0.000000
   42       40.616872   0.000000
   43       40.616872   0.000000
   44       43.417578   0.000000
   45       44.165103   0.000000
   46       45.254843   0.000000
   47       45.254843   0.000000
   48       48.745268   0.000000
 
  0.4444444E+00  0.3333333E+00  0.0000000E+00  0.3292181E-01
    1        3.221830   1.000000
    2        4.148164   1.000000
    3        5.231702   1.000000
    4        5.426858   1.000000
    5        5.729857   1.000000
    6        5.827848   1.000000
    7        5.914536   1.000000
    8        5.991562   1.000000
    9        6.009850   1.000000
   10        6.228601   1.000000
   11        6.462515   1.000000
   12        6.707897   1.000000
   13        7.496130   1.000000
   14        7.553613   1.000000
   15        7.649904   1.000000
   16        7.697786   1.000000
   17        7.711196   1.000000
   18        7.862610   1.000000
   19        8.230136   1.000000
   20        8.283476   1.000000
   21        8.966300   1.000000
   22        9.580228   1.000000
   23       11.599093  -0.000000
   24       12.833460  -0.000000
   25       18.800399   0.000000
   26       20.471781   0.000000
   27       21.387634   0.000000
   28       22.344386   0.000000
   29       23.584955   0.000000
   30       24.691328   0.000000
   31       25.074579   0.000000
   32       26.054205   0.000000
   33       28.415505   0.000000
   34       29.446346   0.000000
   35       31.117020   0.000000
   36       34.842585   0.000000
   37       35.135603   0.000000
   38       38.449782   0.000000
   39       38.976811   0.000000
   40       39.543273   0.000000
   41       39.920262   0.000000
   42       40.151588   0.000000
   43       41.486627   0.000000
   44       44.740050   0.000000
   45       44.857180   0.000000
   46       45.127797   0.000000
   47       45.417303   0.000000
   48       47.115864   0.000000
 
  0.4444444E+00  0.4444444E+00  0.0000000E+00  0.1646091E-01
    1        3.988514   1.000000
    2        4.714926   1.000000
    3        4.714926   1.000000
    4        5.152461   1.000000
    5        5.981533   1.000000
    6        5.981533   1.000000
    7        6.017717   1.000000
    8        6.037163   1.000000
    9        6.124401   1.000000
   10        6.264463   1.000000
   11        6.264463   1.000000
   12        6.539921   1.000000
   13        7.401418   1.000000
   14        7.501838   1.000000
   15        7.511132   1.000000
   16        7.511132   1.000000
   17        7.692479   1.000000
   18        7.927015   1.000000
   19        7.927015   1.000000
   20        8.063623   1.000000
   21        9.547470   1.000000
   22       10.368029   1.002012
   23       10.368029   1.002012
   24       11.410483  -0.000000
   25       20.176093   0.000000
   26       21.781989   0.000000
   27       21.781989   0.000000
   28       22.207129   0.000000
   29       23.305944   0.000000
   30       23.305944   0.000000
   31       23.325731   0.000000
   32       24.540889   0.000000
   33       32.020455   0.000000
   34       32.020455   0.000000
   35       32.489121   0.000000
   36       34.087174   0.000000
   37       35.770481   0.000000
   38       35.814566   0.000000
   39       36.980965   0.000000
   40       36.980965   0.000000
   41       42.323939   0.000000
   42       42.323939   0.000000
   43       42.573658   0.000000
   44       44.659928   0.000000
   45       45.678487   0.000000
   46       46.417993   0.000000
   47       46.981775   0.000000
   48       47.322810   0.000000
 
  0.1111111E+00  0.1111111E+00  0.1111111E+00  0.1097394E-01
    1       -0.049027   1.000000
    2        4.400845   1.000000
    3        4.400845   1.000000
    4        4.400845   1.000000
    5        4.984534   1.000000
    6        4.984534   1.000000
    7        4.984534   1.000000
    8        6.622286   1.000000
    9        6.856003   1.000000
   10        6.856003   1.000000
   11        7.858474   1.000000
   12        7.858474   1.000000
   13        8.109090   1.000000
   14        8.109090   1.000000
   15        8.109090   1.000000
   16        8.433864   1.000000
   17        8.433864   1.000000
   18        8.433864   1.000000
   19        8.798497   1.000000
   20        8.798497   1.000000
   21        8.798497   1.000000
   22       11.959941  -0.000000
   23       11.959941  -0.000000
   24       11.959941  -0.000000
   25       20.526646   0.000000
   26       20.526646   0.000000
   27       20.526646   0.000000
   28       22.799253   0.000000
   29       22.799253   0.000000
   30       22.799253   0.000000
   31       26.122062   0.000000
   32       26.122062   0.000000
   33       26.122062   0.000000
   34       31.739654   0.000000
   35       31.739654   0.000000
   36       31.739654   0.000000
   37       32.396032   0.000000
   38       36.097316   0.000000
   39       36.923601   0.000000
   40       36.923601   0.000000
   41       36.923601   0.000000
   42       38.124690   0.000000
   43       38.124690   0.000000
   44       43.496046   0.000000
   45       43.496046   0.000000
   46       43.504032   0.000000
   47       49.166403   0.000000
   48       49.166403   0.000000
 
  0.2222222E+00  0.1111111E+00  0.1111111E+00  0.3292181E-01
    1        0.455937   1.000000
    2        4.383968   1.000000
    3        4.645191   1.000000
    4        4.645191   1.000000
    5        5.130892   1.000000
    6        5.142455   1.000000
    7        5.142455   1.000000
    8        6.483412   1.000000
    9        6.951129   1.000000
   10        6.958284   1.000000
   11        7.489537   1.000000
   12        7.489537   1.000000
   13        7.727531   1.000000
   14        7.730744   1.000000
   15        7.954187   1.000000
   16        8.225780   1.000000
   17        8.262559   1.000000
   18        8.262559   1.000000
   19        8.729301   1.000000
   20        8.766010   1.000000
   21        8.766010   1.000000
   22       10.386572   1.004179
   23       12.933313  -0.000000
   24       12.933313  -0.000000
   25       20.357089   0.000000
   26       20.357089   0.000000
   27       21.207769   0.000000
   28       21.207769   0.000000
   29       22.952097   0.000000
   30       23.677602   0.000000
   31       25.756677   0.000000
   32       25.756677   0.000000
   33       26.875287   0.000000
   34       30.535846   0.000000
   35       31.964338   0.000000
   36       33.207404   0.000000
   37       33.207404   0.000000
   38       35.093737   0.000000
   39       35.857933   0.000000
   40       37.215037   0.000000
   41       39.407578   0.000000
   42       39.538408   0.000000
   43       39.538408   0.000000
   44       41.668890   0.000000
   45       45.336098   0.000000
   46       45.486130   0.000000
   47       45.955915   0.000000
   48       50.498864   0.000000
 
  0.3333333E+00  0.1111111E+00  0.1111111E+00  0.3292181E-01
    1        1.261646   1.000000
    2        4.119426   1.000000
    3        4.979103   1.000000
    4        4.979103   1.000000
    5        5.359353   1.000000
    6        5.394445   1.000000
    7        5.394445   1.000000
    8        6.245771   1.000000
    9        6.830828   1.000000
   10        6.830828   1.000000
   11        7.058654   1.000000
   12        7.128985   1.000000
   13        7.221499   1.000000
   14        7.642004   1.000000
   15        7.945203   1.000000
   16        8.027555   1.000000
   17        8.027555   1.000000
   18        8.098032   1.000000
   19        8.607569   1.000000
   20        8.736896   1.000000
   21        8.736896   1.000000
   22        9.120556   1.000000
   23       14.141565   0.000000
   24       14.141565   0.000000
   25       18.794689   0.000000
   26       18.794689   0.000000
   27       21.389467   0.000000
   28       21.389467   0.000000
   29       24.309523   0.000000
   30       24.542501   0.000000
   31       24.542501   0.000000
   32       26.484596   0.000000
   33       28.069819   0.000000
   34       28.741621   0.000000
   35       32.384928   0.000000
   36       33.604412   0.000000
   37       33.816094   0.000000
   38       35.900286   0.000000
   39       35.900286   0.000000
   40       37.563740   0.000000
   41       37.773103   0.000000
   42       41.716822   0.000000
   43       42.568527   0.000000
   44       42.568527   0.000000
   45       44.550437   0.000000
   46       46.983816   0.000000
   47       47.344168   0.000000
   48       47.344168   0.000000
 
  0.4444444E+00  0.1111111E+00  0.1111111E+00  0.3292181E-01
    1        2.290591   1.000000
    2        3.359925   1.000000