       N       E                     dE             d eps       ncg     rms          rms(c)
DAV:   1     0.148034943429E+03    0.14803E+03   -0.16221E+04  4032   0.145E+03
DAV:   2    -0.130230872406E+02   -0.16106E+03   -0.14768E+03  3456   0.206E+02
DAV:   3    -0.173105512097E+02   -0.42875E+01   -0.42676E+01  4680   0.378E+01
DAV:   4    -0.173383623880E+02   -0.27811E-01   -0.27810E-01  3504   0.267E+00
DAV:   5    -0.173387010744E+02   -0.33869E-03   -0.33868E-03  4776   0.315E-01    0.156E+01
DAV:   6    -0.144533386845E+02    0.28854E+01   -0.23907E+01  4152   0.657E+01    0.498E+00
DAV:   7    -0.136454321495E+02    0.80791E+00   -0.30549E+00  4296   0.229E+01    0.158E+00
DAV:   8    -0.135668514462E+02    0.78581E-01   -0.30434E-02  4392   0.107E+00    0.353E-01
DAV:   9    -0.135643850735E+02    0.24664E-02   -0.52280E-03  4992   0.844E-01    0.274E-02
DAV:  10    -0.135644375339E+02   -0.52460E-04   -0.12186E-04  3480   0.621E-02
   1 F= -.13564438E+02 E0= -.13563537E+02  d E =-.270161E-02
