<?xml version="1.0" encoding="ISO-8859-1"?>
<modeling>
 <generator>
  <i name="program" type="string">vasp </i>
  <i name="version" type="string">5.4.1  </i>
  <i name="subversion" type="string">05Feb16 (build Feb 08 2018 09:21:51) complex                          parallel </i>
  <i name="platform" type="string">LinuxIFC </i>
  <i name="date" type="string">2019 11 21 </i>
  <i name="time" type="string">15:53:34 </i>
 </generator>
 <incar>
  <i type="string" name="PREC">normal</i>
  <i name="ENCUT">    400.00000000</i>
  <i type="int" name="ISMEAR">     1</i>
  <i name="SIGMA">      0.10000000</i>
  <i type="logical" name="LWAVE"> F  </i>
  <i type="logical" name="LCHARG"> F  </i>
  <v type="int" name="KPOINT_BSE">    -1     0     0     0</v>
 </incar>
 <kpoints>
  <generation param="Monkhorst-Pack">
   <v type="int" name="divisions">       9        9        9 </v>
   <v name="usershift">      0.00000000       0.00000000       0.00000000 </v>
   <v name="genvec1">      0.11111111       0.00000000       0.00000000 </v>
   <v name="genvec2">      0.00000000       0.11111111       0.00000000 </v>
   <v name="genvec3">      0.00000000       0.00000000       0.11111111 </v>
   <v name="shift">      0.00000000       0.00000000       0.00000000 </v>
  </generation>
  <varray name="kpointlist" >
   <v>       0.00000000       0.00000000       0.00000000 </v>
   <v>       0.11111111       0.00000000       0.00000000 </v>
   <v>       0.22222222       0.00000000       0.00000000 </v>
   <v>       0.33333333       0.00000000       0.00000000 </v>
   <v>       0.44444444       0.00000000       0.00000000 </v>
   <v>       0.11111111       0.11111111       0.00000000 </v>
   <v>       0.22222222       0.11111111       0.00000000 </v>
   <v>       0.33333333       0.11111111       0.00000000 </v>
   <v>       0.44444444       0.11111111       0.00000000 </v>
   <v>       0.22222222       0.22222222       0.00000000 </v>
   <v>       0.33333333       0.22222222       0.00000000 </v>
   <v>       0.44444444       0.22222222       0.00000000 </v>
   <v>       0.33333333       0.33333333       0.00000000 </v>
   <v>       0.44444444       0.33333333       0.00000000 </v>
   <v>       0.44444444       0.44444444       0.00000000 </v>
   <v>       0.11111111       0.11111111       0.11111111 </v>
   <v>       0.22222222       0.11111111       0.11111111 </v>
   <v>       0.33333333       0.11111111       0.11111111 </v>
   <v>       0.44444444       0.11111111       0.11111111 </v>
   <v>       0.22222222       0.22222222       0.11111111 </v>
   <v>       0.33333333       0.22222222       0.11111111 </v>
   <v>       0.44444444       0.22222222       0.11111111 </v>
   <v>       0.33333333       0.33333333       0.11111111 </v>
   <v>       0.44444444       0.33333333       0.11111111 </v>
   <v>       0.44444444       0.44444444       0.11111111 </v>
   <v>       0.22222222       0.22222222       0.22222222 </v>
   <v>       0.33333333       0.22222222       0.22222222 </v>
   <v>       0.44444444       0.22222222       0.22222222 </v>
   <v>       0.33333333       0.33333333       0.22222222 </v>
   <v>       0.44444444       0.33333333       0.22222222 </v>
   <v>       0.44444444       0.44444444       0.22222222 </v>
   <v>       0.33333333       0.33333333       0.33333333 </v>
   <v>       0.44444444       0.33333333       0.33333333 </v>
   <v>       0.44444444       0.44444444       0.33333333 </v>
   <v>       0.44444444       0.44444444       0.44444444 </v>
  </varray>
  <varray name="weights" >
   <v>       0.00137174 </v>
   <v>       0.00823045 </v>
   <v>       0.00823045 </v>
   <v>       0.00823045 </v>
   <v>       0.00823045 </v>
   <v>       0.01646091 </v>
   <v>       0.03292181 </v>
   <v>       0.03292181 </v>
   <v>       0.03292181 </v>
   <v>       0.01646091 </v>
   <v>       0.03292181 </v>
   <v>       0.03292181 </v>
   <v>       0.01646091 </v>
   <v>       0.03292181 </v>
   <v>       0.01646091 </v>
   <v>       0.01097394 </v>
   <v>       0.03292181 </v>
   <v>       0.03292181 </v>
   <v>       0.03292181 </v>
   <v>       0.03292181 </v>
   <v>       0.06584362 </v>
   <v>       0.06584362 </v>
   <v>       0.03292181 </v>
   <v>       0.06584362 </v>
   <v>       0.03292181 </v>
   <v>       0.01097394 </v>
   <v>       0.03292181 </v>
   <v>       0.03292181 </v>
   <v>       0.03292181 </v>
   <v>       0.06584362 </v>
   <v>       0.03292181 </v>
   <v>       0.01097394 </v>
   <v>       0.03292181 </v>
   <v>       0.03292181 </v>
   <v>       0.01097394 </v>
  </varray>
 </kpoints>
 <parameters>
  <separator name="general" >
   <i type="string" name="SYSTEM">unknown system</i>
   <i type="logical" name="LCOMPAT"> F  </i>
  </separator>
  <separator name="electronic" >
   <i type="string" name="PREC">normal</i>
   <i name="ENMAX">    400.00000000</i>
   <i name="ENAUG">    586.98000000</i>
   <i name="EDIFF">      0.00010000</i>
   <i type="int" name="IALGO">    38</i>
   <i type="int" name="IWAVPR">    10</i>
   <i type="int" name="NBANDS">    48</i>
   <i name="NELECT">     44.00000000</i>
   <i type="int" name="TURBO">     0</i>
   <i type="int" name="IRESTART">     0</i>
   <i type="int" name="NREBOOT">     0</i>
   <i type="int" name="NMIN">     0</i>
   <i name="EREF">      0.00000000</i>
   <separator name="electronic smearing" >
    <i type="int" name="ISMEAR">     1</i>
    <i name="SIGMA">      0.10000000</i>
    <i name="KSPACING">      0.50000000</i>
    <i type="logical" name="KGAMMA"> T  </i>
   </separator>
   <separator name="electronic projectors" >
    <i type="logical" name="LREAL"> F  </i>
    <v name="ROPT">      0.00000000</v>
    <i type="int" name="LMAXPAW">  -100</i>
    <i type="int" name="LMAXMIX">     2</i>
    <i type="logical" name="NLSPLINE"> F  </i>
   </separator>
   <separator name="electronic startup" >
    <i type="int" name="ISTART">     0</i>
    <i type="int" name="ICHARG">     2</i>
    <i type="int" name="INIWAV">     1</i>
   </separator>
   <separator name="electronic spin" >
    <i type="int" name="ISPIN">     1</i>
    <i type="logical" name="LNONCOLLINEAR"> F  </i>
    <v name="MAGMOM">      1.00000000      1.00000000      1.00000000      1.00000000</v>
    <i name="NUPDOWN">     -1.00000000</i>
    <i type="logical" name="LSORBIT"> F  </i>
    <v name="SAXIS">      0.00000000      0.00000000      1.00000000</v>
    <i type="logical" name="LSPIRAL"> F  </i>
    <v name="QSPIRAL">      0.00000000      0.00000000      0.00000000</v>
    <i type="logical" name="LZEROZ"> F  </i>
   </separator>
   <separator name="electronic exchange-correlation" >
    <i type="logical" name="LASPH"> F  </i>
    <i type="logical" name="LMETAGGA"> F  </i>
   </separator>
   <separator name="electronic convergence" >
    <i type="int" name="NELM">    60</i>
    <i type="int" name="NELMDL">    -5</i>
    <i type="int" name="NELMIN">     2</i>
    <i name="ENINI">    400.00000000</i>
    <separator name="electronic convergence detail" >
     <i type="logical" name="LDIAG"> T  </i>
     <i type="logical" name="LSUBROT"> F  </i>
     <i name="WEIMIN">      0.00000000</i>
     <i name="EBREAK">      0.00000052</i>
     <i name="DEPER">      0.30000000</i>
     <i type="int" name="NRMM">     4</i>
     <i name="TIME">      0.40000000</i>
    </separator>
   </separator>
   <separator name="electronic mixer" >
    <i name="AMIX">      0.40000000</i>
    <i name="BMIX">      1.00000000</i>
    <i name="AMIN">      0.10000000</i>
    <i name="AMIX_MAG">      1.60000000</i>
    <i name="BMIX_MAG">      1.00000000</i>
    <separator name="electronic mixer details" >
     <i type="int" name="IMIX">     4</i>
     <i type="logical" name="MIXFIRST"> F  </i>
     <i type="int" name="MAXMIX">   -45</i>
     <i name="WC">    100.00000000</i>
     <i type="int" name="INIMIX">     1</i>
     <i type="int" name="MIXPRE">     1</i>
     <i type="int" name="MREMOVE">     5</i>
    </separator>
   </separator>
   <separator name="electronic dipolcorrection" >
    <i type="logical" name="LDIPOL"> F  </i>
    <i type="logical" name="LMONO"> F  </i>
    <i type="int" name="IDIPOL">     0</i>
    <i name="EPSILON">      1.00000000</i>
    <v name="DIPOL">   -100.00000000   -100.00000000   -100.00000000</v>
    <i name="EFIELD">      0.00000000</i>
   </separator>
  </separator>
  <separator name="grids" >
   <i type="int" name="NGX">    16</i>
   <i type="int" name="NGY">    16</i>
   <i type="int" name="NGZ">    16</i>
   <i type="int" name="NGXF">    32</i>
   <i type="int" name="NGYF">    32</i>
   <i type="int" name="NGZF">    32</i>
   <i type="logical" name="ADDGRID"> F  </i>
  </separator>
  <separator name="ionic" >
   <i type="int" name="NSW">     0</i>
   <i type="int" name="IBRION">    -1</i>
   <i type="int" name="ISIF">     2</i>
   <i name="PSTRESS">      0.00000000</i>
   <i name="EDIFFG">      0.00100000</i>
   <i type="int" name="NFREE">     0</i>
   <i name="POTIM">      0.50000000</i>
   <i name="SMASS">     -3.00000000</i>
   <i name="SCALEE">      1.00000000</i>
  </separator>
  <separator name="ionic md" >
   <i name="TEBEG">      0.00010000</i>
   <i name="TEEND">      0.00010000</i>
   <i type="int" name="NBLOCK">     1</i>
   <i type="int" name="KBLOCK">     1</i>
   <i type="int" name="NPACO">   256</i>
   <i name="APACO">     16.00000000</i>
  </separator>
  <separator name="symmetry" >
   <i type="int" name="ISYM">     2</i>
   <i name="SYMPREC">      0.00001000</i>
  </separator>
  <separator name="dos" >
   <i type="logical" name="LORBIT"> F  </i>
   <v name="RWIGS">     -1.00000000</v>
   <i type="int" name="NEDOS">   301</i>
   <i name="EMIN">     10.00000000</i>
   <i name="EMAX">    -10.00000000</i>
   <i name="EFERMI">      0.00000000</i>
  </separator>
  <separator name="writing" >
   <i type="int" name="NWRITE">     2</i>
   <i type="logical" name="LWAVE"> F  </i>
   <i type="logical" name="LCHARG"> F  </i>
   <i type="logical" name="LPARD"> F  </i>
   <i type="logical" name="LVTOT"> F  </i>
   <i type="logical" name="LVHAR"> F  </i>
   <i type="logical" name="LELF"> F  </i>
   <i type="logical" name="LOPTICS"> F  </i>
   <v name="STM">      0.00000000      0.00000000      0.00000000      0.00000000      0.00000000      0.00000000      0.00000000</v>
  </separator>
  <separator name="performance" >
   <i type="int" name="NPAR">    24</i>
   <i type="int" name="NSIM">     4</i>
   <i type="int" name="NBLK">    -1</i>
   <i type="logical" name="LPLANE"> T  </i>
   <i type="logical" name="LSCALAPACK"> F  </i>
   <i type="logical" name="LSCAAWARE"> F  </i>
   <i type="logical" name="LSCALU"> F  </i>
   <i type="logical" name="LASYNC"> F  </i>
   <i type="logical" name="LORBITALREAL"> F  </i>
  </separator>
  <separator name="miscellaneous" >
   <i type="int" name="IDIOT">     3</i>
   <i type="logical" name="LMUSIC"> F  </i>
   <v name="POMASS">     63.54600000</v>
   <v name="DARWINR">      0.00000000</v>
   <v name="DARWINV">      1.00000000</v>
   <i type="logical" name="LCORR"> T  </i>
  </separator>
  <i type="logical" name="GGA_COMPAT"> T  </i>
  <i type="logical" name="LBERRY"> F  </i>
  <i type="int" name="ICORELEVEL">     0</i>
  <i type="logical" name="LDAU"> F  </i>
  <i type="int" name="I_CONSTRAINED_M">     0</i>
  <separator name="electronic exchange-correlation" >
   <i type="string" name="GGA">--</i>
   <i type="int" name="VOSKOWN">     0</i>
   <i type="logical" name="LHFCALC"> F  </i>
   <i type="string" name="PRECFOCK"></i>
   <i type="logical" name="LSYMGRAD"> F  </i>
   <i type="logical" name="LHFONE"> F  </i>
   <i type="logical" name="LRHFCALC"> F  </i>
   <i type="logical" name="LTHOMAS"> F  </i>
   <i type="logical" name="LMODELHF"> F  </i>
   <i name="ENCUT4O">     -1.00000000</i>
   <i type="int" name="EXXOEP">     0</i>
   <i type="int" name="FOURORBIT">     0</i>
   <i name="AEXX">      0.00000000</i>
   <i name="HFALPHA">      0.00000000</i>
   <i name="MCALPHA">      0.00000000</i>
   <i name="ALDAX">      1.00000000</i>
   <i name="AGGAX">      1.00000000</i>
   <i name="ALDAC">      1.00000000</i>
   <i name="AGGAC">      1.00000000</i>
   <i type="int" name="NKREDX">     1</i>
   <i type="int" name="NKREDY">     1</i>
   <i type="int" name="NKREDZ">     1</i>
   <i type="logical" name="SHIFTRED"> F  </i>
   <i type="logical" name="ODDONLY"> F  </i>
   <i type="logical" name="EVENONLY"> F  </i>
   <i type="int" name="LMAXFOCK">     0</i>
   <i type="int" name="NMAXFOCKAE">     0</i>
   <i type="logical" name="LFOCKAEDFT"> F  </i>
   <i name="HFSCREEN">      0.00000000</i>
   <i name="HFSCREENC">      0.00000000</i>
   <i type="int" name="NBANDSGWLOW">     0</i>
  </separator>
  <separator name="vdW DFT" >
   <i type="logical" name="LUSE_VDW"> F  </i>
   <i name="Zab_VDW">     -0.84910000</i>
   <i name="PARAM1">      0.12340000</i>
   <i name="PARAM2">      1.00000000</i>
   <i name="PARAM3">      0.00000000</i>
  </separator>
  <separator name="model GW" >
   <i type="int" name="MODEL_GW">     0</i>
   <i name="MODEL_EPS0">      5.73750655</i>
   <i name="MODEL_ALPHA">      1.00000000</i>
  </separator>
  <separator name="linear response parameters" >
   <i type="logical" name="LEPSILON"> F  </i>
   <i type="logical" name="LRPA"> F  </i>
   <i type="logical" name="LNABLA"> F  </i>
   <i type="logical" name="LVEL"> F  </i>
   <i type="int" name="KINTER">     0</i>
   <i name="CSHIFT">      0.10000000</i>
   <i name="OMEGAMAX">     -1.00000000</i>
   <i name="DEG_THRESHOLD">      0.00200000</i>
  </separator>
  <separator name="orbital magnetization" >
   <i type="logical" name="NUCIND"> F  </i>
   <v name="MAGPOS">      0.00000000      0.00000000      0.00000000</v>
   <i type="logical" name="LNICSALL"> T  </i>
   <i type="logical" name="ORBITALMAG"> F  </i>
   <i type="logical" name="LMAGBLOCH"> F  </i>
   <i type="logical" name="LCHIMAG"> F  </i>
   <i type="logical" name="LGAUGE"> T  </i>
   <i type="int" name="MAGATOM">     0</i>
   <v name="MAGDIPOL">      0.00000000      0.00000000      0.00000000</v>
   <v name="AVECCONST">      0.00000000      0.00000000      0.00000000</v>
  </separator>
  <separator name="response functions" >
   <i type="logical" name="LADDER"> F  </i>
   <i type="logical" name="LFXC"> F  </i>
   <i type="logical" name="LHARTREE"> T  </i>
   <i type="int" name="IBSE">     0</i>
   <v type="int" name="KPOINT">    -1     0     0     0</v>
   <i type="logical" name="LTCTE"> F  </i>
   <i type="logical" name="LTETE"> F  </i>
   <i type="logical" name="LTRIPLET"> F  </i>
   <i type="logical" name="LFXCEPS"> F  </i>
   <i type="logical" name="LFXHEG"> F  </i>
   <i type="int" name="NATURALO">     0</i>
   <i type="logical" name="L2ORDER"> F  </i>
   <i type="logical" name="LUSEW"> F  </i>
   <i name="ENCUTGW">     -2.00000000</i>
   <i name="ENCUTGWSOFT">     -2.00000000</i>
   <i name="ENCUTLF">     -1.00000000</i>
   <i type="int" name="LMAXMP2">    -1</i>
   <i name="SCISSOR">      0.00000000</i>
   <i type="int" name="NOMEGA">     0</i>
   <i type="int" name="NOMEGAR">     0</i>
   <i type="int" name="NBANDSGW">    -1</i>
   <i type="int" name="NBANDSO">    -1</i>
   <i type="int" name="NBANDSV">    -1</i>
   <i type="int" name="NELM">     1</i>
   <i type="int" name="NELMHF">     1</i>
   <i type="int" name="DIM">     3</i>
   <i type="int" name="ANTIRES">     0</i>
   <i name="OMEGAMAX">    -30.00000000</i>
   <i name="OMEGAMIN">    -30.00000000</i>
   <i name="OMEGATL">   -200.00000000</i>
   <i type="int" name="OMEGAGRID">     0</i>
   <i name="CSHIFT">     -0.10000000</i>
   <i type="logical" name="SELFENERGY"> F  </i>
   <i type="logical" name="LSPECTRAL"> F  </i>
   <i type="logical" name="LSPECTRALGW"> F  </i>
   <i type="logical" name="LSINGLES"> F  </i>
   <i type="logical" name="LFERMIGW"> F  </i>
   <i type="logical" name="ODDONLYGW"> F  </i>
   <i type="logical" name="EVENONLYGW"> F  </i>
   <i type="int" name="NKREDLFX">     1</i>
   <i type="int" name="NKREDLFY">     1</i>
   <i type="int" name="NKREDLFZ">     1</i>
   <i type="int" name="MAXMEM">  1800</i>
   <i type="int" name="TELESCOPE">     0</i>
   <i type="int" name="TAUPAR">     1</i>
   <i type="int" name="OMEGAPAR">    -1</i>
   <i name="LAMBDA">      1.00000000</i>
  </separator>
  <separator name="External order field" >
   <i name="OFIELD_KAPPA">      0.00000000</i>
   <v name="OFIELD_K">      0.00000000      0.00000000      0.00000000</v>
   <i name="OFIELD_Q6_NEAR">      0.00000000</i>
   <i name="OFIELD_Q6_FAR">      0.00000000</i>
   <i name="OFIELD_A">      0.00000000</i>
  </separator>
 </parameters>
 <atominfo>
  <atoms>       4 </atoms>
  <types>       1 </types>
  <array name="atoms" >
   <dimension dim="1">ion</dimension>
   <field type="string">element</field>
   <field type="int">atomtype</field>
   <set>
    <rc><c>Cu</c><c>   1</c></rc>
    <rc><c>Cu</c><c>   1</c></rc>
    <rc><c>Cu</c><c>   1</c></rc>
    <rc><c>Cu</c><c>   1</c></rc>
   </set>
  </array>
  <array name="atomtypes" >
   <dimension dim="1">type</dimension>
   <field type="int">atomspertype</field>
   <field type="string">element</field>
   <field>mass</field>
   <field>valence</field>
   <field type="string">pseudopotential</field>
   <set>
    <rc><c>   4</c><c>Cu</c><c>     63.54600000</c><c>     11.00000000</c><c>  PAW_PBE Cu 22Jun2005                  </c></rc>
   </set>
  </array>
 </atominfo>
 <structure name="initialpos" >
  <crystal>
   <varray name="basis" >
    <v>       3.36933333       0.00000000       0.00000000 </v>
    <v>       0.00000000       3.36933333       0.00000000 </v>
    <v>       0.00000000       0.00000000       3.36933333 </v>
   </varray>
   <i name="volume">     38.25004369 </i>
   <varray name="rec_basis" >
    <v>       0.29679462       0.00000000       0.00000000 </v>
    <v>       0.00000000       0.29679462       0.00000000 </v>
    <v>       0.00000000       0.00000000       0.29679462 </v>
   </varray>
  </crystal>
  <varray name="positions" >
   <v>       0.00000000       0.00000000       0.00000000 </v>
   <v>       0.00000000       0.50000000       0.50000000 </v>
   <v>       0.50000000       0.00000000       0.50000000 </v>
   <v>       0.50000000       0.50000000       0.00000000 </v>
  </varray>
 </structure>
 <calculation>
  <scstep>
   <time name="dav">    0.57    0.57</time>
   <time name="total">    0.60    0.60</time>
   <energy>
    <i name="alphaZ">    305.91464642 </i>
    <i name="ewald">  -4741.91473463 </i>
    <i name="hartreedc">  -1281.95596429 </i>
    <i name="XCdc">    185.78821885 </i>
    <i name="pawpsdc">   4912.82663951 </i>
    <i name="pawaedc">  -5336.19386850 </i>
    <i name="eentropy">      0.00041040 </i>
    <i name="bandstr">    539.73903487 </i>
    <i name="atom">   5563.83056080 </i>
    <i name="e_fr_energy">    148.03494343 </i>
    <i name="e_wo_entrp">    148.03453302 </i>
    <i name="e_0_energy">    148.03480663 </i>
   </energy>
  </scstep>
  <scstep>
   <time name="dav">    0.41    0.41</time>
   <time name="total">    0.41    0.42</time>
   <energy>
    <i name="e_fr_energy">    -13.02308724 </i>
    <i name="e_wo_entrp">    -13.02117108 </i>
    <i name="e_0_energy">    -13.02244852 </i>
   </energy>
  </scstep>
  <scstep>
   <time name="dav">    0.66    0.66</time>
   <time name="total">    0.66    0.67</time>
   <energy>
    <i name="e_fr_energy">    -17.31055121 </i>
    <i name="e_wo_entrp">    -17.31069819 </i>
    <i name="e_0_energy">    -17.31060020 </i>
   </energy>
  </scstep>
  <scstep>
   <time name="dav">    0.42    0.42</time>
   <time name="total">    0.42    0.43</time>
   <energy>
    <i name="e_fr_energy">    -17.33836239 </i>
    <i name="e_wo_entrp">    -17.33851393 </i>
    <i name="e_0_energy">    -17.33841290 </i>
   </energy>
  </scstep>
  <scstep>
   <time name="dav">    0.71    0.72</time>
   <time name="total">    0.72    0.73</time>
   <energy>
    <i name="e_fr_energy">    -17.33870107 </i>
    <i name="e_wo_entrp">    -17.33885261 </i>
    <i name="e_0_energy">    -17.33875159 </i>
   </energy>
  </scstep>
  <scstep>
   <time name="dav">    0.54    0.54</time>
   <time name="total">    0.55    0.56</time>
   <energy>
    <i name="e_fr_energy">    -14.45333868 </i>
    <i name="e_wo_entrp">    -14.45148157 </i>
    <i name="e_0_energy">    -14.45271964 </i>
   </energy>
  </scstep>
  <scstep>
   <time name="dav">    0.57    0.57</time>
   <time name="total">    0.58    0.58</time>
   <energy>
    <i name="e_fr_energy">    -13.64543215 </i>
    <i name="e_wo_entrp">    -13.64300332 </i>
    <i name="e_0_energy">    -13.64462254 </i>
   </energy>
  </scstep>
  <scstep>
   <time name="dav">    0.57    0.57</time>
   <time name="total">    0.58    0.58</time>
   <energy>
    <i name="e_fr_energy">    -13.56685145 </i>
    <i name="e_wo_entrp">    -13.56418729 </i>
    <i name="e_0_energy">    -13.56596340 </i>
   </energy>
  </scstep>
  <scstep>
   <time name="dav">    0.72    0.72</time>
   <time name="total">    0.73    0.73</time>
   <energy>
    <i name="e_fr_energy">    -13.56438507 </i>
    <i name="e_wo_entrp">    -13.56168328 </i>
    <i name="e_0_energy">    -13.56348448 </i>
   </energy>
  </scstep>
  <scstep>
   <time name="dav">    0.43    0.43</time>
   <time name="total">    0.43    0.44</time>
   <energy>
    <i name="alphaZ">    305.91464642 </i>
    <i name="ewald">  -4741.91473463 </i>
    <i name="hartreedc">  -1181.52929231 </i>
    <i name="XCdc">    180.79750204 </i>
    <i name="pawpsdc">   5655.99010425 </i>
    <i name="pawaedc">  -6094.50133389 </i>
    <i name="eentropy">     -0.00270161 </i>
    <i name="bandstr">    297.85081140 </i>
    <i name="atom">   5563.83056080 </i>
    <i name="e_fr_energy">    -13.56443753 </i>
    <i name="e_wo_entrp">    -13.56173592 </i>
    <i name="e_0_energy">    -13.56353700 </i>
   </energy>
  </scstep>
  <structure>
   <crystal>
    <varray name="basis" >
     <v>       3.36933333       0.00000000       0.00000000 </v>
     <v>       0.00000000       3.36933333       0.00000000 </v>
     <v>       0.00000000       0.00000000       3.36933333 </v>
    </varray>
    <i name="volume">     38.25004369 </i>
    <varray name="rec_basis" >
     <v>       0.29679462       0.00000000       0.00000000 </v>
     <v>       0.00000000       0.29679462       0.00000000 </v>
     <v>       0.00000000       0.00000000       0.29679462 </v>
    </varray>
   </crystal>
   <varray name="positions" >
    <v>       0.00000000       0.00000000       0.00000000 </v>
    <v>       0.00000000       0.50000000       0.50000000 </v>
    <v>       0.50000000       0.00000000       0.50000000 </v>
    <v>       0.50000000       0.50000000       0.00000000 </v>
   </varray>
  </structure>
  <varray name="forces" >
   <v>      -0.00000000      -0.00000000      -0.00000000 </v>
   <v>       0.00000000       0.00000000      -0.00000000 </v>
   <v>       0.00000000       0.00000000      -0.00000000 </v>
   <v>      -0.00000000      -0.00000000       0.00000000 </v>
  </varray>
  <varray name="stress" >
   <v>     542.92112655      -0.00000000      -0.00000000 </v>
   <v>      -0.00000000     542.92112655       0.00000000 </v>
   <v>      -0.00000000       0.00000000     542.92112655 </v>
  </varray>
  <energy>
   <i name="e_fr_energy">    -13.56443753 </i>
   <i name="e_wo_entrp">    -13.56353700 </i>
   <i name="e_0_energy">     -0.00270161 </i>
  </energy>
  <time name="totalsc">    5.90    5.96</time>
  <eigenvalues>
   <array>
    <dimension dim="1">band</dimension>
    <dimension dim="2">kpoint</dimension>
    <dimension dim="3">spin</dimension>
    <field>eigene</field>
    <field>occ</field>
    <set>
     <set comment="spin 1">
      <set comment="kpoint 1">
       <r>   -0.5687    1.0000 </r>
       <r>    4.2101    1.0000 </r>
       <r>    4.2101    1.0000 </r>
       <r>    4.2101    1.0000 </r>
       <r>    4.8216    1.0000 </r>
       <r>    4.8216    1.0000 </r>
       <r>    4.8216    1.0000 </r>
       <r>    6.7509    1.0000 </r>
       <r>    6.7509    1.0000 </r>
       <r>    6.7509    1.0000 </r>
       <r>    7.8972    1.0000 </r>
       <r>    7.8972    1.0000 </r>
       <r>    8.6561    1.0000 </r>
       <r>    8.6561    1.0000 </r>
       <r>    8.6561    1.0000 </r>
       <r>    8.8726    1.0000 </r>
       <r>    8.8726    1.0000 </r>
       <r>    8.8726    1.0000 </r>
       <r>    8.8726    1.0000 </r>
       <r>    8.8726    1.0000 </r>
       <r>    8.8726    1.0000 </r>
       <r>   11.8654   -0.0000 </r>
       <r>   11.8654   -0.0000 </r>
       <r>   11.8654   -0.0000 </r>
       <r>   19.2377    0.0000 </r>
       <r>   19.2377    0.0000 </r>
       <r>   19.2377    0.0000 </r>
       <r>   25.3392    0.0000 </r>
       <r>   25.3392    0.0000 </r>
       <r>   25.3392    0.0000 </r>
       <r>   25.3392    0.0000 </r>
       <r>   25.3392    0.0000 </r>
       <r>   25.3392    0.0000 </r>
       <r>   30.4357    0.0000 </r>
       <r>   30.4357    0.0000 </r>
       <r>   30.4357    0.0000 </r>
       <r>   34.6290    0.0000 </r>
       <r>   34.6290    0.0000 </r>
       <r>   34.6290    0.0000 </r>
       <r>   34.7595    0.0000 </r>
       <r>   39.1170    0.0000 </r>
       <r>   39.1170    0.0000 </r>
       <r>   39.1170    0.0000 </r>
       <r>   42.0161    0.0000 </r>
       <r>   42.0161    0.0000 </r>
       <r>   42.0161    0.0000 </r>
       <r>   45.6491    0.0000 </r>
       <r>   52.5307    0.0000 </r>
      </set>
      <set comment="kpoint 2">
       <r>   -0.3938    1.0000 </r>
       <r>    4.2193    1.0000 </r>
       <r>    4.2999    1.0000 </r>
       <r>    4.2999    1.0000 </r>
       <r>    4.8754    1.0000 </r>
       <r>    4.8798    1.0000 </r>
       <r>    4.8798    1.0000 </r>
       <r>    6.6878    1.0000 </r>
       <r>    6.7993    1.0000 </r>
       <r>    6.7993    1.0000 </r>
       <r>    7.8398    1.0000 </r>
       <r>    7.9194    1.0000 </r>
       <r>    8.4884    1.0000 </r>
       <r>    8.4884    1.0000 </r>
       <r>    8.5826    1.0000 </r>
       <r>    8.5826    1.0000 </r>
       <r>    8.6333    1.0000 </r>
       <r>    8.7863    1.0000 </r>
       <r>    8.7863    1.0000 </r>
       <r>    8.8730    1.0000 </r>
       <r>    8.8730    1.0000 </r>
       <r>   11.0041   -0.0000 </r>
       <r>   12.3970   -0.0000 </r>
       <r>   12.3970   -0.0000 </r>
       <r>   19.2783    0.0000 </r>
       <r>   19.2783    0.0000 </r>
       <r>   20.4030    0.0000 </r>
       <r>   24.3428    0.0000 </r>
       <r>   24.3428    0.0000 </r>
       <r>   24.7607    0.0000 </r>
       <r>   24.7607    0.0000 </r>
       <r>   25.6080    0.0000 </r>
       <r>   25.6080    0.0000 </r>
       <r>   30.4909    0.0000 </r>
       <r>   31.6220    0.0000 </r>
       <r>   31.6220    0.0000 </r>
       <r>   34.3831    0.0000 </r>
       <r>   34.6960    0.0000 </r>
       <r>   35.6033    0.0000 </r>
       <r>   35.6033    0.0000 </r>
       <r>   37.7024    0.0000 </r>
       <r>   37.7024    0.0000 </r>
       <r>   38.2738    0.0000 </r>
       <r>   42.7713    0.0000 </r>
       <r>   43.4123    0.0000 </r>
       <r>   43.4123    0.0000 </r>
       <r>   46.4670    0.0000 </r>
       <r>   49.6181    0.0000 </r>
      </set>
      <set comment="kpoint 3">
       <r>    0.1221    1.0000 </r>
       <r>    4.1868    1.0000 </r>
       <r>    4.5463    1.0000 </r>
       <r>    4.5463    1.0000 </r>
       <r>    5.0317    1.0000 </r>
       <r>    5.0555    1.0000 </r>
       <r>    5.0555    1.0000 </r>
       <r>    6.5079    1.0000 </r>
       <r>    6.9426    1.0000 </r>
       <r>    6.9426    1.0000 </r>
       <r>    7.6803    1.0000 </r>
       <r>    7.7405    1.0000 </r>
       <r>    7.7405    1.0000 </r>
       <r>    7.9836    1.0000 </r>
       <r>    8.3740    1.0000 </r>
       <r>    8.3740    1.0000 </r>
       <r>    8.5489    1.0000 </r>
       <r>    8.5489    1.0000 </r>
       <r>    8.5656    1.0000 </r>
       <r>    8.8734    1.0000 </r>
       <r>    8.8734    1.0000 </r>
       <r>    9.3649    1.0000 </r>
       <r>   13.5849    0.0000 </r>
       <r>   13.5849    0.0000 </r>
       <r>   19.4063    0.0000 </r>
       <r>   19.4063    0.0000 </r>
       <r>   22.4619    0.0000 </r>
       <r>   22.4619    0.0000 </r>
       <r>   22.9913    0.0000 </r>
       <r>   23.5481    0.0000 </r>
       <r>   23.5481    0.0000 </r>
       <r>   26.3891    0.0000 </r>
       <r>   26.3891    0.0000 </r>
       <r>   30.6599    0.0000 </r>
       <r>   33.5685    0.0000 </r>
       <r>   34.0759    0.0000 </r>
       <r>   34.0759    0.0000 </r>
       <r>   34.9286    0.0000 </r>
       <r>   35.4636    0.0000 </r>
       <r>   35.4636    0.0000 </r>
       <r>   36.5669    0.0000 </r>
       <r>   37.9862    0.0000 </r>
       <r>   37.9862    0.0000 </r>
       <r>   44.6801    0.0000 </r>
       <r>   44.7113    0.0000 </r>
       <r>   45.6177    0.0000 </r>
       <r>   45.6177    0.0000 </r>
       <r>   49.7592    0.0000 </r>
      </set>
      <set comment="kpoint 4">
       <r>    0.9473    1.0000 </r>
       <r>    3.8988    1.0000 </r>
       <r>    4.8728    1.0000 </r>
       <r>    4.8728    1.0000 </r>
       <r>    5.2749    1.0000 </r>
       <r>    5.3519    1.0000 </r>
       <r>    5.3519    1.0000 </r>
       <r>    6.2376    1.0000 </r>
       <r>    6.9835    1.0000 </r>
       <r>    6.9835    1.0000 </r>
       <r>    7.1742    1.0000 </r>
       <r>    7.1742    1.0000 </r>
       <r>    7.4612    1.0000 </r>
       <r>    7.9772    1.0000 </r>
       <r>    8.0825    1.0000 </r>
       <r>    8.0886    1.0000 </r>
       <r>    8.0886    1.0000 </r>
       <r>    8.2124    1.0000 </r>
       <r>    8.2124    1.0000 </r>
       <r>    8.4624    1.0000 </r>
       <r>    8.8742    1.0000 </r>
       <r>    8.8742    1.0000 </r>
       <r>   15.0684    0.0000 </r>
       <r>   15.0684    0.0000 </r>
       <r>   19.6309    0.0000 </r>
       <r>   19.6309    0.0000 </r>
       <r>   20.4738    0.0000 </r>
       <r>   20.4738    0.0000 </r>
       <r>   22.3606    0.0000 </r>
       <r>   22.3606    0.0000 </r>
       <r>   26.1068    0.0000 </r>
       <r>   27.6187    0.0000 </r>
       <r>   27.6187    0.0000 </r>
       <r>   30.9527    0.0000 </r>
       <r>   32.7103    0.0000 </r>
       <r>   33.2174    0.0000 </r>
       <r>   33.2174    0.0000 </r>
       <r>   34.6081    0.0000 </r>
       <r>   35.4292    0.0000 </r>
       <r>   37.0299    0.0000 </r>
       <r>   37.0299    0.0000 </r>
       <r>   41.0400    0.0000 </r>
       <r>   41.0400    0.0000 </r>
       <r>   41.0981    0.0000 </r>
       <r>   47.4114    0.0000 </r>
       <r>   47.7950    0.0000 </r>
       <r>   47.8003    0.0000 </r>
       <r>   47.8967    0.0000 </r>
      </set>
      <set comment="kpoint 5">
       <r>    2.0053    1.0000 </r>
       <r>    3.1098    1.0000 </r>
       <r>    5.1275    1.0000 </r>
       <r>    5.1275    1.0000 </r>
       <r>    5.5804    1.0000 </r>
       <r>    5.7719    1.0000 </r>
       <r>    5.7719    1.0000 </r>
       <r>    5.9145    1.0000 </r>
       <r>    6.3180    1.0000 </r>
       <r>    6.3180    1.0000 </r>
       <r>    7.2747    1.0000 </r>
       <r>    7.3248    1.0000 </r>
       <r>    7.4809    1.0000 </r>
       <r>    7.4809    1.0000 </r>
       <r>    7.8391    1.0000 </r>
       <r>    7.8391    1.0000 </r>
       <r>    7.8594    1.0000 </r>
       <r>    7.8594    1.0000 </r>
       <r>    8.2051    1.0000 </r>
       <r>    8.3370    1.0000 </r>
       <r>    8.8744    1.0000 </r>
       <r>    8.8744    1.0000 </r>
       <r>   16.7369    0.0000 </r>
       <r>   16.7369    0.0000 </r>
       <r>   18.5486    0.0000 </r>
       <r>   18.5486    0.0000 </r>
       <r>   19.8954    0.0000 </r>
       <r>   19.8954    0.0000 </r>
       <r>   21.5610    0.0000 </r>
       <r>   21.5610    0.0000 </r>
       <r>   29.2178    0.0000 </r>
       <r>   29.2178    0.0000 </r>
       <r>   29.3306    0.0000 </r>
       <r>   31.1085    0.0000 </r>
       <r>   31.1085    0.0000 </r>
       <r>   31.3843    0.0000 </r>
       <r>   31.9692    0.0000 </r>
       <r>   32.2605    0.0000 </r>
       <r>   36.4044    0.0000 </r>
       <r>   38.2111    0.0000 </r>
       <r>   40.3261    0.0000 </r>
       <r>   40.3261    0.0000 </r>
       <r>   43.9252    0.0000 </r>
       <r>   43.9252    0.0000 </r>
       <r>   44.0091    0.0000 </r>
       <r>   44.0091    0.0000 </r>
       <r>   50.2480    0.0000 </r>
       <r>   50.2486    0.0000 </r>
      </set>
      <set comment="kpoint 6">
       <r>   -0.2204    1.0000 </r>
       <r>    4.3122    1.0000 </r>
       <r>    4.3122    1.0000 </r>
       <r>    4.3863    1.0000 </r>
       <r>    4.9317    1.0000 </r>
       <r>    4.9317    1.0000 </r>
       <r>    4.9344    1.0000 </r>
       <r>    6.6529    1.0000 </r>
       <r>    6.8221    1.0000 </r>
       <r>    6.8387    1.0000 </r>
       <r>    7.8248    1.0000 </r>
       <r>    7.9086    1.0000 </r>
       <r>    8.2408    1.0000 </r>
       <r>    8.3345    1.0000 </r>
       <r>    8.3345    1.0000 </r>
       <r>    8.5141    1.0000 </r>
       <r>    8.5955    1.0000 </r>
       <r>    8.5955    1.0000 </r>
       <r>    8.7861    1.0000 </r>
       <r>    8.7861    1.0000 </r>
       <r>    8.8177    1.0000 </r>
       <r>   11.5372   -0.0000 </r>
       <r>   11.5372   -0.0000 </r>
       <r>   12.8484   -0.0000 </r>
       <r>   19.3080    0.0000 </r>
       <r>   20.4730    0.0000 </r>
       <r>   20.4730    0.0000 </r>
       <r>   22.5601    0.0000 </r>
       <r>   24.5836    0.0000 </r>
       <r>   24.5836    0.0000 </r>
       <r>   25.0123    0.0000 </r>
       <r>   25.0123    0.0000 </r>
       <r>   25.8640    0.0000 </r>
       <r>   31.6683    0.0000 </r>
       <r>   31.7074    0.0000 </r>
       <r>   31.7074    0.0000 </r>
       <r>   33.6448    0.0000 </r>
       <r>   35.6804    0.0000 </r>
       <r>   35.6804    0.0000 </r>
       <r>   35.7733    0.0000 </r>
       <r>   36.8343    0.0000 </r>
       <r>   37.7617    0.0000 </r>
       <r>   39.5978    0.0000 </r>
       <r>   42.1598    0.0000 </r>
       <r>   42.5729    0.0000 </r>
       <r>   45.0413    0.0000 </r>
       <r>   48.0620    0.0000 </r>
       <r>   48.7228    0.0000 </r>
      </set>
      <set comment="kpoint 7">
       <r>    0.2904    1.0000 </r>
       <r>    4.2892    1.0000 </r>
       <r>    4.5683    1.0000 </r>
       <r>    4.6243    1.0000 </r>
       <r>    5.0822    1.0000 </r>
       <r>    5.0977    1.0000 </r>
       <r>    5.1014    1.0000 </r>
       <r>    6.4944    1.0000 </r>
       <r>    6.9509    1.0000 </r>
       <r>    6.9510    1.0000 </r>
       <r>    7.5885    1.0000 </r>
       <r>    7.6235    1.0000 </r>
       <r>    7.6943    1.0000 </r>
       <r>    7.9639    1.0000 </r>
       <r>    7.9753    1.0000 </r>
       <r>    8.3205    1.0000 </r>
       <r>    8.3844    1.0000 </r>
       <r>    8.5317    1.0000 </r>
       <r>    8.5477    1.0000 </r>
       <r>    8.7855    1.0000 </r>
       <r>    8.7882    1.0000 </r>
       <r>   10.0023    1.0000 </r>
       <r>   12.6331   -0.0000 </r>
       <r>   13.9368    0.0000 </r>
       <r>   19.3198    0.0000 </r>
       <r>   20.6869    0.0000 </r>
       <r>   20.6935    0.0000 </r>
       <r>   22.6843    0.0000 </r>
       <r>   23.0728    0.0000 </r>
       <r>   23.7773    0.0000 </r>
       <r>   25.2753    0.0000 </r>
       <r>   25.5309    0.0000 </r>
       <r>   25.7576    0.0000 </r>
       <r>   31.9719    0.0000 </r>
       <r>   32.2244    0.0000 </r>
       <r>   33.1197    0.0000 </r>
       <r>   33.6195    0.0000 </r>
       <r>   34.1865    0.0000 </r>
       <r>   35.9410    0.0000 </r>
       <r>   36.8531    0.0000 </r>
       <r>   38.0619    0.0000 </r>
       <r>   38.4753    0.0000 </r>
       <r>   39.4493    0.0000 </r>
       <r>   43.3241    0.0000 </r>
       <r>   43.3556    0.0000 </r>
       <r>   45.5652    0.0000 </r>
       <r>   47.2037    0.0000 </r>
       <r>   50.8181    0.0000 </r>
      </set>
      <set comment="kpoint 8">
       <r>    1.1066    1.0000 </r>
       <r>    4.0151    1.0000 </r>
       <r>    4.9118    1.0000 </r>
       <r>    4.9459    1.0000 </r>
       <r>    5.3166    1.0000 </r>
       <r>    5.3636    1.0000 </r>
       <r>    5.3873    1.0000 </r>
       <r>    6.2392    1.0000 </r>
       <r>    6.8557    1.0000 </r>
       <r>    6.9366    1.0000 </r>
       <r>    7.0895    1.0000 </r>
       <r>    7.1777    1.0000 </r>
       <r>    7.4217    1.0000 </r>
       <r>    7.5439    1.0000 </r>
       <r>    8.0542    1.0000 </r>
       <r>    8.0991    1.0000 </r>
       <r>    8.1015    1.0000 </r>
       <r>    8.2113    1.0000 </r>
       <r>    8.3473    1.0000 </r>
       <r>    8.7819    1.0000 </r>
       <r>    8.7846    1.0000 </r>
       <r>    8.8960    1.0000 </r>
       <r>   13.9270    0.0000 </r>
       <r>   15.3594    0.0000 </r>
       <r>   18.4019    0.0000 </r>
       <r>   20.0534    0.0000 </r>
       <r>   20.6957    0.0000 </r>
       <r>   21.0056    0.0000 </r>
       <r>   22.6321    0.0000 </r>
       <r>   24.3429    0.0000 </r>
       <r>   25.9963    0.0000 </r>
       <r>   26.3380    0.0000 </r>
       <r>   27.1235    0.0000 </r>
       <r>   30.6865    0.0000 </r>
       <r>   31.5935    0.0000 </r>
       <r>   32.4405    0.0000 </r>
       <r>   35.4361    0.0000 </r>
       <r>   35.8070    0.0000 </r>
       <r>   36.0793    0.0000 </r>
       <r>   36.4731    0.0000 </r>
       <r>   37.1529    0.0000 </r>
       <r>   41.0063    0.0000 </r>
       <r>   41.5158    0.0000 </r>
       <r>   42.5852    0.0000 </r>
       <r>   45.7853    0.0000 </r>
       <r>   46.0496    0.0000 </r>
       <r>   47.2089    0.0000 </r>
       <r>   47.9286    0.0000 </r>
      </set>
      <set comment="kpoint 9">
       <r>    2.1514    1.0000 </r>
       <r>    3.2403    1.0000 </r>
       <r>    5.1902    1.0000 </r>
       <r>    5.2049    1.0000 </r>
       <r>    5.6102    1.0000 </r>
       <r>    5.7287    1.0000 </r>
       <r>    5.7910    1.0000 </r>
       <r>    5.9308    1.0000 </r>
       <r>    6.2253    1.0000 </r>
       <r>    6.3117    1.0000 </r>
       <r>    7.0737    1.0000 </r>
       <r>    7.0780    1.0000 </r>
       <r>    7.4819    1.0000 </r>
       <r>    7.6378    1.0000 </r>
       <r>    7.8384    1.0000 </r>
       <r>    7.8459    1.0000 </r>
       <r>    7.8651    1.0000 </r>
       <r>    7.9775    1.0000 </r>
       <r>    8.2597    1.0000 </r>
       <r>    8.4646    1.0000 </r>
       <r>    8.7815    1.0000 </r>
       <r>    8.7831    1.0000 </r>
       <r>   15.3317    0.0000 </r>
       <r>   16.8330    0.0000 </r>
       <r>   16.9916    0.0000 </r>
       <r>   18.7816    0.0000 </r>
       <r>   20.4139    0.0000 </r>
       <r>   20.9542    0.0000 </r>
       <r>   22.3578    0.0000 </r>
       <r>   23.1582    0.0000 </r>
       <r>   27.6651    0.0000 </r>
       <r>   27.9909    0.0000 </r>
       <r>   29.1457    0.0000 </r>
       <r>   29.7215    0.0000 </r>
       <r>   29.9347    0.0000 </r>
       <r>   33.1529    0.0000 </r>
       <r>   33.1756    0.0000 </r>
       <r>   34.1512    0.0000 </r>
       <r>   37.4291    0.0000 </r>
       <r>   39.0062    0.0000 </r>
       <r>   39.0419    0.0000 </r>
       <r>   40.4564    0.0000 </r>
       <r>   42.0871    0.0000 </r>
       <r>   44.0600    0.0000 </r>
       <r>   45.4624    0.0000 </r>
       <r>   45.5793    0.0000 </r>
       <r>   48.0522    0.0000 </r>
       <r>   48.7096    0.0000 </r>
      </set>
      <set comment="kpoint 10">
       <r>    0.7853    1.0000 </r>
       <r>    4.5745    1.0000 </r>
       <r>    4.5745    1.0000 </r>
       <r>    4.8386    1.0000 </r>
       <r>    5.2230    1.0000 </r>
       <r>    5.2346    1.0000 </r>
       <r>    5.2346    1.0000 </r>
       <r>    6.4107    1.0000 </r>
       <r>    6.9771    1.0000 </r>
       <r>    7.0250    1.0000 </r>
       <r>    7.2222    1.0000 </r>
       <r>    7.2222    1.0000 </r>
       <r>    7.2761    1.0000 </r>
       <r>    7.6499    1.0000 </r>
       <r>    8.0433    1.0000 </r>
       <r>    8.1655    1.0000 </r>
       <r>    8.3445    1.0000 </r>
       <r>    8.3445    1.0000 </r>
       <r>    8.5451    1.0000 </r>
       <r>    8.5451    1.0000 </r>
       <r>    8.6550    1.0000 </r>
       <r>   11.0000   -0.0000 </r>
       <r>   11.0000   -0.0000 </r>
       <r>   14.8631    0.0000 </r>
       <r>   18.0680    0.0000 </r>
       <r>   19.9861    0.0000 </r>
       <r>   23.2227    0.0000 </r>
       <r>   23.2227    0.0000 </r>
       <r>   23.3234    0.0000 </r>
       <r>   23.3234    0.0000 </r>
       <r>   24.5768    0.0000 </r>
       <r>   24.5768    0.0000 </r>
       <r>   27.3531    0.0000 </r>
       <r>   30.3790    0.0000 </r>
       <r>   31.4843    0.0000 </r>
       <r>   32.3695    0.0000 </r>
       <r>   34.5224    0.0000 </r>
       <r>   34.5224    0.0000 </r>
       <r>   38.3036    0.0000 </r>
       <r>   38.3130    0.0000 </r>
       <r>   38.3130    0.0000 </r>
       <r>   40.6932    0.0000 </r>
       <r>   40.7704    0.0000 </r>
       <r>   42.2436    0.0000 </r>
       <r>   42.6095    0.0000 </r>
       <r>   44.5676    0.0000 </r>
       <r>   49.2030    0.0000 </r>
       <r>   49.6448    0.0000 </r>
      </set>
      <set comment="kpoint 11">
       <r>    1.5729    1.0000 </r>
       <r>    4.3409    1.0000 </r>
       <r>    4.9690    1.0000 </r>
       <r>    5.1394    1.0000 </r>
       <r>    5.4092    1.0000 </r>
       <r>    5.4407    1.0000 </r>
       <r>    5.4891    1.0000 </r>
       <r>    6.2242    1.0000 </r>
       <r>    6.5645    1.0000 </r>
       <r>    6.7887    1.0000 </r>
       <r>    6.8404    1.0000 </r>
       <r>    6.9811    1.0000 </r>
       <r>    7.2125    1.0000 </r>
       <r>    7.5630    1.0000 </r>
       <r>    7.9470    1.0000 </r>
       <r>    8.0776    1.0000 </r>
       <r>    8.1823    1.0000 </r>
       <r>    8.2091    1.0000 </r>
       <r>    8.2402    1.0000 </r>
       <r>    8.5425    1.0000 </r>
       <r>    8.5806    1.0000 </r>
       <r>    9.6968    1.0000 </r>
       <r>   12.0988   -0.0000 </r>
       <r>   16.1619    0.0000 </r>
       <r>   16.2629    0.0000 </r>
       <r>   20.2628    0.0000 </r>
       <r>   21.3333    0.0000 </r>
       <r>   22.6493    0.0000 </r>
       <r>   24.3097    0.0000 </r>
       <r>   24.3525    0.0000 </r>
       <r>   24.9939    0.0000 </r>
       <r>   27.0116    0.0000 </r>
       <r>   27.2215    0.0000 </r>
       <r>   28.6293    0.0000 </r>
       <r>   29.5419    0.0000 </r>
       <r>   33.9612    0.0000 </r>
       <r>   35.0937    0.0000 </r>
       <r>   37.5226    0.0000 </r>
       <r>   37.5582    0.0000 </r>
       <r>   38.0068    0.0000 </r>
       <r>   38.8050    0.0000 </r>
       <r>   40.8851    0.0000 </r>
       <r>   42.5565    0.0000 </r>
       <r>   42.8583    0.0000 </r>
       <r>   44.1372    0.0000 </r>
       <r>   45.4583    0.0000 </r>
       <r>   46.1207    0.0000 </r>
       <r>   47.9739    0.0000 </r>
      </set>
      <set comment="kpoint 12">
       <r>    2.5744    1.0000 </r>
       <r>    3.6105    1.0000 </r>
       <r>    5.3267    1.0000 </r>
       <r>    5.4203    1.0000 </r>
       <r>    5.6111    1.0000 </r>
       <r>    5.6966    1.0000 </r>
       <r>    5.8432    1.0000 </r>
       <r>    5.9708    1.0000 </r>
       <r>    6.0165    1.0000 </r>
       <r>    6.2869    1.0000 </r>
       <r>    6.7299    1.0000 </r>
       <r>    6.8621    1.0000 </r>
       <r>    7.4958    1.0000 </r>
       <r>    7.6466    1.0000 </r>
       <r>    7.7846    1.0000 </r>
       <r>    7.8375    1.0000 </r>
       <r>    7.8415    1.0000 </r>
       <r>    7.9055    1.0000 </r>
       <r>    8.5234    1.0000 </r>
       <r>    8.5424    1.0000 </r>
       <r>    8.5509    1.0000 </r>
       <r>    8.9397    1.0000 </r>
       <r>   13.3051   -0.0000 </r>
       <r>   14.6725    0.0000 </r>
       <r>   17.7107    0.0000 </r>
       <r>   19.4472    0.0000 </r>
       <r>   20.8156    0.0000 </r>
       <r>   21.6285    0.0000 </r>
       <r>   25.0815    0.0000 </r>
       <r>   25.5629    0.0000 </r>
       <r>   26.1318    0.0000 </r>
       <r>   26.3155    0.0000 </r>
       <r>   27.0168    0.0000 </r>
       <r>   27.8193    0.0000 </r>
       <r>   30.4445    0.0000 </r>
       <r>   34.0450    0.0000 </r>
       <r>   35.9059    0.0000 </r>
       <r>   36.9321    0.0000 </r>
       <r>   36.9727    0.0000 </r>
       <r>   39.6285    0.0000 </r>
       <r>   40.1793    0.0000 </r>
       <r>   40.8461    0.0000 </r>
       <r>   40.8780    0.0000 </r>
       <r>   44.4635    0.0000 </r>
       <r>   44.6109    0.0000 </r>
       <r>   46.2984    0.0000 </r>
       <r>   46.4300    0.0000 </r>
       <r>   46.9776    0.0000 </r>
      </set>
      <set comment="kpoint 13">
       <r>    2.3067    1.0000 </r>
       <r>    4.7985    1.0000 </r>
       <r>    4.7985    1.0000 </r>
       <r>    5.3530    1.0000 </r>
       <r>    5.5265    1.0000 </r>
       <r>    5.6435    1.0000 </r>
       <r>    5.6435    1.0000 </r>
       <r>    6.1515    1.0000 </r>
       <r>    6.3597    1.0000 </r>
       <r>    6.3597    1.0000 </r>
       <r>    6.5401    1.0000 </r>
       <r>    6.8869    1.0000 </r>
       <r>    7.3296    1.0000 </r>
       <r>    7.4733    1.0000 </r>
       <r>    7.7803    1.0000 </r>
       <r>    7.9378    1.0000 </r>
       <r>    7.9378    1.0000 </r>
       <r>    8.2116    1.0000 </r>
       <r>    8.2116    1.0000 </r>
       <r>    8.3966    1.0000 </r>
       <r>    8.5442    1.0000 </r>
       <r>   10.5834    0.6800 </r>
       <r>   10.5834    0.6800 </r>
       <r>   14.3772    0.0000 </r>
       <r>   17.3433    0.0000 </r>
       <r>   20.7048    0.0000 </r>
       <r>   22.3200    0.0000 </r>
       <r>   22.3200    0.0000 </r>
       <r>   23.5804    0.0000 </r>
       <r>   23.5804    0.0000 </r>
       <r>   26.7592    0.0000 </r>
       <r>   27.5535    0.0000 </r>
       <r>   27.5535    0.0000 </r>
       <r>   27.6746    0.0000 </r>
       <r>   29.6212    0.0000 </r>
       <r>   33.0224    0.0000 </r>
       <r>   38.0853    0.0000 </r>
       <r>   38.1373    0.0000 </r>
       <r>   38.1373    0.0000 </r>
       <r>   39.3715    0.0000 </r>
       <r>   40.0761    0.0000 </r>
       <r>   40.6169    0.0000 </r>
       <r>   40.6169    0.0000 </r>
       <r>   43.4176    0.0000 </r>
       <r>   44.1651    0.0000 </r>
       <r>   45.2548    0.0000 </r>
       <r>   45.2548    0.0000 </r>
       <r>   48.7453    0.0000 </r>
      </set>
      <set comment="kpoint 14">
       <r>    3.2218    1.0000 </r>
       <r>    4.1482    1.0000 </r>
       <r>    5.2317    1.0000 </r>
       <r>    5.4269    1.0000 </r>
       <r>    5.7299    1.0000 </r>
       <r>    5.8278    1.0000 </r>
       <r>    5.9145    1.0000 </r>
       <r>    5.9916    1.0000 </r>
       <r>    6.0098    1.0000 </r>
       <r>    6.2286    1.0000 </r>
       <r>    6.4625    1.0000 </r>
       <r>    6.7079    1.0000 </r>
       <r>    7.4961    1.0000 </r>
       <r>    7.5536    1.0000 </r>
       <r>    7.6499    1.0000 </r>
       <r>    7.6978    1.0000 </r>
       <r>    7.7112    1.0000 </r>
       <r>    7.8626    1.0000 </r>
       <r>    8.2301    1.0000 </r>
       <r>    8.2835    1.0000 </r>
       <r>    8.9663    1.0000 </r>
       <r>    9.5802    1.0000 </r>
       <r>   11.5991   -0.0000 </r>
       <r>   12.8335   -0.0000 </r>
       <r>   18.8004    0.0000 </r>
       <r>   20.4718    0.0000 </r>
       <r>   21.3876    0.0000 </r>
       <r>   22.3444    0.0000 </r>
       <r>   23.5850    0.0000 </r>
       <r>   24.6913    0.0000 </r>
       <r>   25.0746    0.0000 </r>
       <r>   26.0542    0.0000 </r>
       <r>   28.4155    0.0000 </r>
       <r>   29.4463    0.0000 </r>
       <r>   31.1170    0.0000 </r>
       <r>   34.8426    0.0000 </r>
       <r>   35.1356    0.0000 </r>
       <r>   38.4498    0.0000 </r>
       <r>   38.9768    0.0000 </r>
       <r>   39.5433    0.0000 </r>
       <r>   39.9203    0.0000 </r>
       <r>   40.1516    0.0000 </r>
       <r>   41.4866    0.0000 </r>
       <r>   44.7401    0.0000 </r>
       <r>   44.8572    0.0000 </r>
       <r>   45.1278    0.0000 </r>
       <r>   45.4173    0.0000 </r>
       <r>   47.1159    0.0000 </r>
      </set>
      <set comment="kpoint 15">
       <r>    3.9885    1.0000 </r>
       <r>    4.7149    1.0000 </r>
       <r>    4.7149    1.0000 </r>
       <r>    5.1525    1.0000 </r>
       <r>    5.9815    1.0000 </r>
       <r>    5.9815    1.0000 </r>
       <r>    6.0177    1.0000 </r>
       <r>    6.0372    1.0000 </r>
       <r>    6.1244    1.0000 </r>
       <r>    6.2645    1.0000 </r>
       <r>    6.2645    1.0000 </r>
       <r>    6.5399    1.0000 </r>
       <r>    7.4014    1.0000 </r>
       <r>    7.5018    1.0000 </r>
       <r>    7.5111    1.0000 </r>
       <r>    7.5111    1.0000 </r>
       <r>    7.6925    1.0000 </r>
       <r>    7.9270    1.0000 </r>
       <r>    7.9270    1.0000 </r>
       <r>    8.0636    1.0000 </r>
       <r>    9.5475    1.0000 </r>
       <r>   10.3680    1.0020 </r>
       <r>   10.3680    1.0020 </r>
       <r>   11.4105   -0.0000 </r>
       <r>   20.1761    0.0000 </r>
       <r>   21.7820    0.0000 </r>
       <r>   21.7820    0.0000 </r>
       <r>   22.2071    0.0000 </r>
       <r>   23.3059    0.0000 </r>
       <r>   23.3059    0.0000 </r>
       <r>   23.3257    0.0000 </r>
       <r>   24.5409    0.0000 </r>
       <r>   32.0205    0.0000 </r>
       <r>   32.0205    0.0000 </r>
       <r>   32.4891    0.0000 </r>
       <r>   34.0872    0.0000 </r>
       <r>   35.7705    0.0000 </r>
       <r>   35.8146    0.0000 </r>
       <r>   36.9810    0.0000 </r>
       <r>   36.9810    0.0000 </r>
       <r>   42.3239    0.0000 </r>
       <r>   42.3239    0.0000 </r>
       <r>   42.5737    0.0000 </r>
       <r>   44.6599    0.0000 </r>
       <r>   45.6785    0.0000 </r>
       <r>   46.4180    0.0000 </r>
       <r>   46.9818    0.0000 </r>
       <r>   47.3228    0.0000 </r>
      </set>
      <set comment="kpoint 16">
       <r>   -0.0490    1.0000 </r>
       <r>    4.4008    1.0000 </r>
       <r>    4.4008    1.0000 </r>
       <r>    4.4008    1.0000 </r>
       <r>    4.9845    1.0000 </r>
       <r>    4.9845    1.0000 </r>
       <r>    4.9845    1.0000 </r>
       <r>    6.6223    1.0000 </r>
       <r>    6.8560    1.0000 </r>
       <r>    6.8560    1.0000 </r>
       <r>    7.8585    1.0000 </r>
       <r>    7.8585    1.0000 </r>
       <r>    8.1091    1.0000 </r>
       <r>    8.1091    1.0000 </r>
       <r>    8.1091    1.0000 </r>
       <r>    8.4339    1.0000 </r>
       <r>    8.4339    1.0000 </r>
       <r>    8.4339    1.0000 </r>
       <r>    8.7985    1.0000 </r>
       <r>    8.7985    1.0000 </r>
       <r>    8.7985    1.0000 </r>
       <r>   11.9599   -0.0000 </r>
       <r>   11.9599   -0.0000 </r>
       <r>   11.9599   -0.0000 </r>
       <r>   20.5266    0.0000 </r>
       <r>   20.5266    0.0000 </r>
       <r>   20.5266    0.0000 </r>
       <r>   22.7993    0.0000 </r>
       <r>   22.7993    0.0000 </r>
       <r>   22.7993    0.0000 </r>
       <r>   26.1221    0.0000 </r>
       <r>   26.1221    0.0000 </r>
       <r>   26.1221    0.0000 </r>
       <r>   31.7397    0.0000 </r>
       <r>   31.7397    0.0000 </r>
       <r>   31.7397    0.0000 </r>
       <r>   32.3960    0.0000 </r>
       <r>   36.0973    0.0000 </r>
       <r>   36.9236    0.0000 </r>
       <r>   36.9236    0.0000 </r>
       <r>   36.9236    0.0000 </r>
       <r>   38.1247    0.0000 </r>
       <r>   38.1247    0.0000 </r>
       <r>   43.4960    0.0000 </r>
       <r>   43.4960    0.0000 </r>
       <r>   43.5040    0.0000 </r>
       <r>   49.1664    0.0000 </r>
       <r>   49.1664    0.0000 </r>
      </set>
      <set comment="kpoint 17">
       <r>    0.4559    1.0000 </r>
       <r>    4.3840    1.0000 </r>
       <r>    4.6452    1.0000 </r>
       <r>    4.6452    1.0000 </r>
       <r>    5.1309    1.0000 </r>
       <r>    5.1425    1.0000 </r>
       <r>    5.1425    1.0000 </r>
       <r>    6.4834    1.0000 </r>
       <r>    6.9511    1.0000 </r>
       <r>    6.9583    1.0000 </r>
       <r>    7.4895    1.0000 </r>
       <r>    7.4895    1.0000 </r>
       <r>    7.7275    1.0000 </r>
       <r>    7.7307    1.0000 </r>
       <r>    7.9542    1.0000 </r>
       <r>    8.2258    1.0000 </r>
       <r>    8.2626    1.0000 </r>
       <r>    8.2626    1.0000 </r>
       <r>    8.7293    1.0000 </r>
       <r>    8.7660    1.0000 </r>
       <r>    8.7660    1.0000 </r>
       <r>   10.3866    1.0042 </r>
       <r>   12.9333   -0.0000 </r>
       <r>   12.9333   -0.0000 </r>
       <r>   20.3571    0.0000 </r>
       <r>   20.3571    0.0000 </r>
       <r>   21.2078    0.0000 </r>
       <r>   21.2078    0.0000 </r>
       <r>   22.9521    0.0000 </r>
       <r>   23.6776    0.0000 </r>
       <r>   25.7567    0.0000 </r>
       <r>   25.7567    0.0000 </r>
       <r>   26.8753    0.0000 </r>
       <r>   30.5358    0.0000 </r>
       <r>   31.9643    0.0000 </r>
       <r>   33.2074    0.0000 </r>
       <r>   33.2074    0.0000 </r>
       <r>   35.0937    0.0000 </r>
       <r>   35.8579    0.0000 </r>
       <r>   37.2150    0.0000 </r>
       <r>   39.4076    0.0000 </r>
       <r>   39.5384    0.0000 </r>
       <r>   39.5384    0.0000 </r>
       <r>   41.6689    0.0000 </r>
       <r>   45.3361    0.0000 </r>
       <r>   45.4861    0.0000 </r>
       <r>   45.9559    0.0000 </r>
       <r>   50.4989    0.0000 </r>
      </set>
      <set comment="kpoint 18">
       <r>    1.2616    1.0000 </r>
       <r>    4.1194    1.0000 </r>
       <r>    4.9791    1.0000 </r>
       <r>    4.9791    1.0000 </r>
       <r>    5.3594    1.0000 </r>
       <r>    5.3944    1.0000 </r>
       <r>    5.3944    1.0000 </r>
       <r>    6.2458    1.0000 </r>
       <r>    6.8308    1.0000 </r>
       <r>    6.8308    1.0000 </r>
       <r>    7.0587    1.0000 </r>
       <r>    7.1290    1.0000 </r>
       <r>    7.2215    1.0000 </r>
       <r>    7.6420    1.0000 </r>
       <r>    7.9452    1.0000 </r>
       <r>    8.0276    1.0000 </r>
       <r>    8.0276    1.0000 </r>
       <r>    8.0980    1.0000 </r>
       <r>    8.6076    1.0000 </r>
       <r>    8.7369    1.0000 </r>
       <r>    8.7369    1.0000 </r>
       <r>    9.1206    1.0000 </r>
       <r>   14.1416    0.0000 </r>
       <r>   14.1416    0.0000 </r>
       <r>   18.7947    0.0000 </r>
       <r>   18.7947    0.0000 </r>
       <r>   21.3895    0.0000 </r>
       <r>   21.3895    0.0000 </r>
       <r>   24.3095    0.0000 </r>
       <r>   24.5425    0.0000 </r>
       <r>   24.5425    0.0000 </r>
       <r>   26.4846    0.0000 </r>
       <r>   28.0698    0.0000 </r>
       <r>   28.7416    0.0000 </r>
       <r>   32.3849    0.0000 </r>
       <r>   33.6044    0.0000 </r>
       <r>   33.8161    0.0000 </r>
       <r>   35.9003    0.0000 </r>
       <r>   35.9003    0.0000 </r>
       <r>   37.5637    0.0000 </r>
       <r>   37.7731    0.0000 </r>
       <r>   41.7168    0.0000 </r>
       <r>   42.5685    0.0000 </r>
       <r>   42.5685    0.0000 </r>
       <r>   44.5504    0.0000 </r>
       <r>   46.9838    0.0000 </r>
       <r>   47.3442    0.0000 </r>
       <r>   47.3442    0.0000 </r>
      </set>
      <set comment="kpoint 19">
       <r>    2.2906    1.0000 </r>
       <r>    3.3599    1.0000 </r>
       <r>    5.2671    1.0000 </r>
       <r>    5.2671    1.0000 </r>
       <r>    5.6446    1.0000 </r>
       <r>    5.6966    1.0000 </r>
       <r>    5.6966    1.0000 </r>
       <r>    5.9526    1.0000 </r>
       <r>    6.2816    1.0000 </r>
       <r>    6.2816    1.0000 </r>
       <r>    6.9548    1.0000 </r>
       <r>    7.0008    1.0000 </r>
       <r>    7.3624    1.0000 </r>
       <r>    7.6439    1.0000 </r>
       <r>    7.8237    1.0000 </r>
       <r>    7.8237    1.0000 </r>
       <r>    7.8405    1.0000 </r>
       <r>    8.2700    1.0000 </r>
       <r>    8.3267    1.0000 </r>
       <r>    8.4476    1.0000 </r>
       <r>    8.7242    1.0000 </r>
       <r>    8.7242    1.0000 </r>
       <r>   15.4036    0.0000 </r>
       <r>   15.4036    0.0000 </r>
       <r>   17.2705    0.0000 </r>
       <r>   17.2705    0.0000 </r>
       <r>   21.9830    0.0000 </r>
       <r>   21.9830    0.0000 </r>
       <r>   23.4036    0.0000 </r>
       <r>   23.4036    0.0000 </r>
       <r>   25.6028    0.0000 </r>
       <r>   27.0884    0.0000 </r>
       <r>   29.6365    0.0000 </r>
       <r>   29.7195    0.0000 </r>
       <r>   31.5045    0.0000 </r>
       <r>   32.3109    0.0000 </r>
       <r>   33.1456    0.0000 </r>
       <r>   34.8270    0.0000 </r>
       <r>   38.6901    0.0000 </r>
       <r>   38.9991    0.0000 </r>
       <r>   38.9991    0.0000 </r>
       <r>   40.0657    0.0000 </r>
       <r>   42.9024    0.0000 </r>
       <r>   42.9024    0.0000 </r>
       <r>   46.5043    0.0000 </r>
       <r>   46.5043    0.0000 </r>
       <r>   46.7833    0.0000 </r>
       <r>   48.5602    0.0000 </r>
      </set>
      <set comment="kpoint 20">
       <r>    0.9424    1.0000 </r>
       <r>    4.6447    1.0000 </r>
       <r>    4.6447    1.0000 </r>
       <r>    4.8536    1.0000 </r>
       <r>    5.2655    1.0000 </r>
       <r>    5.2768    1.0000 </r>
       <r>    5.2768    1.0000 </r>
       <r>    6.4133    1.0000 </r>
       <r>    6.9743    1.0000 </r>
       <r>    7.0004    1.0000 </r>
       <r>    7.1524    1.0000 </r>
       <r>    7.1524    1.0000 </r>
       <r>    7.1776    1.0000 </r>
       <r>    7.7327    1.0000 </r>
       <r>    8.0063    1.0000 </r>
       <r>    8.0472    1.0000 </r>
       <r>    8.0780    1.0000 </r>
       <r>    8.0780    1.0000 </r>
       <r>    8.6994    1.0000 </r>
       <r>    8.6994    1.0000 </r>
       <r>    8.7015    1.0000 </r>
       <r>   11.2248   -0.0000 </r>
       <r>   11.2248   -0.0000 </r>
       <r>   13.6937    0.0000 </r>
       <r>   18.4891    0.0000 </r>
       <r>   21.2530    0.0000 </r>
       <r>   21.2793    0.0000 </r>
       <r>   21.2793    0.0000 </r>
       <r>   23.6304    0.0000 </r>
       <r>   23.6304    0.0000 </r>
       <r>   26.4273    0.0000 </r>
       <r>   26.4273    0.0000 </r>
       <r>   27.5838    0.0000 </r>
       <r>   28.4905    0.0000 </r>
       <r>   32.4293    0.0000 </r>
       <r>   33.4838    0.0000 </r>
       <r>   33.4838    0.0000 </r>
       <r>   33.5360    0.0000 </r>
       <r>   37.3419    0.0000 </r>
       <r>   39.2961    0.0000 </r>
       <r>   39.8229    0.0000 </r>
       <r>   39.8229    0.0000 </r>
       <r>   41.8501    0.0000 </r>
       <r>   42.3346    0.0000 </r>
       <r>   42.8339    0.0000 </r>
       <r>   46.1446    0.0000 </r>
       <r>   47.0587    0.0000 </r>
       <r>   49.7282    0.0000 </r>
      </set>
      <set comment="kpoint 21">
       <r>    1.7143    1.0000 </r>
       <r>    4.4040    1.0000 </r>
       <r>    5.0006    1.0000 </r>
       <r>    5.1393    1.0000 </r>
       <r>    5.4419    1.0000 </r>
       <r>    5.4906    1.0000 </r>
       <r>    5.5030    1.0000 </r>
       <r>    6.2483    1.0000 </r>
       <r>    6.5927    1.0000 </r>
       <r>    6.7437    1.0000 </r>
       <r>    6.8043    1.0000 </r>
       <r>    6.9738    1.0000 </r>
       <r>    7.1136    1.0000 </r>
       <r>    7.7152    1.0000 </r>
       <r>    7.8069    1.0000 </r>
       <r>    7.8457    1.0000 </r>
       <r>    7.9069    1.0000 </r>
       <r>    8.2063    1.0000 </r>
       <r>    8.5600    1.0000 </r>
       <r>    8.6223    1.0000 </r>
       <r>    8.6245    1.0000 </r>
       <r>    9.8005    1.0000 </r>
       <r>   12.2389   -0.0000 </r>
       <r>   14.6024    0.0000 </r>
       <r>   16.8176    0.0000 </r>
       <r>   19.4609    0.0000 </r>
       <r>   21.7473    0.0000 </r>
       <r>   22.2620    0.0000 </r>
       <r>   24.0404    0.0000 </r>
       <r>   25.2466    0.0000 </r>
       <r>   26.6189    0.0000 </r>
       <r>   26.6215    0.0000 </r>
       <r>   27.4128    0.0000 </r>
       <r>   27.6681    0.0000 </r>
       <r>   31.7490    0.0000 </r>
       <r>   33.9931    0.0000 </r>
       <r>   34.0302    0.0000 </r>
       <r>   36.1341    0.0000 </r>
       <r>   36.1845    0.0000 </r>
       <r>   38.9461    0.0000 </r>
       <r>   40.3440    0.0000 </r>
       <r>   41.3651    0.0000 </r>
       <r>   42.4678    0.0000 </r>
       <r>   43.1888    0.0000 </r>
       <r>   45.3920    0.0000 </r>
       <r>   45.5931    0.0000 </r>
       <r>   46.2969    0.0000 </r>
       <r>   47.7642    0.0000 </r>
      </set>
      <set comment="kpoint 22">
       <r>    2.6904    1.0000 </r>
       <r>    3.6932    1.0000 </r>
       <r>    5.3462    1.0000 </r>
       <r>    5.4535    1.0000 </r>
       <r>    5.5279    1.0000 </r>
       <r>    5.6621    1.0000 </r>
       <r>    5.7499    1.0000 </r>
       <r>    6.0142    1.0000 </r>
       <r>    6.2432    1.0000 </r>
       <r>    6.3655    1.0000 </r>
       <r>    6.7138    1.0000 </r>
       <r>    6.8496    1.0000 </r>
       <r>    7.2862    1.0000 </r>
       <r>    7.5248    1.0000 </r>
       <r>    7.6981    1.0000 </r>
       <r>    7.7290    1.0000 </r>
       <r>    7.9252    1.0000 </r>
       <r>    8.2921    1.0000 </r>
       <r>    8.4795    1.0000 </r>
       <r>    8.5773    1.0000 </r>
       <r>    8.5781    1.0000 </r>
       <r>    8.9143    1.0000 </r>
       <r>   13.3640    0.0000 </r>
       <r>   14.5072    0.0000 </r>
       <r>   16.6132    0.0000 </r>
       <r>   17.8647    0.0000 </r>
       <r>   22.5189    0.0000 </r>
       <r>   23.4950    0.0000 </r>
       <r>   23.5251    0.0000 </r>
       <r>   24.9539    0.0000 </r>
       <r>   25.2860    0.0000 </r>
       <r>   26.3012    0.0000 </r>
       <r>   28.5025    0.0000 </r>
       <r>   30.0693    0.0000 </r>
       <r>   30.5303    0.0000 </r>
       <r>   33.7724    0.0000 </r>
       <r>   34.8325    0.0000 </r>
       <r>   36.2836    0.0000 </r>
       <r>   36.9704    0.0000 </r>
       <r>   38.7840    0.0000 </r>
       <r>   41.1375    0.0000 </r>
       <r>   41.6347    0.0000 </r>
       <r>   42.1313    0.0000 </r>
       <r>   43.6240    0.0000 </r>
       <r>   44.1617    0.0000 </r>
       <r>   46.2356    0.0000 </r>
       <r>   46.7617    0.0000 </r>
       <r>   47.4351    0.0000 </r>
      </set>
      <set comment="kpoint 23">
       <r>    2.4214    1.0000 </r>
       <r>    4.7772    1.0000 </r>
       <r>    4.7772    1.0000 </r>
       <r>    5.2557    1.0000 </r>
       <r>    5.5996    1.0000 </r>
       <r>    5.7070    1.0000 </r>
       <r>    5.7070    1.0000 </r>
       <r>    6.2078    1.0000 </r>
       <r>    6.4254    1.0000 </r>
       <r>    6.4254    1.0000 </r>
       <r>    6.5884    1.0000 </r>
       <r>    6.8906    1.0000 </r>
       <r>    7.1364    1.0000 </r>
       <r>    7.6455    1.0000 </r>
       <r>    7.6807    1.0000 </r>
       <r>    7.6807    1.0000 </r>
       <r>    7.7098    1.0000 </r>
       <r>    8.4414    1.0000 </r>
       <r>    8.4414    1.0000 </r>
       <r>    8.4921    1.0000 </r>
       <r>    8.4991    1.0000 </r>
       <r>   10.6358    0.2546 </r>
       <r>   10.6358    0.2546 </r>
       <r>   14.1282    0.0000 </r>
       <r>   16.3851    0.0000 </r>
       <r>   20.4018    0.0000 </r>
       <r>   20.4018    0.0000 </r>
       <r>   22.3414    0.0000 </r>
       <r>   24.7197    0.0000 </r>
       <r>   25.7084    0.0000 </r>
       <r>   25.7084    0.0000 </r>
       <r>   27.7417    0.0000 </r>
       <r>   27.7417    0.0000 </r>
       <r>   29.8166    0.0000 </r>
       <r>   29.9347    0.0000 </r>
       <r>   33.0600    0.0000 </r>
       <r>   36.6705    0.0000 </r>
       <r>   36.6705    0.0000 </r>
       <r>   37.2394    0.0000 </r>
       <r>   39.5139    0.0000 </r>
       <r>   40.8887    0.0000 </r>
       <r>   41.0596    0.0000 </r>
       <r>   42.1327    0.0000 </r>
       <r>   42.1327    0.0000 </r>
       <r>   45.5861    0.0000 </r>
       <r>   45.5861    0.0000 </r>
       <r>   46.7324    0.0000 </r>
       <r>   47.9116    0.0000 </r>
      </set>
      <set comment="kpoint 24">
       <r>    3.2916    1.0000 </r>
       <r>    4.1568    1.0000 </r>
       <r>    5.0982    1.0000 </r>
       <r>    5.2560    1.0000 </r>
       <r>    5.7940    1.0000 </r>
       <r>    5.8888    1.0000 </r>
       <r>    5.9296    1.0000 </r>
       <r>    6.1001    1.0000 </r>
       <r>    6.2514    1.0000 </r>
       <r>    6.4024    1.0000 </r>
       <r>    6.5001    1.0000 </r>
       <r>    6.7221    1.0000 </r>
       <r>    7.2272    1.0000 </r>
       <r>    7.4244    1.0000 </r>
       <r>    7.5131    1.0000 </r>
       <r>    7.5433    1.0000 </r>
       <r>    7.8633    1.0000 </r>
       <r>    8.1648    1.0000 </r>
       <r>    8.3704    1.0000 </r>
       <r>    8.3909    1.0000 </r>
       <r>    8.9142    1.0000 </r>
       <r>    9.5513    1.0000 </r>
       <r>   11.6121   -0.0000 </r>
       <r>   12.7905   -0.0000 </r>
       <r>   17.3982    0.0000 </r>
       <r>   18.7769    0.0000 </r>
       <r>   21.6053    0.0000 </r>
       <r>   23.0475    0.0000 </r>
       <r>   23.2122    0.0000 </r>
       <r>   24.3626    0.0000 </r>
       <r>   26.9128    0.0000 </r>
       <r>   28.3169    0.0000 </r>
       <r>   28.5611    0.0000 </r>
       <r>   29.5987    0.0000 </r>
       <r>   31.2258    0.0000 </r>
       <r>   34.8022    0.0000 </r>
       <r>   35.1505    0.0000 </r>
       <r>   37.3642    0.0000 </r>
       <r>   37.9523    0.0000 </r>
       <r>   38.2323    0.0000 </r>
       <r>   40.9030    0.0000 </r>
       <r>   41.3543    0.0000 </r>
       <r>   41.5186    0.0000 </r>
       <r>   43.5718    0.0000 </r>
       <r>   44.3461    0.0000 </r>
       <r>   45.2664    0.0000 </r>
       <r>   46.8618    0.0000 </r>
       <r>   48.0152    0.0000 </r>
      </set>
      <set comment="kpoint 25">
       <r>    3.9825    1.0000 </r>
       <r>    4.6183    1.0000 </r>
       <r>    4.6183    1.0000 </r>
       <r>    4.9809    1.0000 </r>
       <r>    6.0870    1.0000 </r>
       <r>    6.1453    1.0000 </r>
       <r>    6.1453    1.0000 </r>
       <r>    6.1704    1.0000 </r>
       <r>    6.3437    1.0000 </r>
       <r>    6.3437    1.0000 </r>
       <r>    6.3602    1.0000 </r>
       <r>    6.5729    1.0000 </r>
       <r>    7.2044    1.0000 </r>
       <r>    7.3280    1.0000 </r>
       <r>    7.3280    1.0000 </r>
       <r>    7.3494    1.0000 </r>
       <r>    7.9109    1.0000 </r>
       <r>    8.1182    1.0000 </r>
       <r>    8.1182    1.0000 </r>
       <r>    8.2095    1.0000 </r>
       <r>    9.4914    1.0000 </r>
       <r>   10.3312    1.0004 </r>
       <r>   10.3312    1.0004 </r>
       <r>   11.3740   -0.0000 </r>
       <r>   18.5520    0.0000 </r>
       <r>   19.9582    0.0000 </r>
       <r>   19.9582    0.0000 </r>
       <r>   21.3829    0.0000 </r>
       <r>   24.1788    0.0000 </r>
       <r>   25.4249    0.0000 </r>
       <r>   25.4249    0.0000 </r>
       <r>   26.7492    0.0000 </r>
       <r>   32.1262    0.0000 </r>
       <r>   32.1262    0.0000 </r>
       <r>   32.6467    0.0000 </r>
       <r>   34.0708    0.0000 </r>
       <r>   35.6000    0.0000 </r>
       <r>   35.9372    0.0000 </r>
       <r>   36.8080    0.0000 </r>
       <r>   36.8080    0.0000 </r>
       <r>   41.8608    0.0000 </r>
       <r>   41.8608    0.0000 </r>
       <r>   42.4795    0.0000 </r>
       <r>   43.0229    0.0000 </r>
       <r>   45.1667    0.0000 </r>
       <r>   45.2722    0.0000 </r>
       <r>   46.1498    0.0000 </r>
       <r>   46.1498    0.0000 </r>
      </set>
      <set comment="kpoint 26">
       <r>    1.4019    1.0000 </r>
       <r>    4.8225    1.0000 </r>
       <r>    4.8225    1.0000 </r>
       <r>    4.8225    1.0000 </r>
       <r>    5.4094    1.0000 </r>
       <r>    5.4094    1.0000 </r>
       <r>    5.4094    1.0000 </r>
       <r>    6.3966    1.0000 </r>
       <r>    6.9309    1.0000 </r>
       <r>    6.9309    1.0000 </r>
       <r>    6.9309    1.0000 </r>
       <r>    6.9741    1.0000 </r>
       <r>    6.9741    1.0000 </r>
       <r>    7.7997    1.0000 </r>
       <r>    7.7997    1.0000 </r>
       <r>    7.7997    1.0000 </r>
       <r>    7.9295    1.0000 </r>
       <r>    7.9295    1.0000 </r>
       <r>    8.7444    1.0000 </r>
       <r>    8.7444    1.0000 </r>
       <r>    8.7444    1.0000 </r>
       <r>   11.8101   -0.0000 </r>
       <r>   11.8101   -0.0000 </r>
       <r>   11.8101   -0.0000 </r>
       <r>   19.1831    0.0000 </r>
       <r>   19.1831    0.0000 </r>
       <r>   19.1831    0.0000 </r>
       <r>   23.9832    0.0000 </r>
       <r>   23.9832    0.0000 </r>
       <r>   23.9832    0.0000 </r>
       <r>   26.3676    0.0000 </r>
       <r>   28.2646    0.0000 </r>
       <r>   28.2646    0.0000 </r>
       <r>   28.2646    0.0000 </r>
       <r>   32.6287    0.0000 </r>
       <r>   32.6287    0.0000 </r>
       <r>   32.6287    0.0000 </r>
       <r>   35.1660    0.0000 </r>
       <r>   36.9727    0.0000 </r>
       <r>   36.9727    0.0000 </r>
       <r>   42.6194    0.0000 </r>
       <r>   42.6194    0.0000 </r>
       <r>   42.6194    0.0000 </r>
       <r>   43.3344    0.0000 </r>
       <r>   43.3344    0.0000 </r>
       <r>   43.7841    0.0000 </r>
       <r>   48.9492    0.0000 </r>
       <r>   48.9492    0.0000 </r>
      </set>
      <set comment="kpoint 27">
       <r>    2.1223    1.0000 </r>
       <r>    4.5542    1.0000 </r>
       <r>    5.0293    1.0000 </r>
       <r>    5.0293    1.0000 </r>
       <r>    5.6079    1.0000 </r>
       <r>    5.6079    1.0000 </r>
       <r>    5.6527    1.0000 </r>
       <r>    6.3143    1.0000 </r>
       <r>    6.6512    1.0000 </r>
       <r>    6.6512    1.0000 </r>
       <r>    6.6980    1.0000 </r>
       <r>    6.9450    1.0000 </r>
       <r>    7.0025    1.0000 </r>
       <r>    7.5291    1.0000 </r>
       <r>    7.6204    1.0000 </r>
       <r>    7.6204    1.0000 </r>
       <r>    7.9491    1.0000 </r>
       <r>    8.1674    1.0000 </r>
       <r>    8.6784    1.0000 </r>
       <r>    8.6784    1.0000 </r>
       <r>    8.7097    1.0000 </r>
       <r>   10.1756    1.0000 </r>
       <r>   12.5792   -0.0000 </r>
       <r>   12.5792   -0.0000 </r>
       <r>   17.4289    0.0000 </r>
       <r>   17.4289    0.0000 </r>
       <r>   20.1342    0.0000 </r>
       <r>   24.4628    0.0000 </r>
       <r>   24.5728    0.0000 </r>
       <r>   24.5728    0.0000 </r>
       <r>   27.1704    0.0000 </r>
       <r>   27.9895    0.0000 </r>
       <r>   27.9895    0.0000 </r>
       <r>   29.3643    0.0000 </r>
       <r>   33.0449    0.0000 </r>
       <r>   34.1062    0.0000 </r>
       <r>   34.2559    0.0000 </r>
       <r>   34.2559    0.0000 </r>
       <r>   34.7036    0.0000 </r>
       <r>   38.9743    0.0000 </r>
       <r>   40.2970    0.0000 </r>
       <r>   43.1228    0.0000 </r>
       <r>   44.1244    0.0000 </r>
       <r>   44.9288    0.0000 </r>
       <r>   44.9288    0.0000 </r>
       <r>   44.9381    0.0000 </r>
       <r>   47.0208    0.0000 </r>
       <r>   47.0208    0.0000 </r>
      </set>
      <set comment="kpoint 28">
       <r>    3.0144    1.0000 </r>
       <r>    3.9077    1.0000 </r>
       <r>    5.1855    1.0000 </r>
       <r>    5.1855    1.0000 </r>
       <r>    5.7317    1.0000 </r>
       <r>    5.7317    1.0000 </r>
       <r>    5.9255    1.0000 </r>
       <r>    6.1541    1.0000 </r>
       <r>    6.5085    1.0000 </r>
       <r>    6.5085    1.0000 </r>
       <r>    6.6654    1.0000 </r>
       <r>    6.8090    1.0000 </r>
       <r>    7.1071    1.0000 </r>
       <r>    7.2880    1.0000 </r>
       <r>    7.4966    1.0000 </r>
       <r>    7.4966    1.0000 </r>
       <r>    8.2734    1.0000 </r>
       <r>    8.3988    1.0000 </r>
       <r>    8.5894    1.0000 </r>
       <r>    8.6072    1.0000 </r>
       <r>    8.6072    1.0000 </r>
       <r>    8.9969    1.0000 </r>
       <r>   13.2794   -0.0000 </r>
       <r>   13.2794   -0.0000 </r>
       <r>   16.2414    0.0000 </r>
       <r>   16.2414    0.0000 </r>
       <r>   21.3430    0.0000 </r>
       <r>   22.7883    0.0000 </r>
       <r>   25.3412    0.0000 </r>
       <r>   25.3412    0.0000 </r>
       <r>   26.8966    0.0000 </r>
       <r>   26.8966    0.0000 </r>
       <r>   30.3521    0.0000 </r>
       <r>   30.8385    0.0000 </r>
       <r>   32.6364    0.0000 </r>
       <r>   32.6875    0.0000 </r>
       <r>   33.9338    0.0000 </r>
       <r>   36.0722    0.0000 </r>
       <r>   36.9276    0.0000 </r>
       <r>   36.9276    0.0000 </r>
       <r>   42.2808    0.0000 </r>
       <r>   42.2808    0.0000 </r>
       <r>   42.7622    0.0000 </r>
       <r>   43.8445    0.0000 </r>
       <r>   44.6997    0.0000 </r>
       <r>   45.1882    0.0000 </r>
       <r>   45.6903    0.0000 </r>
       <r>   46.4912    0.0000 </r>
      </set>
      <set comment="kpoint 29">
       <r>    2.7433    1.0000 </r>
       <r>    4.7107    1.0000 </r>
       <r>    4.7107    1.0000 </r>
       <r>    4.9920    1.0000 </r>
       <r>    5.8215    1.0000 </r>
       <r>    5.9023    1.0000 </r>
       <r>    5.9023    1.0000 </r>
       <r>    6.3886    1.0000 </r>
       <r>    6.5914    1.0000 </r>
       <r>    6.5914    1.0000 </r>
       <r>    6.6984    1.0000 </r>
       <r>    6.8907    1.0000 </r>
       <r>    6.9541    1.0000 </r>
       <r>    7.3683    1.0000 </r>
       <r>    7.3683    1.0000 </r>
       <r>    7.3902    1.0000 </r>
       <r>    8.0158    1.0000 </r>
       <r>    8.3842    1.0000 </r>
       <r>    8.6343    1.0000 </r>
       <r>    8.6545    1.0000 </r>
       <r>    8.6545    1.0000 </r>
       <r>   10.7995   -0.0096 </r>
       <r>   10.7995   -0.0096 </r>
       <r>   12.8093   -0.0000 </r>
       <r>   16.0846    0.0000 </r>
       <r>   18.3203    0.0000 </r>
       <r>   18.3203    0.0000 </r>
       <r>   22.5492    0.0000 </r>
       <r>   25.2294    0.0000 </r>
       <r>   27.6368    0.0000 </r>
       <r>   27.6368    0.0000 </r>
       <r>   29.0667    0.0000 </r>
       <r>   29.0667    0.0000 </r>
       <r>   30.3999    0.0000 </r>
       <r>   32.6632    0.0000 </r>
       <r>   33.2007    0.0000 </r>
       <r>   34.6986    0.0000 </r>
       <r>   34.6986    0.0000 </r>
       <r>   36.0488    0.0000 </r>
       <r>   38.5420    0.0000 </r>
       <r>   39.9996    0.0000 </r>
       <r>   41.8420    0.0000 </r>
       <r>   43.8202    0.0000 </r>
       <r>   43.8202    0.0000 </r>
       <r>   46.1903    0.0000 </r>
       <r>   46.2522    0.0000 </r>
       <r>   46.5087    0.0000 </r>
       <r>   46.9699    0.0000 </r>
      </set>
      <set comment="kpoint 30">
       <r>    3.4749    1.0000 </r>
       <r>    4.1736    1.0000 </r>
       <r>    4.8309    1.0000 </r>
       <r>    4.9210    1.0000 </r>
       <r>    6.0030    1.0000 </r>
       <r>    6.0525    1.0000 </r>
       <r>    6.2204    1.0000 </r>
       <r>    6.3943    1.0000 </r>
       <r>    6.6126    1.0000 </r>
       <r>    6.6342    1.0000 </r>
       <r>    6.7170    1.0000 </r>
       <r>    6.7498    1.0000 </r>
       <r>    7.0009    1.0000 </r>
       <r>    7.1485    1.0000 </r>
       <r>    7.2613    1.0000 </r>
       <r>    7.2677    1.0000 </r>
       <r>    8.2103    1.0000 </r>
       <r>    8.5023    1.0000 </r>
       <r>    8.5564    1.0000 </r>
       <r>    8.5597    1.0000 </r>
       <r>    8.7644    1.0000 </r>
       <r>    9.4926    1.0000 </r>
       <r>   11.5799   -0.0000 </r>
       <r>   12.3986   -0.0000 </r>
       <r>   15.9827    0.0000 </r>
       <r>   16.8878    0.0000 </r>
       <r>   19.4794    0.0000 </r>
       <r>   20.8895    0.0000 </r>
       <r>   26.1341    0.0000 </r>
       <r>   27.2073    0.0000 </r>
       <r>   29.0883    0.0000 </r>
       <r>   29.6573    0.0000 </r>
       <r>   30.0688    0.0000 </r>
       <r>   31.1157    0.0000 </r>
       <r>   31.6033    0.0000 </r>
       <r>   34.5467    0.0000 </r>
       <r>   35.2085    0.0000 </r>
       <r>   35.4900    0.0000 </r>
       <r>   36.7366    0.0000 </r>
       <r>   37.0287    0.0000 </r>
       <r>   40.8901    0.0000 </r>
       <r>   41.3331    0.0000 </r>
       <r>   42.4857    0.0000 </r>
       <r>   42.8744    0.0000 </r>
       <r>   42.9089    0.0000 </r>
       <r>   45.3858    0.0000 </r>
       <r>   47.1932    0.0000 </r>
       <r>   47.2170    0.0000 </r>
      </set>
      <set comment="kpoint 31">
       <r>    3.9709    1.0000 </r>
       <r>    4.4279    1.0000 </r>
       <r>    4.4279    1.0000 </r>
       <r>    4.6691    1.0000 </r>
       <r>    6.2636    1.0000 </r>
       <r>    6.3917    1.0000 </r>
       <r>    6.3917    1.0000 </r>
       <r>    6.6173    1.0000 </r>
       <r>    6.6656    1.0000 </r>
       <r>    6.7050    1.0000 </r>
       <r>    6.7050    1.0000 </r>
       <r>    6.8191    1.0000 </r>
       <r>    6.9627    1.0000 </r>
       <r>    7.0712    1.0000 </r>
       <r>    7.0712    1.0000 </r>
       <r>    7.0970    1.0000 </r>
       <r>    8.2117    1.0000 </r>
       <r>    8.3966    1.0000 </r>
       <r>    8.3966    1.0000 </r>
       <r>    8.4401    1.0000 </r>
       <r>    9.3158    1.0000 </r>
       <r>   10.2022    1.0000 </r>
       <r>   10.2022    1.0000 </r>
       <r>   11.1820   -0.0000 </r>
       <r>   16.7276    0.0000 </r>
       <r>   17.9329    0.0000 </r>
       <r>   17.9329    0.0000 </r>
       <r>   19.2713    0.0000 </r>
       <r>   27.1128    0.0000 </r>
       <r>   28.3286    0.0000 </r>
       <r>   28.3286    0.0000 </r>
       <r>   29.6252    0.0000 </r>
       <r>   32.4578    0.0000 </r>
       <r>   32.4578    0.0000 </r>
       <r>   33.1181    0.0000 </r>
       <r>   34.0611    0.0000 </r>
       <r>   35.2038    0.0000 </r>
       <r>   36.2730    0.0000 </r>
       <r>   36.3153    0.0000 </r>
       <r>   36.3153    0.0000 </r>
       <r>   40.9042    0.0000 </r>
       <r>   41.0497    0.0000 </r>
       <r>   41.0497    0.0000 </r>
       <r>   42.1164    0.0000 </r>
       <r>   43.3781    0.0000 </r>
       <r>   43.9702    0.0000 </r>
       <r>   44.5722    0.0000 </r>
       <r>   44.5722    0.0000 </r>
      </set>
      <set comment="kpoint 32">
       <r>    3.2056    1.0000 </r>
       <r>    4.6284    1.0000 </r>
       <r>    4.6284    1.0000 </r>
       <r>    4.6284    1.0000 </r>
       <r>    6.1456    1.0000 </r>
       <r>    6.1456    1.0000 </r>
       <r>    6.1456    1.0000 </r>
       <r>    6.6888    1.0000 </r>
       <r>    6.8198    1.0000 </r>
       <r>    6.8198    1.0000 </r>
       <r>    6.8198    1.0000 </r>
       <r>    6.8572    1.0000 </r>
       <r>    6.8572    1.0000 </r>
       <r>    7.1436    1.0000 </r>
       <r>    7.1436    1.0000 </r>
       <r>    7.1436    1.0000 </r>
       <r>    8.3009    1.0000 </r>
       <r>    8.3009    1.0000 </r>
       <r>    8.7043    1.0000 </r>
       <r>    8.7043    1.0000 </r>
       <r>    8.7043    1.0000 </r>
       <r>   11.0546   -0.0000 </r>
       <r>   11.0546   -0.0000 </r>
       <r>   11.0546   -0.0000 </r>
       <r>   16.7016    0.0000 </r>
       <r>   16.7016    0.0000 </r>
       <r>   16.7016    0.0000 </r>
       <r>   20.6518    0.0000 </r>
       <r>   28.3952    0.0000 </r>
       <r>   28.3952    0.0000 </r>
       <r>   28.3952    0.0000 </r>
       <r>   31.3618    0.0000 </r>
       <r>   31.3618    0.0000 </r>
       <r>   31.3618    0.0000 </r>
       <r>   33.5516    0.0000 </r>
       <r>   33.5516    0.0000 </r>
[...]
       <r>   41.5563    0.0000 </r>
       <r>   41.5563    0.0000 </r>
       <r>   41.7554    0.0000 </r>
       <r>   42.4532    0.0000 </r>
       <r>   43.0437    0.0000 </r>
       <r>   45.0101    0.0000 </r>
       <r>   45.0101    0.0000 </r>
      </set>
      <set comment="kpoint 34">
       <r>    3.9768    1.0000 </r>
       <r>    4.2594    1.0000 </r>
       <r>    4.2594    1.0000 </r>
       <r>    4.3811    1.0000 </r>
       <r>    6.4761    1.0000 </r>
       <r>    6.5482    1.0000 </r>
       <r>    6.5482    1.0000 </r>
       <r>    6.7114    1.0000 </r>
       <r>    6.7931    1.0000 </r>
       <r>    6.8610    1.0000 </r>
       <r>    6.8610    1.0000 </r>
       <r>    6.8832    1.0000 </r>
       <r>    7.3455    1.0000 </r>
       <r>    7.3455    1.0000 </r>
       <r>    7.3719    1.0000 </r>
       <r>    7.4053    1.0000 </r>
       <r>    8.4647    1.0000 </r>
       <r>    8.6079    1.0000 </r>
       <r>    8.6079    1.0000 </r>
       <r>    8.6124    1.0000 </r>
       <r>    9.0059    1.0000 </r>
       <r>    9.9410    1.0000 </r>
       <r>    9.9410    1.0000 </r>
       <r>   10.6114    0.4480 </r>
       <r>   15.6811    0.0000 </r>
       <r>   16.4149    0.0000 </r>
       <r>   16.4149    0.0000 </r>
       <r>   17.5407    0.0000 </r>
       <r>   30.1481    0.0000 </r>
       <r>   31.1207    0.0000 </r>
       <r>   31.1207    0.0000 </r>
       <r>   32.3348    0.0000 </r>
       <r>   33.1847    0.0000 </r>
       <r>   33.1847    0.0000 </r>
       <r>   33.8947    0.0000 </r>
       <r>   34.2152    0.0000 </r>
       <r>   34.9946    0.0000 </r>
       <r>   35.6360    0.0000 </r>
       <r>   35.6360    0.0000 </r>
       <r>   36.5986    0.0000 </r>
       <r>   39.2856    0.0000 </r>
       <r>   40.4396    0.0000 </r>
       <r>   40.4396    0.0000 </r>
       <r>   40.9931    0.0000 </r>
       <r>   41.5875    0.0000 </r>
       <r>   42.3338    0.0000 </r>
       <r>   42.5168    0.0000 </r>
       <r>   42.5168    0.0000 </r>
      </set>
      <set comment="kpoint 35">
       <r>    4.0333    1.0000 </r>
       <r>    4.1652    1.0000 </r>
       <r>    4.1652    1.0000 </r>
       <r>    4.1652    1.0000 </r>
       <r>    6.6414    1.0000 </r>
       <r>    6.6414    1.0000 </r>
       <r>    6.6414    1.0000 </r>
       <r>    6.7200    1.0000 </r>
       <r>    6.7200    1.0000 </r>
       <r>    6.7513    1.0000 </r>
       <r>    6.7513    1.0000 </r>
       <r>    6.7513    1.0000 </r>
       <r>    7.9640    1.0000 </r>
       <r>    7.9640    1.0000 </r>
       <r>    7.9640    1.0000 </r>
       <r>    8.3521    1.0000 </r>
       <r>    8.6293    1.0000 </r>
       <r>    8.6293    1.0000 </r>
       <r>    8.6806    1.0000 </r>
       <r>    8.6806    1.0000 </r>
       <r>    8.6806    1.0000 </r>
       <r>    9.6060    1.0000 </r>
       <r>    9.6060    1.0000 </r>
       <r>    9.6060    1.0000 </r>
       <r>   15.5981    0.0000 </r>
       <r>   15.5981    0.0000 </r>
       <r>   15.5981    0.0000 </r>
       <r>   16.2820    0.0000 </r>
       <r>   32.5162    0.0000 </r>
       <r>   32.5162    0.0000 </r>
       <r>   32.5162    0.0000 </r>
       <r>   33.2630    0.0000 </r>
       <r>   34.9407    0.0000 </r>
       <r>   34.9407    0.0000 </r>
       <r>   34.9407    0.0000 </r>
       <r>   35.1248    0.0000 </r>
       <r>   35.1248    0.0000 </r>
       <r>   35.1248    0.0000 </r>
       <r>   36.0890    0.0000 </r>
       <r>   36.0890    0.0000 </r>
       <r>   39.0696    0.0000 </r>
       <r>   39.0696    0.0000 </r>
       <r>   40.0838    0.0000 </r>
       <r>   40.0838    0.0000 </r>
       <r>   40.0838    0.0000 </r>
       <r>   40.1727    0.0000 </r>
       <r>   40.1727    0.0000 </r>
       <r>   40.1727    0.0000 </r>
      </set>
     </set>
    </set>
   </array>
  </eigenvalues>
  <separator name="orbital magnetization" >
   <v name="MAGDIPOLOUT">      0.00000000      0.00000000      0.00000000</v>
  </separator>
  <dos>
   <i name="efermi">     10.60523472 </i>
   <total>
    <array>
     <dimension dim="1">gridpoints</dimension>
     <dimension dim="2">spin</dimension>
     <field>energy</field>
     <field>total</field>
     <field>integrated</field>
     <set>
      <set comment="spin 1">
       <r>    -3.2236     0.0000     0.0000 </r>
       <r>    -3.0290     0.0000     0.0000 </r>
       <r>    -2.8343     0.0000     0.0000 </r>
       <r>    -2.6396     0.0000     0.0000 </r>
       <r>    -2.4449     0.0000     0.0000 </r>
       <r>    -2.2502     0.0000     0.0000 </r>
       <r>    -2.0555     0.0000     0.0000 </r>
       <r>    -1.8608     0.0000     0.0000 </r>
       <r>    -1.6661     0.0000     0.0000 </r>
       <r>    -1.4714    -0.0000    -0.0000 </r>
       <r>    -1.2767    -0.0000    -0.0000 </r>
       <r>    -1.0820    -0.0000    -0.0000 </r>
       <r>    -0.8873    -0.0000    -0.0000 </r>
       <r>    -0.6926    -0.0005    -0.0001 </r>
       <r>    -0.4979     0.0116     0.0022 </r>
       <r>    -0.3032     0.0891     0.0195 </r>
       <r>    -0.1085     0.1823     0.0550 </r>
       <r>     0.0862     0.1177     0.0779 </r>
       <r>     0.2809     0.2034     0.1175 </r>
       <r>     0.4756     0.4280     0.2009 </r>
       <r>     0.6703     0.1054     0.2214 </r>
       <r>     0.8650     0.1771     0.2559 </r>
       <r>     1.0597     0.4811     0.3495 </r>
       <r>     1.2544     0.4310     0.4334 </r>
       <r>     1.4491     0.2712     0.4863 </r>
       <r>     1.6438     0.3767     0.5596 </r>
       <r>     1.8385     0.6850     0.6930 </r>
       <r>     2.0332     0.0235     0.6975 </r>
       <r>     2.2279     0.7409     0.8418 </r>
       <r>     2.4226     0.6620     0.9707 </r>
       <r>     2.6173     0.4491     1.0581 </r>
       <r>     2.8120     1.0683     1.2661 </r>
       <r>     3.0067     0.1344     1.2923 </r>
       <r>     3.2014     0.5010     1.3898 </r>
       <r>     3.3961     1.5533     1.6923 </r>
       <r>     3.5908     0.8147     1.8509 </r>
       <r>     3.7855     1.2193     2.0883 </r>
       <r>     3.9802     1.0938     2.3012 </r>
       <r>     4.1749     2.6534     2.8178 </r>
       <r>     4.3696     3.6315     3.5249 </r>
       <r>     4.5643     3.0459     4.1179 </r>
       <r>     4.7590     5.1374     5.1182 </r>
       <r>     4.9537     4.7423     6.0415 </r>
       <r>     5.1484     6.5807     7.3227 </r>
       <r>     5.3431     7.2343     8.7312 </r>
       <r>     5.5377     7.1510    10.1235 </r>
       <r>     5.7324     6.3142    11.3529 </r>
       <r>     5.9271     5.7952    12.4812 </r>
       <r>     6.1218     6.5201    13.7506 </r>
       <r>     6.3165     9.3165    15.5645 </r>
       <r>     6.5112     8.6522    17.2491 </r>
       <r>     6.7059    10.0368    19.2032 </r>
       <r>     6.9006    12.3421    21.6062 </r>
       <r>     7.0953    12.1184    23.9656 </r>
       <r>     7.2900     8.3180    25.5851 </r>
       <r>     7.4847     7.7069    27.0856 </r>
       <r>     7.6794     9.2433    28.8853 </r>
       <r>     7.8741    10.4944    30.9285 </r>
       <r>     8.0688     9.7195    32.8209 </r>
       <r>     8.2635     9.4224    34.6554 </r>
       <r>     8.4582     9.3875    36.4831 </r>
       <r>     8.6529    15.7008    39.5400 </r>
       <r>     8.8476    10.7294    41.6290 </r>
       <r>     9.0423     3.5540    42.3210 </r>
       <r>     9.2370     0.3945    42.3978 </r>
       <r>     9.4317     0.4377    42.4830 </r>
       <r>     9.6264     2.6880    43.0064 </r>
       <r>     9.8211     0.9353    43.1885 </r>
       <r>    10.0158     1.0911    43.4009 </r>
       <r>    10.2105     0.7730    43.5514 </r>
       <r>    10.4052     1.5457    43.8524 </r>
       <r>    10.5999     0.7050    43.9896 </r>
       <r>    10.7946     1.1860    44.2205 </r>
       <r>    10.9893     0.5390    44.3255 </r>
       <r>    11.1840     0.8686    44.4946 </r>
       <r>    11.3787     1.6362    44.8132 </r>
       <r>    11.5734     1.0666    45.0208 </r>
       <r>    11.7681     1.3120    45.2763 </r>
       <r>    11.9628     0.4688    45.3675 </r>
       <r>    12.1575     0.4775    45.4605 </r>
       <r>    12.3522     0.8493    45.6259 </r>
       <r>    12.5469     0.8803    45.7973 </r>
       <r>    12.7416     0.9466    45.9816 </r>
       <r>    12.9363     1.8027    46.3326 </r>
       <r>    13.1310     0.2582    46.3828 </r>
       <r>    13.3257     0.9568    46.5691 </r>
       <r>    13.5204     0.7787    46.7207 </r>
       <r>    13.7151     0.3765    46.7940 </r>
       <r>    13.9097     0.3204    46.8564 </r>
       <r>    14.1044     0.7187    46.9963 </r>
       <r>    14.2991     0.7795    47.1481 </r>
       <r>    14.4938     0.3900    47.2240 </r>
       <r>    14.6885     1.3349    47.4839 </r>
       <r>    14.8832     0.2269    47.5281 </r>
       <r>    15.0779     0.1550    47.5583 </r>
       <r>    15.2726     0.0751    47.5729 </r>
       <r>    15.4673     1.3136    47.8286 </r>
       <r>    15.6620     0.4469    47.9156 </r>
       <r>    15.8567     0.9268    48.0961 </r>
       <r>    16.0514     0.7192    48.2361 </r>
       <r>    16.2461     1.1432    48.4587 </r>
       <r>    16.4408     1.4180    48.7348 </r>
       <r>    16.6355     0.6894    48.8690 </r>
       <r>    16.8302     1.7123    49.2024 </r>
       <r>    17.0249     1.3268    49.4607 </r>
       <r>    17.2196     0.1156    49.4832 </r>
       <r>    17.4143     1.4674    49.7689 </r>
       <r>    17.6090     0.9806    49.9599 </r>
       <r>    17.8037     0.7317    50.1023 </r>
       <r>    17.9984     1.3120    50.3578 </r>
       <r>    18.1931     0.1581    50.3886 </r>
       <r>    18.3878     0.7717    50.5388 </r>
       <r>    18.5825     0.9791    50.7294 </r>
       <r>    18.7772     0.9709    50.9185 </r>
       <r>    18.9719     1.2245    51.1569 </r>
       <r>    19.1666     0.4064    51.2360 </r>
       <r>    19.3613     1.2042    51.4704 </r>
       <r>    19.5560     1.9655    51.8531 </r>
       <r>    19.7507     0.1452    51.8814 </r>
       <r>    19.9454     0.4324    51.9656 </r>
       <r>    20.1401     1.1459    52.1887 </r>
       <r>    20.3348     0.8439    52.3530 </r>
       <r>    20.5295     2.5184    52.8433 </r>
       <r>    20.7242     1.1925    53.0755 </r>
       <r>    20.9189     1.2469    53.3183 </r>
       <r>    21.1136     0.7491    53.4641 </r>
       <r>    21.3083     1.7052    53.7961 </r>
       <r>    21.5030     2.0807    54.2012 </r>
       <r>    21.6977     1.2267    54.4401 </r>
       <r>    21.8924     0.9475    54.6245 </r>
       <r>    22.0871     0.6541    54.7519 </r>
       <r>    22.2817     0.7365    54.8953 </r>
       <r>    22.4764     1.8995    55.2651 </r>
       <r>    22.6711     1.7296    55.6019 </r>
       <r>    22.8658     1.0120    55.7989 </r>
       <r>    23.0605     0.9748    55.9887 </r>
       <r>    23.2552     1.7113    56.3219 </r>
       <r>    23.4499     1.6718    56.6474 </r>
       <r>    23.6446     2.6706    57.1673 </r>
       <r>    23.8393     0.8394    57.3308 </r>
       <r>    24.0340     0.6146    57.4504 </r>
       <r>    24.2287     0.6817    57.5832 </r>
       <r>    24.4234     2.2370    58.0187 </r>
       <r>    24.6181     2.3250    58.4714 </r>
       <r>    24.8128     1.0733    58.6803 </r>
       <r>    25.0075     1.0167    58.8783 </r>
       <r>    25.2022     1.2589    59.1234 </r>
       <r>    25.3969     2.7195    59.6529 </r>
       <r>    25.5916     1.2571    59.8976 </r>
       <r>    25.7863     1.8776    60.2632 </r>
       <r>    25.9810     0.5426    60.3688 </r>
       <r>    26.1757     1.7628    60.7120 </r>
       <r>    26.3704     1.6234    61.0281 </r>
       <r>    26.5651     1.4301    61.3066 </r>
       <r>    26.7598     1.4700    61.5928 </r>
       <r>    26.9545     1.7675    61.9369 </r>
       <r>    27.1492     1.8537    62.2978 </r>
       <r>    27.3439     1.4861    62.5871 </r>
       <r>    27.5386     0.8504    62.7527 </r>
       <r>    27.7333     2.8123    63.3002 </r>
       <r>    27.9280     0.8435    63.4645 </r>
       <r>    28.1227     1.2452    63.7069 </r>
       <r>    28.3174     0.9228    63.8866 </r>
       <r>    28.5121     2.2052    64.3159 </r>
       <r>    28.7068     1.3906    64.5867 </r>
       <r>    28.9015     0.2258    64.6306 </r>
       <r>    29.0962     1.0514    64.8353 </r>
       <r>    29.2909     1.5484    65.1368 </r>
       <r>    29.4856     0.6326    65.2600 </r>
       <r>    29.6803     2.4242    65.7320 </r>
       <r>    29.8750     1.2417    65.9737 </r>
       <r>    30.0697     1.3530    66.2371 </r>
       <r>    30.2644     0.9787    66.4277 </r>
       <r>    30.4591     1.1167    66.6451 </r>
       <r>    30.6538     1.3645    66.9107 </r>
       <r>    30.8484     0.4515    66.9987 </r>
       <r>    31.0431     0.8612    67.1663 </r>
       <r>    31.2378     2.3623    67.6263 </r>
       <r>    31.4325     0.9809    67.8172 </r>
       <r>    31.6272     1.3552    68.0811 </r>
       <r>    31.8219     1.8403    68.4394 </r>
       <r>    32.0166     0.8152    68.5981 </r>
       <r>    32.2113     1.1010    68.8125 </r>
       <r>    32.4060     1.6615    69.1360 </r>
       <r>    32.6007     2.0829    69.5415 </r>
       <r>    32.7954     1.8903    69.9095 </r>
       <r>    32.9901    -0.0300    69.9037 </r>
       <r>    33.1848     3.1897    70.5247 </r>
       <r>    33.3795     1.6308    70.8422 </r>
       <r>    33.5742     1.3735    71.1097 </r>
       <r>    33.7689     1.2770    71.3583 </r>
       <r>    33.9636     1.5835    71.6666 </r>
       <r>    34.1583     3.5482    72.3574 </r>
       <r>    34.3530     1.6025    72.6694 </r>
       <r>    34.5477     1.0837    72.8804 </r>
       <r>    34.7424     1.5512    73.1824 </r>
       <r>    34.9371     2.4569    73.6608 </r>
       <r>    35.1318     1.6697    73.9859 </r>
       <r>    35.3265     2.2297    74.4200 </r>
       <r>    35.5212     1.4916    74.7104 </r>
       <r>    35.7159     1.6583    75.0333 </r>
       <r>    35.9106     1.9605    75.4150 </r>
       <r>    36.1053     2.1759    75.8386 </r>
       <r>    36.3000     2.5572    76.3365 </r>
       <r>    36.4947     1.1666    76.5636 </r>
       <r>    36.6894     1.3910    76.8345 </r>
       <r>    36.8841     2.1139    77.2460 </r>
       <r>    37.0788     3.6532    77.9573 </r>
       <r>    37.2735     0.9549    78.1432 </r>
       <r>    37.4682     1.4401    78.4236 </r>
       <r>    37.6629     1.0700    78.6319 </r>
       <r>    37.8576     0.6062    78.7500 </r>
       <r>    38.0523     1.3376    79.0104 </r>
       <r>    38.2470     1.5098    79.3043 </r>
       <r>    38.4417     1.0216    79.5032 </r>
       <r>    38.6364     0.8051    79.6600 </r>
       <r>    38.8311     1.0731    79.8689 </r>
       <r>    39.0258     2.3798    80.3323 </r>
       <r>    39.2204     0.8791    80.5034 </r>
       <r>    39.4151     1.0260    80.7032 </r>
       <r>    39.6098     2.0040    81.0934 </r>
       <r>    39.8045     0.5413    81.1988 </r>
       <r>    39.9992     1.1055    81.4140 </r>
       <r>    40.1939     1.9257    81.7889 </r>
       <r>    40.3886     1.4670    82.0745 </r>
       <r>    40.5833     1.1247    82.2935 </r>
       <r>    40.7780     0.6275    82.4157 </r>
       <r>    40.9727     3.3889    83.0755 </r>
       <r>    41.1674     2.2999    83.5233 </r>
       <r>    41.3621     1.3098    83.7783 </r>
       <r>    41.5568     2.4419    84.2537 </r>
       <r>    41.7515     2.2355    84.6890 </r>
       <r>    41.9462     1.5950    84.9995 </r>
       <r>    42.1409     1.3904    85.2702 </r>
       <r>    42.3356     2.1221    85.6834 </r>
       <r>    42.5303     3.1702    86.3006 </r>
       <r>    42.7250     2.4193    86.7717 </r>
       <r>    42.9197     2.3791    87.2349 </r>
       <r>    43.1144     1.4977    87.5265 </r>
       <r>    43.3091     1.1260    87.7457 </r>
       <r>    43.5038     1.5316    88.0439 </r>
       <r>    43.6985     1.4400    88.3243 </r>
       <r>    43.8932     1.1228    88.5429 </r>
       <r>    44.0879     1.1043    88.7579 </r>
       <r>    44.2826     1.5499    89.0596 </r>
       <r>    44.4773     0.7945    89.2143 </r>
       <r>    44.6720     2.4005    89.6817 </r>
       <r>    44.8667     1.2046    89.9162 </r>
       <r>    45.0614     1.8218    90.2709 </r>
       <r>    45.2561     1.6517    90.5925 </r>
       <r>    45.4508     2.9999    91.1766 </r>
       <r>    45.6455     2.9788    91.7566 </r>
       <r>    45.8402     0.9211    91.9359 </r>
       <r>    46.0349     0.4437    92.0223 </r>
       <r>    46.2296     2.3540    92.4806 </r>
       <r>    46.4243     1.9669    92.8636 </r>
       <r>    46.6190     1.6228    93.1795 </r>
       <r>    46.8137     1.2354    93.4200 </r>
       <r>    47.0084     1.9657    93.8028 </r>
       <r>    47.2031     2.3203    94.2545 </r>
       <r>    47.3978     2.0205    94.6479 </r>
       <r>    47.5924     0.6513    94.7747 </r>
       <r>    47.7871     0.4985    94.8718 </r>
       <r>    47.9818     1.4219    95.1486 </r>
       <r>    48.1765     1.2385    95.3897 </r>
       <r>    48.3712    -0.0399    95.3820 </r>
       <r>    48.5659     0.1724    95.4155 </r>
       <r>    48.7606     0.7067    95.5531 </r>
       <r>    48.9553     0.2640    95.6045 </r>
       <r>    49.1500     0.2036    95.6442 </r>
       <r>    49.3447     0.3002    95.7026 </r>
       <r>    49.5394    -0.0167    95.6994 </r>
       <r>    49.7341     0.4773    95.7923 </r>
       <r>    49.9288     0.2114    95.8335 </r>
       <r>    50.1235    -0.0103    95.8315 </r>
       <r>    50.3182     0.1634    95.8633 </r>
       <r>    50.5129     0.2206    95.9063 </r>
       <r>    50.7076     0.1201    95.9296 </r>
       <r>    50.9023     0.3473    95.9973 </r>
       <r>    51.0970     0.0001    95.9973 </r>
       <r>    51.2917    -0.0001    95.9973 </r>
       <r>    51.4864    -0.0000    95.9973 </r>
       <r>    51.6811    -0.0000    95.9973 </r>
       <r>    51.8758    -0.0000    95.9973 </r>
       <r>    52.0705    -0.0000    95.9973 </r>
       <r>    52.2652    -0.0000    95.9973 </r>
       <r>    52.4599     0.0005    95.9974 </r>
       <r>    52.6546     0.0141    96.0001 </r>
       <r>    52.8493    -0.0005    96.0000 </r>
       <r>    53.0440    -0.0000    96.0000 </r>
       <r>    53.2387    -0.0000    96.0000 </r>
       <r>    53.4334     0.0000    96.0000 </r>
       <r>    53.6281     0.0000    96.0000 </r>
       <r>    53.8228     0.0000    96.0000 </r>
       <r>    54.0175     0.0000    96.0000 </r>
       <r>    54.2122     0.0000    96.0000 </r>
       <r>    54.4069     0.0000    96.0000 </r>
       <r>    54.6016     0.0000    96.0000 </r>
       <r>    54.7963     0.0000    96.0000 </r>
       <r>    54.9910     0.0000    96.0000 </r>
       <r>    55.1857     0.0000    96.0000 </r>
      </set>
     </set>
    </array>
   </total>
  </dos>
 </calculation>
 <structure name="finalpos" >
  <crystal>
   <varray name="basis" >
    <v>       3.36933333       0.00000000       0.00000000 </v>
    <v>       0.00000000       3.36933333       0.00000000 </v>
    <v>       0.00000000       0.00000000       3.36933333 </v>
   </varray>
   <i name="volume">     38.25004369 </i>
   <varray name="rec_basis" >
    <v>       0.29679462       0.00000000       0.00000000 </v>
    <v>       0.00000000       0.29679462       0.00000000 </v>
    <v>       0.00000000       0.00000000       0.29679462 </v>
   </varray>
  </crystal>
  <varray name="positions" >
   <v>       0.00000000       0.00000000       0.00000000 </v>
   <v>       0.00000000       0.50000000       0.50000000 </v>
   <v>       0.50000000       0.00000000       0.50000000 </v>
   <v>       0.50000000       0.50000000       0.00000000 </v>
  </varray>
 </structure>
</modeling>
