unknown system                          
           1
     3.369333    0.000000    0.000000
     0.000000    3.369333    0.000000
     0.000000    0.000000    3.369333
   Cu
   4
Direct configuration=     1
   0.00000000  0.00000000  0.00000000
   0.00000000  0.50000000  0.50000000
   0.50000000  0.00000000  0.50000000
   0.50000000  0.50000000  0.00000000
