   4   4   0   0
  0.1697933E+02  0.4080000E-09  0.4080000E-09  0.4080000E-09  0.5000000E-15
  1.000000000000000E-004
  CAR 
 unknown system                          
     39.59198510     -2.25402859  301      9.52251026      1.00000000
     -2.254  0.0000E+00  0.0000E+00
     -2.115  0.0000E+00  0.0000E+00
     -1.975  0.0000E+00  0.0000E+00
     -1.836  0.0000E+00  0.0000E+00
     -1.696  0.0000E+00  0.0000E+00
     -1.557  0.0000E+00  0.0000E+00
     -1.417  0.0000E+00  0.0000E+00
     -1.278 -0.8465E-37 -0.1181E-37
     -1.138 -0.1687E-26 -0.2353E-27
     -0.999 -0.6645E-18 -0.9269E-19
     -0.859 -0.4903E-11 -0.6839E-12
     -0.720 -0.6853E-06 -0.9558E-07
     -0.580 -0.1536E-02 -0.2144E-03
     -0.441 -0.3348E-02 -0.6814E-03
     -0.301  0.4690E+00  0.6474E-01
     -0.162  0.7264E-01  0.7488E-01
     -0.022 -0.5741E-02  0.7408E-01
      0.117 -0.8566E-05  0.7407E-01
      0.257 -0.1849E-09  0.7407E-01
      0.396 -0.1952E-09  0.7407E-01
      0.536 -0.1554E-04  0.7407E-01
      0.675 -0.1895E-01  0.7143E-01
      0.815  0.1545E+00  0.9297E-01
      0.954  0.2925E+01  0.5009E+00
      1.094  0.1444E+00  0.5211E+00
      1.233 -0.1840E-01  0.5185E+00
      1.373 -0.1469E-04  0.5185E+00
      1.512 -0.2872E-05  0.5185E+00
      1.652 -0.1009E-01  0.5171E+00
      1.791 -0.1726E+00  0.4930E+00
      1.931  0.5033E+01  0.1195E+01
      2.070  0.4233E+01  0.1785E+01
      2.210  0.1648E+01  0.2015E+01
      2.349 -0.1613E+00  0.1993E+01
      2.489  0.1188E+01  0.2159E+01
      2.628  0.8300E+00  0.2274E+01
      2.767  0.4742E+01  0.2936E+01
      2.907  0.1246E+02  0.4674E+01
      3.046 -0.1982E+00  0.4646E+01
      3.186  0.2765E+01  0.5032E+01
      3.325  0.7997E+01  0.6147E+01
      3.465  0.6858E+01  0.7104E+01
      3.604  0.1647E+02  0.9401E+01
      3.744  0.2962E+01  0.9814E+01
      3.883  0.1105E+02  0.1136E+02
      4.023 -0.2694E+00  0.1132E+02
      4.162  0.1709E+01  0.1156E+02
      4.302  0.1147E+02  0.1316E+02
      4.441  0.8444E+01  0.1433E+02
      4.581  0.1788E+02  0.1683E+02
      4.720  0.2167E+01  0.1713E+02
      4.860  0.3725E+00  0.1718E+02
      4.999  0.5022E+01  0.1788E+02
      5.139  0.1508E+02  0.1999E+02
      5.278  0.1770E+01  0.2023E+02
      5.418  0.1084E+02  0.2175E+02
      5.557  0.2410E+02  0.2511E+02
      5.697  0.1471E+02  0.2716E+02
      5.836  0.6733E+01  0.2810E+02
      5.976  0.2651E+01  0.2847E+02
      6.115 -0.3445E+00  0.2842E+02
      6.255  0.2535E+01  0.2878E+02
      6.394  0.4352E+01  0.2938E+02
      6.534  0.7713E+01  0.3046E+02
      6.673  0.1551E+02  0.3262E+02
      6.813  0.3471E+01  0.3311E+02
      6.952  0.1831E+02  0.3566E+02
      7.092  0.9518E+01  0.3699E+02
      7.231  0.7180E+01  0.3799E+02
      7.371  0.7743E+01  0.3907E+02
      7.510  0.2005E+00  0.3910E+02
      7.650  0.9110E+01  0.4037E+02
      7.789  0.5376E+01  0.4112E+02
      7.929  0.5065E+01  0.4182E+02
      8.068  0.4741E+01  0.4248E+02
      8.207 -0.2884E+00  0.4244E+02
      8.347 -0.2236E-02  0.4244E+02
      8.486 -0.1906E-06  0.4244E+02
      8.626 -0.2823E-12  0.4244E+02
      8.765 -0.5576E-20  0.4244E+02
      8.905 -0.2229E-12  0.4244E+02
      9.044 -0.1722E-06  0.4244E+02
      9.184 -0.2325E-02  0.4244E+02
      9.323 -0.3600E+00  0.4239E+02
      9.463  0.5795E+01  0.4320E+02
      9.602  0.7753E+01  0.4428E+02
      9.742 -0.4343E+00  0.4422E+02
      9.881 -0.5796E-02  0.4422E+02
     10.021 -0.9198E-01  0.4421E+02
     10.160  0.9134E+00  0.4434E+02
     10.300  0.1165E+02  0.4596E+02
     10.439  0.2771E+00  0.4600E+02
     10.579  0.1093E+01  0.4615E+02
     10.718  0.5302E+00  0.4623E+02
     10.858 -0.3479E-01  0.4622E+02
     10.997 -0.1332E-03  0.4622E+02
     11.137 -0.6476E-08  0.4622E+02
     11.276 -0.5660E-14  0.4622E+02
     11.416 -0.2767E-13  0.4622E+02
     11.555 -0.3034E-07  0.4622E+02
     11.695 -0.5909E-03  0.4622E+02
     11.834 -0.1445E+00  0.4620E+02
     11.974  0.2218E+01  0.4651E+02
     12.113  0.4524E+01  0.4714E+02
     12.253 -0.2190E+00  0.4711E+02
     12.392 -0.5166E-02  0.4711E+02
     12.532 -0.9351E-06  0.4711E+02
     12.671 -0.2854E-11  0.4711E+02
     12.811 -0.7387E-33  0.4711E+02
     12.950 -0.5888E-23  0.4711E+02
     13.090 -0.9261E-15  0.4711E+02
     13.229 -0.2706E-08  0.4711E+02
     13.368 -0.1489E-03  0.4711E+02
     13.508 -0.1269E+00  0.4709E+02
     13.647  0.1195E+01  0.4726E+02
     13.787  0.1664E+02  0.4958E+02
     13.926  0.1554E+01  0.4980E+02
     14.066 -0.1489E+00  0.4978E+02
     14.205 -0.5465E-03  0.4978E+02
     14.345 -0.1063E+00  0.4976E+02
     14.484  0.1536E+01  0.4998E+02
     14.624  0.5130E+01  0.5069E+02
     14.763 -0.1774E+00  0.5067E+02
     14.903 -0.9532E-02  0.5067E+02
     15.042 -0.5282E-04  0.5067E+02
     15.182 -0.2340E-01  0.5066E+02
     15.321  0.3279E+00  0.5071E+02
     15.461  0.1328E+01  0.5089E+02
     15.600 -0.3661E-01  0.5089E+02
     15.740 -0.4683E-02  0.5089E+02
     15.879 -0.1994E+00  0.5086E+02
     16.019  0.3328E+01  0.5133E+02
     16.158  0.3452E+01  0.5181E+02
     16.298 -0.2042E+00  0.5178E+02
     16.437 -0.2713E-02  0.5178E+02
     16.577 -0.1584E+00  0.5176E+02
     16.716  0.2475E+01  0.5210E+02
     16.856  0.4283E+01  0.5270E+02
     16.995 -0.2218E+00  0.5267E+02
     17.135 -0.4261E-02  0.5267E+02
     17.274 -0.6231E-01  0.5266E+02
     17.414  0.8729E+00  0.5278E+02
     17.553  0.3502E+01  0.5327E+02
     17.693  0.2659E+00  0.5331E+02
     17.832  0.5834E+01  0.5412E+02
     17.972 -0.1503E+00  0.5410E+02
     18.111  0.6394E+01  0.5499E+02
     18.251  0.7130E+01  0.5598E+02
     18.390 -0.4165E+00  0.5593E+02
     18.529 -0.4306E-02  0.5593E+02
     18.669 -0.4942E-06  0.5593E+02
     18.808 -0.7102E-03  0.5593E+02
     18.948 -0.1541E+00  0.5590E+02
     19.087  0.2396E+01  0.5624E+02
     19.227  0.4358E+01  0.5685E+02
     19.366 -0.2497E+00  0.5681E+02
     19.506  0.3197E+00  0.5686E+02
     19.645  0.2823E+01  0.5725E+02
     19.785  0.2373E+00  0.5728E+02
     19.924  0.1158E+02  0.5890E+02
     20.064  0.1097E+01  0.5905E+02
     20.203 -0.1021E+00  0.5904E+02
     20.343 -0.1111E-03  0.5904E+02
     20.482 -0.1808E-08  0.5904E+02
     20.622  0.0000E+00  0.5904E+02
     20.761 -0.8413E-34  0.5904E+02
     20.901 -0.8464E-24  0.5904E+02
     21.040 -0.1681E-15  0.5904E+02
     21.180 -0.6199E-09  0.5904E+02
     21.319 -0.4286E-04  0.5904E+02
     21.459 -0.4524E-01  0.5903E+02
     21.598  0.3474E+00  0.5908E+02
     21.738  0.7203E+01  0.6008E+02
     21.877  0.1971E+01  0.6036E+02
     22.017  0.4152E+01  0.6094E+02
     22.156  0.2463E+01  0.6128E+02
     22.296 -0.1579E+00  0.6126E+02
     22.435 -0.7619E-03  0.6126E+02
     22.575 -0.5290E-07  0.6126E+02
     22.714 -0.3097E-03  0.6126E+02
     22.854 -0.1684E+00  0.6124E+02
     22.993  0.1925E+01  0.6150E+02
     23.133  0.1617E+02  0.6376E+02
     23.272  0.8035E+01  0.6488E+02
     23.412 -0.6852E+00  0.6479E+02
     23.551  0.4659E+01  0.6543E+02
     23.690  0.2002E+01  0.6571E+02
     23.830  0.5963E+00  0.6580E+02
     23.969  0.5702E+01  0.6659E+02
     24.109  0.4723E+00  0.6666E+02
     24.248 -0.3535E-01  0.6665E+02
     24.388  0.1531E+01  0.6687E+02
     24.527  0.2961E+01  0.6728E+02
     24.667 -0.3881E+00  0.6723E+02
     24.806  0.3573E+01  0.6772E+02
     24.946  0.9826E+01  0.6910E+02
     25.085 -0.4004E+00  0.6904E+02
     25.225 -0.2621E-01  0.6904E+02
     25.364 -0.5221E+00  0.6896E+02
     25.504  0.1045E+02  0.7042E+02
     25.643  0.6411E+01  0.7131E+02
     25.783 -0.3965E+00  0.7126E+02
     25.922 -0.1167E+00  0.7124E+02
     26.062  0.1673E+01  0.7148E+02
     26.201  0.4993E+01  0.7217E+02
     26.341 -0.1923E+00  0.7215E+02
     26.480 -0.8732E-01  0.7213E+02
     26.620  0.7110E+01  0.7313E+02
     26.759  0.6242E+01  0.7400E+02
     26.899  0.1132E+01  0.7415E+02
     27.038 -0.4135E-01  0.7415E+02
     27.178 -0.3354E-02  0.7415E+02
     27.317 -0.1181E-05  0.7415E+02
     27.457 -0.2506E-03  0.7415E+02
     27.596 -0.1030E+00  0.7413E+02
     27.736  0.1478E+01  0.7434E+02
     27.875  0.5166E+01  0.7506E+02
     28.015 -0.7220E-01  0.7505E+02
     28.154  0.1562E+01  0.7527E+02
     28.294  0.5087E+01  0.7598E+02
     28.433  0.9065E+01  0.7724E+02
     28.573  0.4107E+01  0.7782E+02
     28.712 -0.2662E+00  0.7778E+02
     28.852 -0.2169E-02  0.7778E+02
     28.991 -0.2054E-06  0.7778E+02
     29.130 -0.1913E-03  0.7778E+02
     29.270 -0.3952E-01  0.7777E+02
     29.409  0.6172E+00  0.7786E+02
     29.549  0.1025E+01  0.7800E+02
     29.688  0.3575E-01  0.7801E+02
     29.828  0.1149E+02  0.7961E+02
     29.967  0.9915E+00  0.7975E+02
     30.107  0.5078E+01  0.8046E+02
     30.246  0.8334E+01  0.8162E+02
     30.386 -0.4738E+00  0.8155E+02
     30.525  0.1718E+00  0.8158E+02
     30.665  0.5831E+01  0.8239E+02
     30.804  0.4378E+00  0.8245E+02
     30.944 -0.6704E-01  0.8244E+02
     31.083  0.2301E-01  0.8244E+02
     31.223  0.5721E+01  0.8324E+02
     31.362  0.6027E+00  0.8333E+02
     31.502  0.1792E+01  0.8358E+02
     31.641  0.1536E+01  0.8379E+02
     31.781 -0.1294E+00  0.8377E+02
     31.920  0.2599E+00  0.8381E+02
     32.060  0.5848E+01  0.8462E+02
     32.199  0.3388E+00  0.8467E+02
     32.339 -0.3954E-01  0.8467E+02
     32.478 -0.2851E-02  0.8467E+02
     32.618 -0.1478E+00  0.8465E+02
     32.757  0.2871E+01  0.8505E+02
     32.897  0.1483E+01  0.8525E+02
     33.036  0.2303E+01  0.8557E+02
     33.176  0.7017E+01  0.8655E+02
     33.315 -0.2673E+00  0.8652E+02
     33.455  0.2058E+00  0.8654E+02
     33.594  0.5842E+01  0.8736E+02
     33.734  0.3865E+00  0.8741E+02
     33.873 -0.4215E-01  0.8741E+02
     34.013 -0.1501E-03  0.8741E+02
     34.152 -0.7389E-01  0.8740E+02
     34.291  0.7113E+00  0.8750E+02
     34.431  0.9207E+01  0.8878E+02
     34.570  0.2724E+01  0.8916E+02
     34.710  0.5699E+01  0.8996E+02
     34.849  0.1334E+02  0.9182E+02
     34.989 -0.1113E+00  0.9180E+02
     35.128  0.7402E+01  0.9283E+02
     35.268  0.7993E+01  0.9395E+02
     35.407  0.1073E+02  0.9544E+02
     35.547  0.2014E+01  0.9573E+02
     35.686 -0.1571E+00  0.9570E+02
     35.826 -0.4298E-03  0.9570E+02
     35.965 -0.1611E-07  0.9570E+02
     36.105 -0.1132E-13  0.9570E+02
     36.244 -0.3570E-26  0.9570E+02
     36.384 -0.1498E-17  0.9570E+02
     36.523 -0.1178E-10  0.9570E+02
     36.663 -0.1756E-05  0.9570E+02
     36.802 -0.4217E-02  0.9570E+02
     36.942 -0.1663E-01  0.9570E+02
     37.081  0.1394E+01  0.9590E+02
     37.221  0.2388E+00  0.9593E+02
     37.360 -0.1839E-01  0.9593E+02
     37.500 -0.5771E-02  0.9593E+02
     37.639  0.7264E-01  0.9594E+02
     37.779  0.4690E+00  0.9600E+02
     37.918 -0.3348E-02  0.9600E+02
     38.058 -0.1536E-02  0.9600E+02
     38.197 -0.6853E-06  0.9600E+02
     38.337 -0.4903E-11  0.9600E+02
     38.476  0.0000E+00  0.9600E+02
     38.616  0.0000E+00  0.9600E+02
     38.755  0.0000E+00  0.9600E+02
     38.895  0.0000E+00  0.9600E+02
     39.034  0.0000E+00  0.9600E+02
     39.174  0.0000E+00  0.9600E+02
     39.313  0.0000E+00  0.9600E+02
     39.452  0.0000E+00  0.9600E+02
     39.592  0.0000E+00  0.9600E+02
