    4    4    1    1
  0.1697933E+02  0.4080000E-09  0.4080000E-09  0.4080000E-09  0.5000000E-15
  1.000000000000000E-004
  CAR 
 unknown system                          
     44      4     48
 
  0.0000000E+00  0.0000000E+00  0.0000000E+00  0.3703704E-01
    1       -0.351937   1.000000
    2        2.458867   1.000000
    3        2.458867   1.000000
    4        2.458867   1.000000
    5        2.782688   1.000000
    6        2.782688   1.000000
    7        2.782688   1.000000
    8        4.858809   1.000000
    9        4.858809   1.000000
   10        4.858809   1.000000
   11        6.385427   1.000000
   12        6.385427   1.000000
   13        7.551178   1.000000
   14        7.551178   1.000000
   15        7.551178   1.000000
   16        7.923508   1.000000
   17        7.923508   1.000000
   18        7.923508   1.000000
   19        7.923508   1.000000
   20        7.923508   1.000000
   21        7.923508   1.000000
   22       10.555747  -0.000000
   23       10.555747  -0.000000
   24       10.555747  -0.000000
   25       15.361069   0.000000
   26       15.361069   0.000000
   27       15.361069   0.000000
   28       19.563116   0.000000
   29       19.563116   0.000000
   30       19.563116   0.000000
   31       19.563116   0.000000
   32       19.563116   0.000000
   33       19.563116   0.000000
   34       24.062352   0.000000
   35       26.802052   0.000000
   36       26.802052   0.000000
   37       26.802052   0.000000
   38       28.076710   0.000000
   39       28.076710   0.000000
   40       28.076710   0.000000
   41       29.425950   0.000000
   42       29.425950   0.000000
   43       29.425950   0.000000
   44       32.996175   0.000000
   45       37.032647   0.000000
   46       37.032657   0.000000
   47       37.032901   0.000000
   48       37.689894   0.000000
 
  0.3333333E+00  0.0000000E+00  0.0000000E+00  0.2222222E+00
    1        0.883999   1.000000
    2        2.673145   1.000000
    3        3.203357   1.000000
    4        3.203357   1.000000
    5        3.234920   1.000000
    6        3.501343   1.000000
    7        3.501343   1.000000
    8        4.262227   1.000000
    9        5.431944   1.000000
   10        5.431944   1.000000
   11        5.578218   1.000000
   12        5.578218   1.000000
   13        5.783259   1.000000
   14        6.532612   1.000000
   15        6.655527   1.000000
   16        6.655527   1.000000
   17        6.657479   1.000000
   18        6.897731   1.000000
   19        6.897731   1.000000
   20        7.238814   1.000000
   21        7.924928   1.000000
   22        7.924928   1.000000
   23       13.751020   0.000000
   24       13.751020   0.000000
   25       14.519175   0.000000
   26       14.519175   0.000000
   27       17.759690   0.000000
   28       17.759690   0.000000
   29       19.105284   0.000000
   30       19.105284   0.000000
   31       21.749098   0.000000
   32       22.000089   0.000000
   33       22.000089   0.000000
   34       25.515945   0.000000
   35       26.083953   0.000000
   36       26.104582   0.000000
   37       26.657257   0.000000
   38       26.657257   0.000000
   39       28.214293   0.000000
   40       30.600541   0.000000
   41       30.600541   0.000000
   42       31.167416   0.000000
   43       31.167416   0.000000
   44       31.496125   0.000000
   45       34.340879   0.000000
   46       34.340879   0.000000
   47       34.427007   0.000000
   48       34.427007   0.000000
 
  0.3333333E+00  0.3333333E+00  0.0000000E+00  0.4444444E+00
    1        1.894469   1.000000
    2        3.372275   1.000000
    3        3.546748   1.000000
    4        3.546748   1.000000
    5        3.792806   1.000000
    6        3.792806   1.000000
    7        4.186943   1.000000
    8        4.280623   1.000000
    9        4.541322   1.000000
   10        4.541322   1.000000
   11        5.055298   1.000000
   12        5.125833   1.000000
   13        5.608291   1.000000
   14        5.816283   1.000000
   15        6.269212   1.000000
   16        6.540026   1.000000
   17        6.540026   1.000000
   18        6.886347   1.000000
   19        6.886347   1.000000
   20        7.149156   1.000000
   21        7.306883   1.000000
   22        9.471610   0.875000
   23        9.471610   0.875000
   24       11.994771  -0.000000
   25       16.019829   0.000000
   26       16.732548   0.000000
   27       18.114151   0.000000
   28       18.114151   0.000000
   29       19.863932   0.000000
   30       19.863932   0.000000
   31       21.662644   0.000000
   32       23.037146   0.000000
   33       23.037146   0.000000
   34       23.526905   0.000000
   35       23.884626   0.000000
   36       26.564471   0.000000
   37       27.771668   0.000000
   38       28.310746   0.000000
   39       29.771075   0.000000
   40       29.771075   0.000000
   41       30.121059   0.000000
   42       30.121059   0.000000
   43       31.991609   0.000000
   44       33.527839   0.000000
   45       34.795353   0.000000
   46       35.120758   0.000000
   47       35.120761   0.000000
   48       35.286964   0.000000
 
  0.3333333E+00  0.3333333E+00  0.3333333E+00  0.2962963E+00
    1        2.056498   1.000000
    2        2.823205   1.000000
    3        2.823205   1.000000
    4        2.823205   1.000000
    5        4.447539   1.000000
    6        4.447539   1.000000
    7        4.447539   1.000000
    8        5.009920   1.000000
    9        5.009920   1.000000
   10        5.397476   1.000000
   11        5.397476   1.000000
   12        5.397476   1.000000
   13        5.512526   1.000000
   14        5.512526   1.000000
   15        5.512526   1.000000
   16        5.580896   1.000000
   17        7.001504   1.000000
   18        7.001504   1.000000
   19        7.640152   1.000000
   20        7.640152   1.000000
   21        7.640152   1.000000
   22       10.223900  -0.000000
   23       10.223900  -0.000000
   24       10.223900  -0.000000
   25       13.703606   0.000000
   26       13.703606   0.000000
   27       13.703606   0.000000
   28       17.453423   0.000000
   29       23.146056   0.000000
   30       23.146056   0.000000
   31       23.146056   0.000000
   32       24.407446   0.000000
   33       24.835941   0.000000
   34       24.835941   0.000000
   35       24.835941   0.000000
   36       25.482151   0.000000
   37       25.482151   0.000000
   38       25.482151   0.000000
   39       28.430682   0.000000
   40       28.430682   0.000000
   41       32.740261   0.000000
   42       33.072262   0.000000
   43       33.072262   0.000000
   44       34.717720   0.000000
   45       34.717720   0.000000
   46       34.717722   0.000000
   47       35.375583   0.000000
   48       35.375584   0.000000
