       N       E                     dE             d eps       ncg     rms          rms(c)
DAV:   1     0.189884817816E+03    0.18988E+03   -0.18985E+04   384   0.724E+02
DAV:   2    -0.107440122661E+02   -0.20063E+03   -0.18850E+03   504   0.182E+02
DAV:   3    -0.132110193898E+02   -0.24670E+01   -0.24627E+01   528   0.202E+01
DAV:   4    -0.132210022424E+02   -0.99829E-02   -0.99826E-02   456   0.145E+00
DAV:   5    -0.132210915121E+02   -0.89270E-04   -0.89270E-04   528   0.136E-01    0.199E+01
DAV:   6    -0.123279093777E+02    0.89318E+00   -0.15184E+00   456   0.613E+00    0.125E+01
DAV:   7    -0.122505995671E+02    0.77310E-01   -0.24587E-01   528   0.248E+00    0.458E+00
DAV:   8    -0.122410855988E+02    0.95140E-02   -0.19803E-02   480   0.661E-01    0.503E-01
DAV:   9    -0.122410480906E+02    0.37508E-04   -0.82061E-05   456   0.416E-02
   1 F= -.12241048E+02 E0= -.12237940E+02  d E =-.932459E-02
