 vasp.5.4.1 05Feb16 (build Feb 08 2018 09:21:51) complex                        
  
 executed on             LinuxIFC date 2019.11.21  13:19:09
 running on   24 total cores
 distrk:  each k-point on   24 cores,    1 groups
 distr:  one band on NCORES_PER_BAND=   1 cores,   24 groups


--------------------------------------------------------------------------------------------------------


 INCAR:
 POTCAR:    PAW_PBE Au 04Oct2007                  

 ----------------------------------------------------------------------------- 
|                                                                             |
|           W    W    AA    RRRRR   N    N  II  N    N   GGGG   !!!           |
|           W    W   A  A   R    R  NN   N  II  NN   N  G    G  !!!           |
|           W    W  A    A  R    R  N N  N  II  N N  N  G       !!!           |
|           W WW W  AAAAAA  RRRRR   N  N N  II  N  N N  G  GGG   !            |
|           WW  WW  A    A  R   R   N   NN  II  N   NN  G    G                |
|           W    W  A    A  R    R  N    N  II  N    N   GGGG   !!!           |
|                                                                             |
|      For optimal performance we recommend to set                            |
|        NCORE= 4 - approx SQRT( number of cores)                             |
|      NCORE specifies how many cores store one orbital (NPAR=cpu/NCORE).     |
|      This setting can  greatly improve the performance of VASP for DFT.     |
|      The default, NPAR=number of cores might be grossly inefficient         |
|      on modern multi-core architectures or massively parallel machines.     |
|      Do your own testing !!!!                                               |
|      Unfortunately you need to use the default for GW and RPA calculations. |
|      (for HF NCORE is supported but not extensively tested yet)             |
|                                                                             |
 ----------------------------------------------------------------------------- 

 POTCAR:    PAW_PBE Au 04Oct2007                  
   VRHFIN =Au: s1d10                                                            
   LEXCH  = PE                                                                  
   EATOM  =   926.0867 eV,   68.0654 Ry                                         
                                                                                
   TITEL  = PAW_PBE Au 04Oct2007                                                
   LULTRA =        F    use ultrasoft PP ?                                      
   IUNSCR =        1    unscreen: 0-lin 1-nonlin 2-no                           
   RPACOR =    2.330    partial core radius                                     
   POMASS =  196.966; ZVAL   =   11.000    mass and valenz                      
   RCORE  =    2.500    outmost cutoff radius                                   
   RWIGS  =    2.840; RWIGS  =    1.503    wigner-seitz radius (au A)           
   ENMAX  =  229.943; ENMIN  =  172.457 eV                                      
   ICORE  =        3    local potential                                         
   LCOR   =        T    correct aug charges                                     
   LPAW   =        T    paw PP                                                  
   EAUG   =  356.670                                                            
   DEXC   =    0.000                                                            
   RMAX   =    2.562    core radius for proj-oper                               
   RAUG   =    1.300    factor for augmentation sphere                          
   RDEP   =    2.598    radius for radial grids                                 
   RDEPT  =    2.193    core radius for aug-charge                              
                                                                                
   Atomic configuration                                                         
   16 entries                                                                   
     n  l   j            E        occ.                                          
     1  0  0.50    -80748.5001   2.0000                                         
     2  0  0.50    -14244.7466   2.0000                                         
     2  1  1.50    -12310.9591   6.0000                                         
     3  0  0.50     -3362.1768   2.0000                                         
     3  1  1.50     -2801.5463   6.0000                                         
     3  2  2.50     -2203.8206  10.0000                                         
     4  0  0.50      -729.8168   2.0000                                         
     4  1  1.50      -546.0527   6.0000                                         
     4  2  2.50      -325.7302  10.0000                                         
     4  3  3.50       -81.1472  14.0000                                         
     5  0  0.50      -108.3201   2.0000                                         
     5  1  1.50       -59.7479   6.0000                                         
     5  2  2.50        -6.8783  10.0000                                         
     6  0  0.50        -5.7602   1.0000                                         
     6  1  1.50        -6.8029   0.0000                                         
     5  3  2.50        -1.3606   0.0000                                         
   Description                                                                  
     l       E           TYP  RCUT    TYP  RCUT                                 
     2     -6.8782861     23  2.500                                             
     2     -8.2388687     23  2.500                                             
     0     -5.7601759     23  2.500                                             
     0     -0.8493231     23  2.500                                             
     1     -2.7211652     23  2.500                                             
     1     27.2116520     23  2.500                                             
     3     -1.3605826     23  2.500                                             
  local pseudopotential read in
  partial core-charges read in
  partial kinetic energy density read in
  atomic valenz-charges read in
  non local Contribution for L=           2  read in
    real space projection operators read in
  non local Contribution for L=           2  read in
    real space projection operators read in
  non local Contribution for L=           0  read in
    real space projection operators read in
  non local Contribution for L=           0  read in
    real space projection operators read in
  non local Contribution for L=           1  read in
    real space projection operators read in
  non local Contribution for L=           1  read in
    real space projection operators read in
    PAW grid and wavefunctions read in
 
   number of l-projection  operators is LMAX  =           6
   number of lm-projection operators is LMMAX =          18
 
  PAW_PBE Au 04Oct2007                  :
 energy of atom  1       EATOM= -926.0867
 kinetic energy error for atom=    0.0062 (will be added to EATOM!!)
 
 
 POSCAR: Au                                      
  positions in cartesian coordinates
  No initial velocities read in
 exchange correlation table for  LEXCH =        8
   RHO(1)=    0.500       N(1)  =     2000
   RHO(2)=  100.500       N(2)  =     4000
 


--------------------------------------------------------------------------------------------------------


 ion  position               nearest neighbor table
   1  0.000  0.000  0.000-   2 2.88   3 2.88   4 2.88   2 2.88   3 2.88   2 2.88   4 2.88   2 2.88
                             3 2.88   4 2.88   3 2.88   4 2.88
   2  0.000  0.500  0.500-   1 2.88   3 2.88   4 2.88   1 2.88   4 2.88   1 2.88   3 2.88   1 2.88
                             3 2.88   4 2.88   4 2.88   3 2.88
   3  0.500  0.000  0.500-   1 2.88   2 2.88   4 2.88   1 2.88   4 2.88   2 2.88   4 2.88   4 2.88
                             1 2.88   2 2.88   1 2.88   2 2.88
   4  0.500  0.500  0.000-   1 2.88   2 2.88   3 2.88   2 2.88   3 2.88   1 2.88   3 2.88   3 2.88
                             1 2.88   2 2.88   2 2.88   1 2.88
 
  LATTYP: Found a simple cubic cell.
 ALAT       =     4.0800000000
  
  Lattice vectors:
  
 A1 = (   4.0800000000,   0.0000000000,   0.0000000000)
 A2 = (   0.0000000000,   4.0800000000,   0.0000000000)
 A3 = (   0.0000000000,   0.0000000000,   4.0800000000)


Analysis of symmetry for initial positions (statically):
=====================================================================
 Subroutine PRICEL returns following result:
 
  LATTYP: Found a face centered cubic cell.
 ALAT       =     4.0800000000
  
  Lattice vectors:
  
 A1 = (   2.0400000000,   2.0400000000,   0.0000000000)
 A2 = (   2.0400000000,   0.0000000000,  -2.0400000000)
 A3 = (   0.0000000000,   2.0400000000,  -2.0400000000)
 
   4 primitive cells build up your supercell.
 

 Routine SETGRP: Setting up the symmetry group for a 
 simple cubic supercell.


 Subroutine GETGRP returns: Found 48 space group operations
 (whereof 48 operations were pure point group operations)
 out of a pool of 48 trial point group operations.


The static configuration has the point symmetry O_h .


Analysis of symmetry for dynamics (positions and initial velocities):
=====================================================================
 Subroutine PRICEL returns following result:
 
  LATTYP: Found a face centered cubic cell.
 ALAT       =     4.0800000000
  
  Lattice vectors:
  
 A1 = (   2.0400000000,   2.0400000000,   0.0000000000)
 A2 = (   2.0400000000,   0.0000000000,  -2.0400000000)
 A3 = (   0.0000000000,   2.0400000000,  -2.0400000000)
 
   4 primitive cells build up your supercell.
 

 Routine SETGRP: Setting up the symmetry group for a 
 simple cubic supercell.


 Subroutine GETGRP returns: Found 48 space group operations
 (whereof 48 operations were pure point group operations)
 out of a pool of 48 trial point group operations.


The dynamic configuration has the point symmetry O_h .


 Subroutine INISYM returns: Found 48 space group operations
 (whereof 48 operations are pure point group operations),
 and found     4 'primitive' translations

 
 
 KPOINTS: KPOINTS created by Atomic Simulation Env

Automatic generation of k-mesh.
Space group operators:
 irot       det(A)        alpha          n_x          n_y          n_z        tau_x        tau_y        tau_z
    1     1.000000     0.000001     1.000000     0.000000     0.000000     0.000000     0.000000     0.000000
    2    -1.000000     0.000001     1.000000     0.000000     0.000000     0.000000     0.000000     0.000000
    3     1.000000   120.000000    -0.577350    -0.577350    -0.577350     0.000000     0.000000     0.000000
    4    -1.000000   120.000000    -0.577350    -0.577350    -0.577350     0.000000     0.000000     0.000000
    5     1.000000   120.000000     0.577350     0.577350     0.577350     0.000000     0.000000     0.000000
    6    -1.000000   120.000000     0.577350     0.577350     0.577350     0.000000     0.000000     0.000000
    7     1.000000    90.000000     0.000000     0.000000    -1.000000     0.000000     0.000000     0.000000
    8    -1.000000    90.000000     0.000000     0.000000    -1.000000     0.000000     0.000000     0.000000
    9     1.000000   180.000000     0.000000     0.707107     0.707107     0.000000     0.000000     0.000000
   10    -1.000000   180.000000     0.000000     0.707107     0.707107     0.000000     0.000000     0.000000
   11     1.000000    90.000000     0.000000     1.000000     0.000000     0.000000     0.000000     0.000000
   12    -1.000000    90.000000     0.000000     1.000000     0.000000     0.000000     0.000000     0.000000
   13     1.000000   180.000000     0.000000     0.000000     1.000000     0.000000     0.000000     0.000000
   14    -1.000000   180.000000     0.000000     0.000000     1.000000     0.000000     0.000000     0.000000
   15     1.000000   120.000000    -0.577350     0.577350     0.577350     0.000000     0.000000     0.000000
   16    -1.000000   120.000000    -0.577350     0.577350     0.577350     0.000000     0.000000     0.000000
   17     1.000000   120.000000    -0.577350     0.577350    -0.577350     0.000000     0.000000     0.000000
   18    -1.000000   120.000000    -0.577350     0.577350    -0.577350     0.000000     0.000000     0.000000
   19     1.000000    90.000000     0.000000     0.000000     1.000000     0.000000     0.000000     0.000000
   20    -1.000000    90.000000     0.000000     0.000000     1.000000     0.000000     0.000000     0.000000
   21     1.000000    90.000000    -1.000000     0.000000     0.000000     0.000000     0.000000     0.000000
   22    -1.000000    90.000000    -1.000000     0.000000     0.000000     0.000000     0.000000     0.000000
   23     1.000000   180.000000     0.707107     0.000000     0.707107     0.000000     0.000000     0.000000
   24    -1.000000   180.000000     0.707107     0.000000     0.707107     0.000000     0.000000     0.000000
   25     1.000000   120.000000     0.577350    -0.577350     0.577350     0.000000     0.000000     0.000000
   26    -1.000000   120.000000     0.577350    -0.577350     0.577350     0.000000     0.000000     0.000000
   27     1.000000   120.000000    -0.577350    -0.577350     0.577350     0.000000     0.000000     0.000000
   28    -1.000000   120.000000    -0.577350    -0.577350     0.577350     0.000000     0.000000     0.000000
   29     1.000000   180.000000     1.000000     0.000000     0.000000     0.000000     0.000000     0.000000
   30    -1.000000   180.000000     1.000000     0.000000     0.000000     0.000000     0.000000     0.000000
   31     1.000000    90.000000     0.000000    -1.000000     0.000000     0.000000     0.000000     0.000000
   32    -1.000000    90.000000     0.000000    -1.000000     0.000000     0.000000     0.000000     0.000000
   33     1.000000   180.000000     0.707107     0.707107     0.000000     0.000000     0.000000     0.000000
   34    -1.000000   180.000000     0.707107     0.707107     0.000000     0.000000     0.000000     0.000000
   35     1.000000    90.000000     1.000000     0.000000     0.000000     0.000000     0.000000     0.000000
   36    -1.000000    90.000000     1.000000     0.000000     0.000000     0.000000     0.000000     0.000000
   37     1.000000   120.000000     0.577350    -0.577350    -0.577350     0.000000     0.000000     0.000000
   38    -1.000000   120.000000     0.577350    -0.577350    -0.577350     0.000000     0.000000     0.000000
   39     1.000000   180.000000     0.000000     1.000000     0.000000     0.000000     0.000000     0.000000
   40    -1.000000   180.000000     0.000000     1.000000     0.000000     0.000000     0.000000     0.000000
   41     1.000000   120.000000     0.577350     0.577350    -0.577350     0.000000     0.000000     0.000000
   42    -1.000000   120.000000     0.577350     0.577350    -0.577350     0.000000     0.000000     0.000000
   43     1.000000   180.000000     0.000000    -0.707107     0.707107     0.000000     0.000000     0.000000
   44    -1.000000   180.000000     0.000000    -0.707107     0.707107     0.000000     0.000000     0.000000
   45     1.000000   180.000000     0.707107    -0.707107     0.000000     0.000000     0.000000     0.000000
   46    -1.000000   180.000000     0.707107    -0.707107     0.000000     0.000000     0.000000     0.000000
   47     1.000000   180.000000     0.707107     0.000000    -0.707107     0.000000     0.000000     0.000000
   48    -1.000000   180.000000     0.707107     0.000000    -0.707107     0.000000     0.000000     0.000000
 
 Subroutine IBZKPT returns following result:
 ===========================================
 
 Found      4 irreducible k-points:
 
 Following reciprocal coordinates:
            Coordinates               Weight
  0.000000  0.000000  0.000000      1.000000
  0.333333  0.000000  0.000000      6.000000
  0.333333  0.333333  0.000000     12.000000
  0.333333  0.333333  0.333333      8.000000
 
 Following cartesian coordinates:
            Coordinates               Weight
  0.000000  0.000000  0.000000      1.000000
  0.081699  0.000000  0.000000      6.000000
  0.081699  0.081699  0.000000     12.000000
  0.081699  0.081699  0.081699      8.000000
 


--------------------------------------------------------------------------------------------------------




 Dimension of arrays:
   k-points           NKPTS =      4   k-points in BZ     NKDIM =      4   number of bands    NBANDS=     48
   number of dos      NEDOS =    301   number of ions     NIONS =      4
   non local maximal  LDIM  =      6   non local SUM 2l+1 LMDIM =     18
   total plane-waves  NPLWV =   8000
   max r-space proj   IRMAX =      1   max aug-charges    IRDMAX=   7402
   dimension x,y,z NGX =    20 NGY =   20 NGZ =   20
   dimension x,y,z NGXF=    40 NGYF=   40 NGZF=   40
   support grid    NGXF=    40 NGYF=   40 NGZF=   40
   ions per type =               4
 NGX,Y,Z   is equivalent  to a cutoff of   8.15,  8.15,  8.15 a.u.
 NGXF,Y,Z  is equivalent  to a cutoff of  16.30, 16.30, 16.30 a.u.


 I would recommend the setting:
   dimension x,y,z NGX =    20 NGY =   20 NGZ =   20
 SYSTEM =  unknown system                          
 POSCAR =  Au                                      

 Startparameter for this run:
   NWRITE =      2    write-flag & timer
   PREC   = normal    normal or accurate (medium, high low for compatibility)
   ISTART =      0    job   : 0-new  1-cont  2-samecut
   ICHARG =      2    charge: 1-file 2-atom 10-const
   ISPIN  =      1    spin polarized calculation?
   LNONCOLLINEAR =      F non collinear calculations
   LSORBIT =      F    spin-orbit coupling
   INIWAV =      1    electr: 0-lowe 1-rand  2-diag
   LASPH  =      F    aspherical Exc in radial PAW
   METAGGA=      F    non-selfconsistent MetaGGA calc.

 Electronic Relaxation 1
   ENCUT  =  400.0 eV  29.40 Ry    5.42 a.u.   6.65  6.65  6.65*2*pi/ulx,y,z
   ENINI  =  400.0     initial cutoff
   ENAUG  =  356.7 eV  augmentation charge cutoff
   NELM   =     60;   NELMIN=  2; NELMDL= -5     # of ELM steps 
   EDIFF  = 0.1E-03   stopping-criterion for ELM
   LREAL  =      F    real-space projection
   NLSPLINE    = F    spline interpolate recip. space projectors
   LCOMPAT=      F    compatible to vasp.4.4
   GGA_COMPAT  = T    GGA compatible to vasp.4.4-vasp.4.6
   LMAXPAW     = -100 max onsite density
   LMAXMIX     =    2 max onsite mixed and CHGCAR
   VOSKOWN=      0    Vosko Wilk Nusair interpolation
   ROPT   =    0.00000
 Ionic relaxation
   EDIFFG = 0.1E-02   stopping-criterion for IOM
   NSW    =      0    number of steps for IOM
   NBLOCK =      1;   KBLOCK =      1    inner block; outer block 
   IBRION =     -1    ionic relax: 0-MD 1-quasi-New 2-CG
   NFREE  =      0    steps in history (QN), initial steepest desc. (CG)
   ISIF   =      2    stress and relaxation
   IWAVPR =     10    prediction:  0-non 1-charg 2-wave 3-comb
   ISYM   =      2    0-nonsym 1-usesym 2-fastsym
   LCORR  =      T    Harris-Foulkes like correction to forces

   POTIM  = 0.5000    time-step for ionic-motion
   TEIN   =    0.0    initial temperature
   TEBEG  =    0.0;   TEEND  =   0.0 temperature during run
   SMASS  =  -3.00    Nose mass-parameter (am)
   estimated Nose-frequenzy (Omega)   =  0.10E-29 period in steps =****** mass=  -0.380E-27a.u.
   SCALEE = 1.0000    scale energy and forces
   NPACO  =    256;   APACO  = 16.0  distance and # of slots for P.C.
   PSTRESS=    0.0 pullay stress

  Mass of Ions in am
   POMASS = 196.97
  Ionic Valenz
   ZVAL   =  11.00
  Atomic Wigner-Seitz radii
   RWIGS  =  -1.00
  virtual crystal weights 
   VCA    =   1.00
   NELECT =      44.0000    total number of electrons
   NUPDOWN=      -1.0000    fix difference up-down

 DOS related values:
   EMIN   =  10.00;   EMAX   =-10.00  energy-range for DOS
   EFERMI =   0.00
   ISMEAR =     1;   SIGMA  =   0.10  broadening in eV -4-tet -1-fermi 0-gaus

 Electronic relaxation 2 (details)
   IALGO  =     38    algorithm
   LDIAG  =      T    sub-space diagonalisation (order eigenvalues)
   LSUBROT=      F    optimize rotation matrix (better conditioning)
   TURBO    =      0    0=normal 1=particle mesh
   IRESTART =      0    0=no restart 2=restart with 2 vectors
   NREBOOT  =      0    no. of reboots
   NMIN     =      0    reboot dimension
   EREF     =   0.00    reference energy to select bands
   IMIX   =      4    mixing-type and parameters
     AMIX     =   0.40;   BMIX     =  1.00
     AMIX_MAG =   1.60;   BMIX_MAG =  1.00
     AMIN     =   0.10
     WC   =   100.;   INIMIX=   1;  MIXPRE=   1;  MAXMIX= -45

 Intra band minimization:
   WEIMIN = 0.0000     energy-eigenvalue tresh-hold
   EBREAK =  0.52E-06  absolut break condition
   DEPER  =   0.30     relativ break condition  

   TIME   =   0.40     timestep for ELM

  volume/ion in A,a.u.               =      16.98       114.58
  Fermi-wavevector in a.u.,A,eV,Ry     =   1.416551  2.676893 27.301680  2.006617
  Thomas-Fermi vector in A             =   2.537874
 
 Write flags
   LWAVE  =      F    write WAVECAR
   LCHARG =      F    write CHGCAR
   LVTOT  =      F    write LOCPOT, total local potential
   LVHAR  =      F    write LOCPOT, Hartree potential only
   LELF   =      F    write electronic localiz. function (ELF)
   LORBIT =      0    0 simple, 1 ext, 2 COOP (PROOUT)


 Dipole corrections
   LMONO  =      F    monopole corrections only (constant potential shift)
   LDIPOL =      F    correct potential (dipole corrections)
   IDIPOL =      0    1-x, 2-y, 3-z, 4-all directions 
   EPSILON=  1.0000000 bulk dielectric constant

 Exchange correlation treatment:
   GGA     =    --    GGA type
   LEXCH   =     8    internal setting for exchange type
   VOSKOWN=      0    Vosko Wilk Nusair interpolation
   LHFCALC =     F    Hartree Fock is set to
   LHFONE  =     F    Hartree Fock one center treatment
   AEXX    =    0.0000 exact exchange contribution

 Linear response parameters
   LEPSILON=     F    determine dielectric tensor
   LRPA    =     F    only Hartree local field effects (RPA)
   LNABLA  =     F    use nabla operator in PAW spheres
   LVEL    =     F    velocity operator in full k-point grid
   LINTERFAST=   F  fast interpolation
   KINTER  =     0    interpolate to denser k-point grid
   CSHIFT  =0.1000    complex shift for real part using Kramers Kronig
   OMEGAMAX=  -1.0    maximum frequency
   DEG_THRESHOLD= 0.2000000E-02 threshold for treating states as degnerate
   RTIME   =    0.100 relaxation time in fs

 Orbital magnetization related:
   ORBITALMAG=     F  switch on orbital magnetization
   LCHIMAG   =     F  perturbation theory with respect to B field
   DQ        =  0.001000  dq finite difference perturbation B field



--------------------------------------------------------------------------------------------------------


 Static calculation
 charge density and potential will be updated during run
 non-spin polarized calculation
 Variant of blocked Davidson
 Davidson routine will perform the subspace rotation
 perform sub-space diagonalisation
    after iterative eigenvector-optimisation
 modified Broyden-mixing scheme, WC =      100.0
 initial mixing is a Kerker type mixing with AMIX =  0.4000 and BMIX =      1.0000
 Hartree-type preconditioning will be used
 using additional bands           26
 reciprocal scheme for non local part
 use partial core corrections
 calculate Harris-corrections to forces 
   (improved forces if not selfconsistent)
 use gradient corrections 
 use of overlap-Matrix (Vanderbilt PP)
 Methfessel and Paxton  Order N= 1 SIGMA  =   0.10


--------------------------------------------------------------------------------------------------------


  energy-cutoff  :      400.00
  volume of cell :       67.92
      direct lattice vectors                 reciprocal lattice vectors
     4.080000000  0.000000000  0.000000000     0.245098039  0.000000000  0.000000000
     0.000000000  4.080000000  0.000000000     0.000000000  0.245098039  0.000000000
     0.000000000  0.000000000  4.080000000     0.000000000  0.000000000  0.245098039

  length of vectors
     4.080000000  4.080000000  4.080000000     0.245098039  0.245098039  0.245098039


 
 k-points in units of 2pi/SCALE and weight: KPOINTS created by Atomic Simulation Env
   0.00000000  0.00000000  0.00000000       0.037
   0.08169935  0.00000000  0.00000000       0.222
   0.08169935  0.08169935  0.00000000       0.444
   0.08169935  0.08169935  0.08169935       0.296
 
 k-points in reciprocal lattice and weights: KPOINTS created by Atomic Simulation Env
   0.00000000  0.00000000  0.00000000       0.037
   0.33333333  0.00000000  0.00000000       0.222
   0.33333333  0.33333333  0.00000000       0.444
   0.33333333  0.33333333  0.33333333       0.296
 
 position of ions in fractional coordinates (direct lattice) 
   0.00000000  0.00000000  0.00000000
   0.00000000  0.50000000  0.50000000
   0.50000000  0.00000000  0.50000000
   0.50000000  0.50000000  0.00000000
 
 position of ions in cartesian coordinates  (Angst):
   0.00000000  0.00000000  0.00000000
   0.00000000  2.04000000  2.04000000
   2.04000000  0.00000000  2.04000000
   2.04000000  2.04000000  0.00000000
 


--------------------------------------------------------------------------------------------------------


 k-point  1 :   0.0000 0.0000 0.0000  plane waves:    1237
 k-point  2 :   0.3333 0.0000 0.0000  plane waves:    1233
 k-point  3 :   0.3333 0.3333 0.0000  plane waves:    1242
 k-point  4 :   0.3333 0.3333 0.3333  plane waves:    1229

 maximum and minimum number of plane-waves per node :      1242     1229

 maximum number of plane-waves:      1242
 maximum index in each direction: 
   IXMAX=    6   IYMAX=    6   IZMAX=    6
   IXMIN=   -6   IYMIN=   -6   IZMIN=   -6

 WARNING: aliasing errors must be expected set NGX to  26 to avoid them
 WARNING: aliasing errors must be expected set NGY to  26 to avoid them
 WARNING: aliasing errors must be expected set NGZ to  26 to avoid them
 aliasing errors are usually negligible using standard VASP settings
 and one can safely disregard these warnings

 serial   3D FFT for wavefunctions
 parallel 3D FFT for charge:
    minimum data exchange during FFTs selected (reduces bandwidth)


 total amount of memory used by VASP on root node    31660. kBytes
========================================================================

   base      :      30000. kBytes
   nonl-proj :        798. kBytes
   fftplans  :        147. kBytes
   grid      :        485. kBytes
   one-center:         62. kBytes
   wavefun   :        168. kBytes
 
     INWAV:  cpu time    0.0001: real time    0.0001
 Broyden mixing: mesh for mixing (old mesh)
   NGX = 13   NGY = 13   NGZ = 13
  (NGX  = 40   NGY  = 40   NGZ  = 40)
  gives a total of   2197 points

 initial charge density was supplied:
 charge density of overlapping atoms calculated
 number of electron      44.0000000 magnetization 
 keeping initial charge density in first step


--------------------------------------------------------------------------------------------------------


 Maximum index for augmentation-charges          437 (set IRDMAX)


--------------------------------------------------------------------------------------------------------


 First call to EWALD:  gamma=   0.434
 Maximum number of real-space cells 3x 3x 3
 Maximum number of reciprocal cells 3x 3x 3

 FEWALD executed in parallel
    FEWALD:  cpu time    0.0659: real time    0.0659


----------------------------------------- Iteration    1(   1)  ---------------------------------------


    POTLOK:  cpu time    0.9458: real time    0.9578
    SETDIJ:  cpu time    0.1568: real time    0.1570
     EDDAV:  cpu time    6.4714: real time    6.9600
       DOS:  cpu time    0.4895: real time    0.4899
    --------------------------------------------
      LOOP:  cpu time    8.0652: real time    8.5680

 eigenvalue-minimisations  :   384
 total energy-change (2. order) : 0.1898848E+03  (-0.1898528E+04)
 number of electron      44.0000000 magnetization 
 augmentation part       44.0000000 magnetization 

 Free energy of the ion-electron system (eV)
  ---------------------------------------------------
  alpha Z        PSCENC =       274.40333328
  Ewald energy   TEWEN  =     -3915.95376942
  -Hartree energ DENC   =      -494.00614683
  -exchange      EXHF   =         0.00000000
  -V(xc)+E(xc)   XCENC  =        62.70648169
  PAW double counting   =      3496.39001341    -3404.04053930
  entropy T*S    EENTRO =         0.00079368
  eigenvalues    EBANDS =       466.06257623
  atomic energy  EATOM  =      3704.32207507
  Solvation  Ediel_sol  =         0.00000000
  ---------------------------------------------------
  free energy    TOTEN  =       189.88481782 eV

  energy without entropy =      189.88402413  energy(sigma->0) =      189.88455326


--------------------------------------------------------------------------------------------------------




----------------------------------------- Iteration    1(   2)  ---------------------------------------


     EDDAV:  cpu time    2.0136: real time    2.0165
       DOS:  cpu time    0.0025: real time    0.0025
    --------------------------------------------
      LOOP:  cpu time    2.0432: real time    2.0473

 eigenvalue-minimisations  :   504
 total energy-change (2. order) :-0.2006288E+03  (-0.1884955E+03)
 number of electron      44.0000000 magnetization 
 augmentation part       44.0000000 magnetization 

 Free energy of the ion-electron system (eV)
  ---------------------------------------------------
  alpha Z        PSCENC =       274.40333328
  Ewald energy   TEWEN  =     -3915.95376942
  -Hartree energ DENC   =      -494.00614683
  -exchange      EXHF   =         0.00000000
  -V(xc)+E(xc)   XCENC  =        62.70648169
  PAW double counting   =      3496.39001341    -3404.04053930
  entropy T*S    EENTRO =        -0.00754659
  eigenvalues    EBANDS =       265.44208642
  atomic energy  EATOM  =      3704.32207507
  Solvation  Ediel_sol  =         0.00000000
  ---------------------------------------------------
  free energy    TOTEN  =       -10.74401227 eV

  energy without entropy =      -10.73646568  energy(sigma->0) =      -10.74149674


--------------------------------------------------------------------------------------------------------




----------------------------------------- Iteration    1(   3)  ---------------------------------------


     EDDAV:  cpu time    0.0875: real time    0.0876
       DOS:  cpu time    0.0009: real time    0.0009
    --------------------------------------------
      LOOP:  cpu time    0.0894: real time    0.0907

 eigenvalue-minimisations  :   528
 total energy-change (2. order) :-0.2467007E+01  (-0.2462671E+01)
 number of electron      44.0000000 magnetization 
 augmentation part       44.0000000 magnetization 

 Free energy of the ion-electron system (eV)
  ---------------------------------------------------
  alpha Z        PSCENC =       274.40333328
  Ewald energy   TEWEN  =     -3915.95376942
  -Hartree energ DENC   =      -494.00614683
  -exchange      EXHF   =         0.00000000
  -V(xc)+E(xc)   XCENC  =        62.70648169
  PAW double counting   =      3496.39001341    -3404.04053930
  entropy T*S    EENTRO =        -0.00932451
  eigenvalues    EBANDS =       262.97685722
  atomic energy  EATOM  =      3704.32207507
  Solvation  Ediel_sol  =         0.00000000
  ---------------------------------------------------
  free energy    TOTEN  =       -13.21101939 eV

  energy without entropy =      -13.20169488  energy(sigma->0) =      -13.20791122


--------------------------------------------------------------------------------------------------------




----------------------------------------- Iteration    1(   4)  ---------------------------------------


     EDDAV:  cpu time    0.0698: real time    0.0699
       DOS:  cpu time    0.0003: real time    0.0003
    --------------------------------------------
      LOOP:  cpu time    0.0709: real time    0.0726

 eigenvalue-minimisations  :   456
 total energy-change (2. order) :-0.9982853E-02  (-0.9982619E-02)
 number of electron      44.0000000 magnetization 
 augmentation part       44.0000000 magnetization 

 Free energy of the ion-electron system (eV)
  ---------------------------------------------------
  alpha Z        PSCENC =       274.40333328
  Ewald energy   TEWEN  =     -3915.95376942
  -Hartree energ DENC   =      -494.00614683
  -exchange      EXHF   =         0.00000000
  -V(xc)+E(xc)   XCENC  =        62.70648169
  PAW double counting   =      3496.39001341    -3404.04053930
  entropy T*S    EENTRO =        -0.00932459
  eigenvalues    EBANDS =       262.96687444
  atomic energy  EATOM  =      3704.32207507
  Solvation  Ediel_sol  =         0.00000000
  ---------------------------------------------------
  free energy    TOTEN  =       -13.22100224 eV

  energy without entropy =      -13.21167766  energy(sigma->0) =      -13.21789405


--------------------------------------------------------------------------------------------------------




----------------------------------------- Iteration    1(   5)  ---------------------------------------


     EDDAV:  cpu time    0.0866: real time    0.0868
       DOS:  cpu time    0.0004: real time    0.0004
    CHARGE:  cpu time    0.0069: real time    0.0069
    MIXING:  cpu time    0.0011: real time    0.0011
    --------------------------------------------
      LOOP:  cpu time    0.0961: real time    0.0980

 eigenvalue-minimisations  :   528
 total energy-change (2. order) :-0.8926969E-04  (-0.8927011E-04)
 number of electron      43.9999812 magnetization 
 augmentation part       15.4605953 magnetization 

 Broyden mixing:
  rms(total) = 0.19922E+01    rms(broyden)= 0.19922E+01
  rms(prec ) = 0.23961E+01
  weight for this iteration     100.00

 Free energy of the ion-electron system (eV)
  ---------------------------------------------------
  alpha Z        PSCENC =       274.40333328
  Ewald energy   TEWEN  =     -3915.95376942
  -Hartree energ DENC   =      -494.00614683
  -exchange      EXHF   =         0.00000000
  -V(xc)+E(xc)   XCENC  =        62.70648169
  PAW double counting   =      3496.39001341    -3404.04053930
  entropy T*S    EENTRO =        -0.00932459
  eigenvalues    EBANDS =       262.96678517
  atomic energy  EATOM  =      3704.32207507
  Solvation  Ediel_sol  =         0.00000000
  ---------------------------------------------------
  free energy    TOTEN  =       -13.22109151 eV

  energy without entropy =      -13.21176693  energy(sigma->0) =      -13.21798332


--------------------------------------------------------------------------------------------------------




----------------------------------------- Iteration    1(   6)  ---------------------------------------


    POTLOK:  cpu time    0.0077: real time    0.0078
    SETDIJ:  cpu time    0.0025: real time    0.0025
     EDDAV:  cpu time    0.0709: real time    0.0711
       DOS:  cpu time    0.0003: real time    0.0003
    CHARGE:  cpu time    0.0053: real time    0.0054
    MIXING:  cpu time    0.0009: real time    0.0009
    --------------------------------------------
      LOOP:  cpu time    0.0886: real time    0.0948

 eigenvalue-minimisations  :   456
 total energy-change (2. order) : 0.8931821E+00  (-0.1518353E+00)
 number of electron      43.9999807 magnetization 
 augmentation part       15.9045783 magnetization 

 Broyden mixing:
  rms(total) = 0.12537E+01    rms(broyden)= 0.12537E+01
  rms(prec ) = 0.13092E+01
  weight for this iteration     100.00

 eigenvalues of (default mixing * dielectric matrix)
  average eigenvalue GAMMA=   2.3017
  2.3017

 Free energy of the ion-electron system (eV)
  ---------------------------------------------------
  alpha Z        PSCENC =       274.40333328
  Ewald energy   TEWEN  =     -3915.95376942
  -Hartree energ DENC   =      -464.83873913
  -exchange      EXHF   =         0.00000000
  -V(xc)+E(xc)   XCENC  =        61.42411249
  PAW double counting   =      3795.70111020    -3708.46892490
  entropy T*S    EENTRO =        -0.00932459
  eigenvalues    EBANDS =       241.09221761
  atomic energy  EATOM  =      3704.32207507
  Solvation  Ediel_sol  =         0.00000000
  ---------------------------------------------------
  free energy    TOTEN  =       -12.32790938 eV

  energy without entropy =      -12.31858479  energy(sigma->0) =      -12.32480118


--------------------------------------------------------------------------------------------------------




----------------------------------------- Iteration    1(   7)  ---------------------------------------


    POTLOK:  cpu time    0.0101: real time    0.0101
    SETDIJ:  cpu time    0.0023: real time    0.0023
     EDDAV:  cpu time    0.0850: real time    0.0851
       DOS:  cpu time    0.0003: real time    0.0003
    CHARGE:  cpu time    0.0050: real time    0.0050
    MIXING:  cpu time    0.0003: real time    0.0003
    --------------------------------------------
      LOOP:  cpu time    0.1039: real time    0.1102

 eigenvalue-minimisations  :   528
 total energy-change (2. order) : 0.7730981E-01  (-0.2458724E-01)
 number of electron      43.9999805 magnetization 
 augmentation part       16.0815294 magnetization 

 Broyden mixing:
  rms(total) = 0.45797E+00    rms(broyden)= 0.45796E+00
  rms(prec ) = 0.46271E+00
  weight for this iteration     100.00

 eigenvalues of (default mixing * dielectric matrix)
  average eigenvalue GAMMA=   1.9826
  1.2812  2.6839

 Free energy of the ion-electron system (eV)
  ---------------------------------------------------
  alpha Z        PSCENC =       274.40333328
  Ewald energy   TEWEN  =     -3915.95376942
  -Hartree energ DENC   =      -450.82794370
  -exchange      EXHF   =         0.00000000
  -V(xc)+E(xc)   XCENC  =        60.80184130
  PAW double counting   =      4117.83072687    -4034.99378336
  entropy T*S    EENTRO =        -0.00932459
  eigenvalues    EBANDS =       232.17624498
  atomic energy  EATOM  =      3704.32207507
  Solvation  Ediel_sol  =         0.00000000
  ---------------------------------------------------
  free energy    TOTEN  =       -12.25059957 eV

  energy without entropy =      -12.24127498  energy(sigma->0) =      -12.24749137


--------------------------------------------------------------------------------------------------------




----------------------------------------- Iteration    1(   8)  ---------------------------------------


    POTLOK:  cpu time    0.0037: real time    0.0038
    SETDIJ:  cpu time    0.0021: real time    0.0021
     EDDAV:  cpu time    0.0763: real time    0.0766
       DOS:  cpu time    0.0003: real time    0.0003
    CHARGE:  cpu time    0.0042: real time    0.0042
    MIXING:  cpu time    0.0002: real time    0.0002
    --------------------------------------------
      LOOP:  cpu time    0.0878: real time    0.0898

 eigenvalue-minimisations  :   480
 total energy-change (2. order) : 0.9513968E-02  (-0.1980288E-02)
 number of electron      43.9999805 magnetization 
 augmentation part       16.0428210 magnetization 

 Broyden mixing:
  rms(total) = 0.50324E-01    rms(broyden)= 0.50324E-01
  rms(prec ) = 0.50398E-01
  weight for this iteration     100.00

 eigenvalues of (default mixing * dielectric matrix)
  average eigenvalue GAMMA=   1.5539
  2.5377  1.2841  0.8397

 Free energy of the ion-electron system (eV)
  ---------------------------------------------------
  alpha Z        PSCENC =       274.40333328
  Ewald energy   TEWEN  =     -3915.95376942
  -Hartree energ DENC   =      -450.96409516
  -exchange      EXHF   =         0.00000000
  -V(xc)+E(xc)   XCENC  =        60.79391263
  PAW double counting   =      4272.34596282    -4191.22157553
  entropy T*S    EENTRO =        -0.00932459
  eigenvalues    EBANDS =       234.04239530
  atomic energy  EATOM  =      3704.32207507
  Solvation  Ediel_sol  =         0.00000000
  ---------------------------------------------------
  free energy    TOTEN  =       -12.24108560 eV

  energy without entropy =      -12.23176101  energy(sigma->0) =      -12.23797740


--------------------------------------------------------------------------------------------------------




----------------------------------------- Iteration    1(   9)  ---------------------------------------


    POTLOK:  cpu time    0.0031: real time    0.0032
    SETDIJ:  cpu time    0.0020: real time    0.0020
     EDDAV:  cpu time    0.0768: real time    0.0770
       DOS:  cpu time    0.0003: real time    0.0003
    --------------------------------------------
      LOOP:  cpu time    0.0832: real time    0.0850

 eigenvalue-minimisations  :   456
 total energy-change (2. order) : 0.3750822E-04  (-0.8206052E-05)
 number of electron      43.9999805 magnetization 
 augmentation part       16.0428210 magnetization 

 Free energy of the ion-electron system (eV)
  ---------------------------------------------------
  alpha Z        PSCENC =       274.40333328
  Ewald energy   TEWEN  =     -3915.95376942
  -Hartree energ DENC   =      -451.14760440
  -exchange      EXHF   =         0.00000000
  -V(xc)+E(xc)   XCENC  =        60.80228883
  PAW double counting   =      4256.97082967    -4175.61956735
  entropy T*S    EENTRO =        -0.00932459
  eigenvalues    EBANDS =       233.99069081
  atomic energy  EATOM  =      3704.32207507
  Solvation  Ediel_sol  =         0.00000000
  ---------------------------------------------------
  free energy    TOTEN  =       -12.24104809 eV

  energy without entropy =      -12.23172350  energy(sigma->0) =      -12.23793990


--------------------------------------------------------------------------------------------------------




 average (electrostatic) potential at core
  the test charge radii are     1.2098
  (the norm of the test charge is              1.0000)
       1 -64.0333       2 -64.0333       3 -64.0333       4 -64.0333
 
 
 
 E-fermi :   9.5225     XC(G=0): -12.7288     alpha+bet :-13.9847


 k-point     1 :       0.0000    0.0000    0.0000
  band No.  band energies     occupation 
      1      -0.3519      2.00000
      2       2.4589      2.00000
      3       2.4589      2.00000
      4       2.4589      2.00000
      5       2.7827      2.00000
      6       2.7827      2.00000
      7       2.7827      2.00000
      8       4.8588      2.00000
      9       4.8588      2.00000
     10       4.8588      2.00000
     11       6.3854      2.00000
     12       6.3854      2.00000
     13       7.5512      2.00000
     14       7.5512      2.00000
     15       7.5512      2.00000
     16       7.9235      2.00000
     17       7.9235      2.00000
     18       7.9235      2.00000
     19       7.9235      2.00000
     20       7.9235      2.00000
     21       7.9235      2.00000
     22      10.5557     -0.00000
     23      10.5557     -0.00000
     24      10.5557     -0.00000
     25      15.3611      0.00000
     26      15.3611      0.00000
     27      15.3611      0.00000
     28      19.5631      0.00000
     29      19.5631      0.00000
     30      19.5631      0.00000
     31      19.5631      0.00000
     32      19.5631      0.00000
     33      19.5631      0.00000
     34      24.0624      0.00000
     35      26.8021      0.00000
     36      26.8021      0.00000
     37      26.8021      0.00000
     38      28.0767      0.00000
     39      28.0767      0.00000
     40      28.0767      0.00000
     41      29.4259      0.00000
     42      29.4259      0.00000
     43      29.4259      0.00000
     44      32.9962      0.00000
     45      37.0326      0.00000
     46      37.0327      0.00000
     47      37.0329      0.00000
     48      37.6899      0.00000

 k-point     2 :       0.3333    0.0000    0.0000
  band No.  band energies     occupation 
      1       0.8840      2.00000
      2       2.6731      2.00000
      3       3.2034      2.00000
      4       3.2034      2.00000
      5       3.2349      2.00000
      6       3.5013      2.00000
      7       3.5013      2.00000
      8       4.2622      2.00000
      9       5.4319      2.00000
     10       5.4319      2.00000
     11       5.5782      2.00000
     12       5.5782      2.00000
     13       5.7833      2.00000
     14       6.5326      2.00000
     15       6.6555      2.00000
     16       6.6555      2.00000
     17       6.6575      2.00000
     18       6.8977      2.00000
     19       6.8977      2.00000
     20       7.2388      2.00000
     21       7.9249      2.00000
     22       7.9249      2.00000
     23      13.7510      0.00000
     24      13.7510      0.00000
     25      14.5192      0.00000
     26      14.5192      0.00000
     27      17.7597      0.00000
     28      17.7597      0.00000
     29      19.1053      0.00000
     30      19.1053      0.00000
     31      21.7491      0.00000
     32      22.0001      0.00000
     33      22.0001      0.00000
     34      25.5159      0.00000
     35      26.0840      0.00000
     36      26.1046      0.00000
     37      26.6573      0.00000
     38      26.6573      0.00000
     39      28.2143      0.00000
     40      30.6005      0.00000
     41      30.6005      0.00000
     42      31.1674      0.00000
     43      31.1674      0.00000
     44      31.4961      0.00000
     45      34.3409      0.00000
     46      34.3409      0.00000
     47      34.4270      0.00000
     48      34.4270      0.00000

 k-point     3 :       0.3333    0.3333    0.0000
  band No.  band energies     occupation 
      1       1.8945      2.00000
      2       3.3723      2.00000
      3       3.5467      2.00000
      4       3.5467      2.00000
      5       3.7928      2.00000
      6       3.7928      2.00000
      7       4.1869      2.00000
      8       4.2806      2.00000
      9       4.5413      2.00000
     10       4.5413      2.00000
     11       5.0553      2.00000
     12       5.1258      2.00000
     13       5.6083      2.00000
     14       5.8163      2.00000
     15       6.2692      2.00000
     16       6.5400      2.00000
     17       6.5400      2.00000
     18       6.8863      2.00000
     19       6.8863      2.00000
     20       7.1492      2.00000
     21       7.3069      2.00000
     22       9.4716      1.75000
     23       9.4716      1.75000
     24      11.9948     -0.00000
     25      16.0198      0.00000
     26      16.7325      0.00000
     27      18.1142      0.00000
     28      18.1142      0.00000
     29      19.8639      0.00000
     30      19.8639      0.00000
     31      21.6626      0.00000
     32      23.0371      0.00000
     33      23.0371      0.00000
     34      23.5269      0.00000
     35      23.8846      0.00000
     36      26.5645      0.00000
     37      27.7717      0.00000
     38      28.3107      0.00000
     39      29.7711      0.00000
     40      29.7711      0.00000
     41      30.1211      0.00000
     42      30.1211      0.00000
     43      31.9916      0.00000
     44      33.5278      0.00000
     45      34.7954      0.00000
     46      35.1208      0.00000
     47      35.1208      0.00000
     48      35.2870      0.00000

 k-point     4 :       0.3333    0.3333    0.3333
  band No.  band energies     occupation 
      1       2.0565      2.00000
      2       2.8232      2.00000
      3       2.8232      2.00000
      4       2.8232      2.00000
      5       4.4475      2.00000
      6       4.4475      2.00000
      7       4.4475      2.00000
      8       5.0099      2.00000
      9       5.0099      2.00000
     10       5.3975      2.00000
     11       5.3975      2.00000
     12       5.3975      2.00000
     13       5.5125      2.00000
     14       5.5125      2.00000
     15       5.5125      2.00000
     16       5.5809      2.00000
     17       7.0015      2.00000
     18       7.0015      2.00000
     19       7.6402      2.00000
     20       7.6402      2.00000
     21       7.6402      2.00000
     22      10.2239     -0.00000
     23      10.2239     -0.00000
     24      10.2239     -0.00000
     25      13.7036      0.00000
     26      13.7036      0.00000
     27      13.7036      0.00000
     28      17.4534      0.00000
     29      23.1461      0.00000
     30      23.1461      0.00000
     31      23.1461      0.00000
     32      24.4074      0.00000
     33      24.8359      0.00000
     34      24.8359      0.00000
     35      24.8359      0.00000
     36      25.4822      0.00000
     37      25.4822      0.00000
     38      25.4822      0.00000
     39      28.4307      0.00000
     40      28.4307      0.00000
     41      32.7403      0.00000
     42      33.0723      0.00000
     43      33.0723      0.00000
     44      34.7177      0.00000
     45      34.7177      0.00000
     46      34.7177      0.00000
     47      35.3756      0.00000
     48      35.3756      0.00000


--------------------------------------------------------------------------------------------------------


 soft charge-density along one line, spin component           1
         0         1         2         3         4         5         6         7         8         9
 total charge-density along one line
 
 pseudopotential strength for first ion, spin component:           1
 -3.699  -0.000   0.000  -0.000   0.000  -3.942  -0.000   0.000
 -0.000  -3.699   0.000  -0.000   0.000  -0.000  -3.942   0.000
  0.000   0.000  -3.686  -0.000  -0.000   0.000   0.000  -3.929
 -0.000  -0.000  -0.000  -3.699  -0.000  -0.000  -0.000  -0.000
  0.000   0.000  -0.000  -0.000  -3.686   0.000   0.000  -0.000
 -3.942  -0.000   0.000  -0.000   0.000  -4.167  -0.000   0.000
 -0.000  -3.942   0.000  -0.000   0.000  -0.000  -4.167   0.000
  0.000   0.000  -3.929  -0.000  -0.000   0.000   0.000  -4.155
 -0.000  -0.000  -0.000  -3.942  -0.000  -0.000  -0.000  -0.000
  0.000   0.000  -0.000  -0.000  -3.929   0.000   0.000  -0.000
  0.000   0.000   0.000   0.000  -0.000   0.000   0.000   0.000
  0.000   0.000   0.000   0.000  -0.000   0.000   0.000   0.000
  0.000   0.000   0.000   0.000   0.000   0.000   0.000   0.000
  0.000  -0.000   0.000   0.000   0.000   0.000  -0.000   0.000
 -0.000   0.000  -0.000   0.000  -0.000  -0.000   0.000  -0.000
 -0.000   0.000   0.000   0.000   0.000  -0.000   0.000   0.000
  0.000  -0.000   0.000  -0.000   0.000   0.000  -0.000   0.000
 -0.000   0.000  -0.000   0.000  -0.000  -0.000   0.000  -0.000
 total augmentation occupancy for first ion, spin component:           1
  5.256   0.000   0.000   0.000   0.000  -3.241   0.000   0.000   0.000  -0.000  -0.000  -0.000   0.000   0.000   0.000   0.000
  0.000   5.256   0.000   0.000   0.000  -0.000  -3.241   0.000  -0.000  -0.000  -0.000   0.000   0.000   0.000   0.000   0.000
  0.000  -0.000   4.781  -0.000  -0.000  -0.000  -0.000  -2.597   0.000  -0.000   0.000  -0.000  -0.000  -0.000   0.000   0.000
 -0.000   0.000  -0.000   5.256  -0.000  -0.000  -0.000   0.000  -3.241   0.000   0.000  -0.000   0.000   0.000   0.000  -0.000
  0.000   0.000  -0.000  -0.000   4.781   0.000  -0.000  -0.000   0.000  -2.597  -0.000   0.000  -0.000  -0.000   0.000   0.000
 -3.241  -0.000  -0.000  -0.000  -0.000   3.143  -0.000  -0.000   0.000  -0.000   0.000   0.000   0.000   0.000   0.000  -0.000
  0.000  -3.241  -0.000  -0.000  -0.000  -0.000   3.143  -0.000   0.000  -0.000   0.000   0.000  -0.000  -0.000   0.000  -0.000
  0.000   0.000  -2.597   0.000   0.000  -0.000   0.000   2.375   0.000  -0.000   0.000  -0.000  -0.000   0.000  -0.000  -0.000
  0.000  -0.000  -0.000  -3.241  -0.000   0.000   0.000  -0.000   3.143  -0.000   0.000  -0.000  -0.000  -0.000  -0.000   0.000
 -0.000  -0.000  -0.000   0.000  -2.597   0.000   0.000  -0.000  -0.000   2.375   0.000   0.000  -0.000   0.000   0.000   0.000
 -0.000  -0.000   0.000  -0.000   0.000   0.000  -0.000   0.000   0.000  -0.000   2.712  -0.724   0.000  -0.000   0.000   0.000
 -0.000   0.000  -0.000  -0.000  -0.000   0.000  -0.000   0.000  -0.000  -0.000  -0.724   0.258  -0.000   0.000   0.000  -0.000
  0.000  -0.000   0.000   0.000  -0.000   0.000   0.000   0.000   0.000   0.000   0.000   0.000   0.182  -0.000  -0.000  -0.006
  0.000   0.000   0.000  -0.000   0.000   0.000  -0.000   0.000   0.000  -0.000   0.000   0.000  -0.000   0.182   0.000  -0.000
  0.000  -0.000  -0.000   0.000  -0.000   0.000  -0.000   0.000   0.000   0.000   0.000  -0.000  -0.000  -0.000   0.182  -0.000
  0.000  -0.000   0.000  -0.000  -0.000   0.000   0.000  -0.000   0.000  -0.000   0.000  -0.000  -0.006  -0.000  -0.000   0.000
 -0.000   0.000   0.000   0.000  -0.000   0.000   0.000  -0.000  -0.000  -0.000   0.000   0.000  -0.000  -0.006   0.000   0.000
  0.000   0.000   0.000   0.000   0.000   0.000  -0.000   0.000   0.000   0.000   0.000   0.000   0.000   0.000  -0.006   0.000


------------------------ aborting loop because EDIFF is reached ----------------------------------------


    CHARGE:  cpu time    0.0042: real time    0.0042
    FORLOC:  cpu time    0.0001: real time    0.0001
    FORNL :  cpu time    0.0110: real time    0.0110
    STRESS:  cpu time    0.0302: real time    0.0303
    FORCOR:  cpu time    0.0030: real time    0.0030
    FORHAR:  cpu time    0.0007: real time    0.0007
    MIXING:  cpu time    0.0002: real time    0.0002
    OFIELD:  cpu time    0.0000: real time    0.0000

  FORCE on cell =-STRESS in cart. coord.  units (eV):
  Direction    XX          YY          ZZ          XY          YZ          ZX
  --------------------------------------------------------------------------------------
  Alpha Z   274.40333   274.40333   274.40333
  Ewald   -1305.31850 -1305.31850 -1305.31850     0.00000     0.00000     0.00000
  Hartree   150.37263   150.37263   150.37263    -0.00000    -0.00000    -0.00000
  E(xc)    -199.09316  -199.09316  -199.09316     0.00000    -0.00000    -0.00000
  Local     195.05900   195.05900   195.05900    -0.00000    -0.00000     0.00000
  n-local    17.58936     5.51035    -9.84237    -1.64595     5.83581     5.83580
  augment   270.22412   270.22412   270.22412    -0.00000     0.00000    -0.00000
  Kinetic   618.59662   619.04758   608.05827    -9.48303    -2.49572    -2.49570
  Fock        0.00000     0.00000     0.00000     0.00000     0.00000     0.00000
  -------------------------------------------------------------------------------------
  Total       5.30069     5.30069     5.30069     0.00000    -0.00000     0.00000
  in kB     125.04393   125.04393   125.04393     0.00000    -0.00000     0.00000
  external pressure =      125.04 kB  Pullay stress =        0.00 kB


 VOLUME and BASIS-vectors are now :
 -----------------------------------------------------------------------------
  energy-cutoff  :      400.00
  volume of cell :       67.92
      direct lattice vectors                 reciprocal lattice vectors
     4.080000000  0.000000000  0.000000000     0.245098039  0.000000000  0.000000000
     0.000000000  4.080000000  0.000000000     0.000000000  0.245098039  0.000000000
     0.000000000  0.000000000  4.080000000     0.000000000  0.000000000  0.245098039

  length of vectors
     4.080000000  4.080000000  4.080000000     0.245098039  0.245098039  0.245098039


 FORCES acting on ions
    electron-ion (+dipol)            ewald-force                    non-local-force                 convergence-correction
 -----------------------------------------------------------------------------------------------
   0.196E-13 0.338E-13 -.598E-14   0.688E-15 0.184E-14 -.914E-14   0.662E-23 0.265E-22 0.265E-22   -.309E-14 -.865E-14 0.174E-13
   0.191E-13 -.329E-13 -.731E-13   0.177E-16 -.398E-14 0.423E-14   0.331E-22 -.728E-22 -.265E-22   -.249E-14 0.227E-13 -.190E-13
   -.409E-13 0.356E-13 0.451E-12   -.282E-15 0.227E-14 0.435E-14   0.000E+00 -.265E-22 -.463E-22   -.205E-14 -.733E-14 -.506E-13
   -.410E-13 -.196E-13 -.416E-12   -.952E-15 -.355E-14 0.484E-16   0.000E+00 -.265E-22 -.662E-23   -.491E-14 0.286E-13 0.425E-13
 -----------------------------------------------------------------------------------------------
   -.431E-13 0.169E-13 -.448E-13   -.528E-15 -.343E-14 -.507E-15   0.397E-22 -.993E-22 -.529E-22   -.125E-13 0.354E-13 -.972E-14
 
 
 POSITION                                       TOTAL-FORCE (eV/Angst)
 -----------------------------------------------------------------------------------
      0.00000      0.00000      0.00000        -0.000000     -0.000000     -0.000000
      0.00000      2.04000      2.04000         0.000000      0.000000      0.000000
      2.04000      0.00000      2.04000         0.000000     -0.000000     -0.000000
      2.04000      2.04000      0.00000        -0.000000     -0.000000      0.000000
 -----------------------------------------------------------------------------------
    total drift:                               -0.000000      0.000000     -0.000000


--------------------------------------------------------------------------------------------------------



  FREE ENERGIE OF THE ION-ELECTRON SYSTEM (eV)
  ---------------------------------------------------
  free  energy   TOTEN  =       -12.24104809 eV

  energy  without entropy=      -12.23172350  energy(sigma->0) =      -12.23793990
 


--------------------------------------------------------------------------------------------------------


    POTLOK:  cpu time    0.0051: real time    0.0051


--------------------------------------------------------------------------------------------------------


     LOOP+:  cpu time   10.8024: real time   11.3421
    4ORBIT:  cpu time    0.0000: real time    0.0000

 total amount of memory used by VASP on root node    31660. kBytes
========================================================================

   base      :      30000. kBytes
   nonl-proj :        798. kBytes
   fftplans  :        147. kBytes
   grid      :        485. kBytes
   one-center:         62. kBytes
   wavefun   :        168. kBytes
 
  
  
 General timing and accounting informations for this job:
 ========================================================
  
                  Total CPU time used (sec):       20.086
                            User time (sec):       19.967
                          System time (sec):        0.119
                         Elapsed time (sec):       20.831
  
                   Maximum memory used (kb):       36128.
                   Average memory used (kb):           0.
  
                          Minor page faults:        14348
                          Major page faults:           10
                 Voluntary context switches:         1536
