<?xml version="1.0" encoding="ISO-8859-1"?>
<modeling>
 <generator>
  <i name="program" type="string">vasp </i>
  <i name="version" type="string">5.4.1  </i>
  <i name="subversion" type="string">05Feb16 (build Feb 08 2018 09:21:51) complex                          parallel </i>
  <i name="platform" type="string">LinuxIFC </i>
  <i name="date" type="string">2019 11 21 </i>
  <i name="time" type="string">13:19:09 </i>
 </generator>
 <incar>
  <i type="string" name="PREC">normal</i>
  <i name="ENCUT">    400.00000000</i>
  <i type="int" name="ISMEAR">     1</i>
  <i name="SIGMA">      0.10000000</i>
  <i type="logical" name="LWAVE"> F  </i>
  <i type="logical" name="LCHARG"> F  </i>
  <v type="int" name="KPOINT_BSE">    -1     0     0     0</v>
 </incar>
 <kpoints>
  <generation param="Monkhorst-Pack">
   <v type="int" name="divisions">       3        3        3 </v>
   <v name="usershift">      0.00000000       0.00000000       0.00000000 </v>
   <v name="genvec1">      0.33333333       0.00000000       0.00000000 </v>
   <v name="genvec2">      0.00000000       0.33333333       0.00000000 </v>
   <v name="genvec3">      0.00000000       0.00000000       0.33333333 </v>
   <v name="shift">      0.00000000       0.00000000       0.00000000 </v>
  </generation>
  <varray name="kpointlist" >
   <v>       0.00000000       0.00000000       0.00000000 </v>
   <v>       0.33333333       0.00000000       0.00000000 </v>
   <v>       0.33333333       0.33333333       0.00000000 </v>
   <v>       0.33333333       0.33333333       0.33333333 </v>
  </varray>
  <varray name="weights" >
   <v>       0.03703704 </v>
   <v>       0.22222222 </v>
   <v>       0.44444444 </v>
   <v>       0.29629630 </v>
  </varray>
 </kpoints>
 <parameters>
  <separator name="general" >
   <i type="string" name="SYSTEM">unknown system</i>
   <i type="logical" name="LCOMPAT"> F  </i>
  </separator>
  <separator name="electronic" >
   <i type="string" name="PREC">normal</i>
   <i name="ENMAX">    400.00000000</i>
   <i name="ENAUG">    356.67000000</i>
   <i name="EDIFF">      0.00010000</i>
   <i type="int" name="IALGO">    38</i>
   <i type="int" name="IWAVPR">    10</i>
   <i type="int" name="NBANDS">    48</i>
   <i name="NELECT">     44.00000000</i>
   <i type="int" name="TURBO">     0</i>
   <i type="int" name="IRESTART">     0</i>
   <i type="int" name="NREBOOT">     0</i>
   <i type="int" name="NMIN">     0</i>
   <i name="EREF">      0.00000000</i>
   <separator name="electronic smearing" >
    <i type="int" name="ISMEAR">     1</i>
    <i name="SIGMA">      0.10000000</i>
    <i name="KSPACING">      0.50000000</i>
    <i type="logical" name="KGAMMA"> T  </i>
   </separator>
   <separator name="electronic projectors" >
    <i type="logical" name="LREAL"> F  </i>
    <v name="ROPT">      0.00000000</v>
    <i type="int" name="LMAXPAW">  -100</i>
    <i type="int" name="LMAXMIX">     2</i>
    <i type="logical" name="NLSPLINE"> F  </i>
   </separator>
   <separator name="electronic startup" >
    <i type="int" name="ISTART">     0</i>
    <i type="int" name="ICHARG">     2</i>
    <i type="int" name="INIWAV">     1</i>
   </separator>
   <separator name="electronic spin" >
    <i type="int" name="ISPIN">     1</i>
    <i type="logical" name="LNONCOLLINEAR"> F  </i>
    <v name="MAGMOM">      1.00000000      1.00000000      1.00000000      1.00000000</v>
    <i name="NUPDOWN">     -1.00000000</i>
    <i type="logical" name="LSORBIT"> F  </i>
    <v name="SAXIS">      0.00000000      0.00000000      1.00000000</v>
    <i type="logical" name="LSPIRAL"> F  </i>
    <v name="QSPIRAL">      0.00000000      0.00000000      0.00000000</v>
    <i type="logical" name="LZEROZ"> F  </i>
   </separator>
   <separator name="electronic exchange-correlation" >
    <i type="logical" name="LASPH"> F  </i>
    <i type="logical" name="LMETAGGA"> F  </i>
   </separator>
   <separator name="electronic convergence" >
    <i type="int" name="NELM">    60</i>
    <i type="int" name="NELMDL">    -5</i>
    <i type="int" name="NELMIN">     2</i>
    <i name="ENINI">    400.00000000</i>
    <separator name="electronic convergence detail" >
     <i type="logical" name="LDIAG"> T  </i>
     <i type="logical" name="LSUBROT"> F  </i>
     <i name="WEIMIN">      0.00000000</i>
     <i name="EBREAK">      0.00000052</i>
     <i name="DEPER">      0.30000000</i>
     <i type="int" name="NRMM">     4</i>
     <i name="TIME">      0.40000000</i>
    </separator>
   </separator>
   <separator name="electronic mixer" >
    <i name="AMIX">      0.40000000</i>
    <i name="BMIX">      1.00000000</i>
    <i name="AMIN">      0.10000000</i>
    <i name="AMIX_MAG">      1.60000000</i>
    <i name="BMIX_MAG">      1.00000000</i>
    <separator name="electronic mixer details" >
     <i type="int" name="IMIX">     4</i>
     <i type="logical" name="MIXFIRST"> F  </i>
     <i type="int" name="MAXMIX">   -45</i>
     <i name="WC">    100.00000000</i>
     <i type="int" name="INIMIX">     1</i>
     <i type="int" name="MIXPRE">     1</i>
     <i type="int" name="MREMOVE">     5</i>
    </separator>
   </separator>
   <separator name="electronic dipolcorrection" >
    <i type="logical" name="LDIPOL"> F  </i>
    <i type="logical" name="LMONO"> F  </i>
    <i type="int" name="IDIPOL">     0</i>
    <i name="EPSILON">      1.00000000</i>
    <v name="DIPOL">   -100.00000000   -100.00000000   -100.00000000</v>
    <i name="EFIELD">      0.00000000</i>
   </separator>
  </separator>
  <separator name="grids" >
   <i type="int" name="NGX">    20</i>
   <i type="int" name="NGY">    20</i>
   <i type="int" name="NGZ">    20</i>
   <i type="int" name="NGXF">    40</i>
   <i type="int" name="NGYF">    40</i>
   <i type="int" name="NGZF">    40</i>
   <i type="logical" name="ADDGRID"> F  </i>
  </separator>
  <separator name="ionic" >
   <i type="int" name="NSW">     0</i>
   <i type="int" name="IBRION">    -1</i>
   <i type="int" name="ISIF">     2</i>
   <i name="PSTRESS">      0.00000000</i>
   <i name="EDIFFG">      0.00100000</i>
   <i type="int" name="NFREE">     0</i>
   <i name="POTIM">      0.50000000</i>
   <i name="SMASS">     -3.00000000</i>
   <i name="SCALEE">      1.00000000</i>
  </separator>
  <separator name="ionic md" >
   <i name="TEBEG">      0.00010000</i>
   <i name="TEEND">      0.00010000</i>
   <i type="int" name="NBLOCK">     1</i>
   <i type="int" name="KBLOCK">     1</i>
   <i type="int" name="NPACO">   256</i>
   <i name="APACO">     16.00000000</i>
  </separator>
  <separator name="symmetry" >
   <i type="int" name="ISYM">     2</i>
   <i name="SYMPREC">      0.00001000</i>
  </separator>
  <separator name="dos" >
   <i type="logical" name="LORBIT"> F  </i>
   <v name="RWIGS">     -1.00000000</v>
   <i type="int" name="NEDOS">   301</i>
   <i name="EMIN">     10.00000000</i>
   <i name="EMAX">    -10.00000000</i>
   <i name="EFERMI">      0.00000000</i>
  </separator>
  <separator name="writing" >
   <i type="int" name="NWRITE">     2</i>
   <i type="logical" name="LWAVE"> F  </i>
   <i type="logical" name="LCHARG"> F  </i>
   <i type="logical" name="LPARD"> F  </i>
   <i type="logical" name="LVTOT"> F  </i>
   <i type="logical" name="LVHAR"> F  </i>
   <i type="logical" name="LELF"> F  </i>
   <i type="logical" name="LOPTICS"> F  </i>
   <v name="STM">      0.00000000      0.00000000      0.00000000      0.00000000      0.00000000      0.00000000      0.00000000</v>
  </separator>
  <separator name="performance" >
   <i type="int" name="NPAR">    24</i>
   <i type="int" name="NSIM">     4</i>
   <i type="int" name="NBLK">    -1</i>
   <i type="logical" name="LPLANE"> T  </i>
   <i type="logical" name="LSCALAPACK"> F  </i>
   <i type="logical" name="LSCAAWARE"> F  </i>
   <i type="logical" name="LSCALU"> F  </i>
   <i type="logical" name="LASYNC"> F  </i>
   <i type="logical" name="LORBITALREAL"> F  </i>
  </separator>
  <separator name="miscellaneous" >
   <i type="int" name="IDIOT">     3</i>
   <i type="logical" name="LMUSIC"> F  </i>
   <v name="POMASS">    196.96600000</v>
   <v name="DARWINR">      0.00000000</v>
   <v name="DARWINV">      1.00000000</v>
   <i type="logical" name="LCORR"> T  </i>
  </separator>
  <i type="logical" name="GGA_COMPAT"> T  </i>
  <i type="logical" name="LBERRY"> F  </i>
  <i type="int" name="ICORELEVEL">     0</i>
  <i type="logical" name="LDAU"> F  </i>
  <i type="int" name="I_CONSTRAINED_M">     0</i>
  <separator name="electronic exchange-correlation" >
   <i type="string" name="GGA">--</i>
   <i type="int" name="VOSKOWN">     0</i>
   <i type="logical" name="LHFCALC"> F  </i>
   <i type="string" name="PRECFOCK"></i>
   <i type="logical" name="LSYMGRAD"> F  </i>
   <i type="logical" name="LHFONE"> F  </i>
   <i type="logical" name="LRHFCALC"> F  </i>
   <i type="logical" name="LTHOMAS"> F  </i>
   <i type="logical" name="LMODELHF"> F  </i>
   <i name="ENCUT4O">     -1.00000000</i>
   <i type="int" name="EXXOEP">     0</i>
   <i type="int" name="FOURORBIT">     0</i>
   <i name="AEXX">      0.00000000</i>
   <i name="HFALPHA">      0.00000000</i>
   <i name="MCALPHA">      0.00000000</i>
   <i name="ALDAX">      1.00000000</i>
   <i name="AGGAX">      1.00000000</i>
   <i name="ALDAC">      1.00000000</i>
   <i name="AGGAC">      1.00000000</i>
   <i type="int" name="NKREDX">     1</i>
   <i type="int" name="NKREDY">     1</i>
   <i type="int" name="NKREDZ">     1</i>
   <i type="logical" name="SHIFTRED"> F  </i>
   <i type="logical" name="ODDONLY"> F  </i>
   <i type="logical" name="EVENONLY"> F  </i>
   <i type="int" name="LMAXFOCK">     0</i>
   <i type="int" name="NMAXFOCKAE">     0</i>
   <i type="logical" name="LFOCKAEDFT"> F  </i>
   <i name="HFSCREEN">      0.00000000</i>
   <i name="HFSCREENC">      0.00000000</i>
   <i type="int" name="NBANDSGWLOW">     0</i>
  </separator>
  <separator name="vdW DFT" >
   <i type="logical" name="LUSE_VDW"> F  </i>
   <i name="Zab_VDW">     -0.84910000</i>
   <i name="PARAM1">      0.12340000</i>
   <i name="PARAM2">      1.00000000</i>
   <i name="PARAM3">      0.00000000</i>
  </separator>
  <separator name="model GW" >
   <i type="int" name="MODEL_GW">     0</i>
   <i name="MODEL_EPS0">     10.18759680</i>
   <i name="MODEL_ALPHA">      1.00000000</i>
  </separator>
  <separator name="linear response parameters" >
   <i type="logical" name="LEPSILON"> F  </i>
   <i type="logical" name="LRPA"> F  </i>
   <i type="logical" name="LNABLA"> F  </i>
   <i type="logical" name="LVEL"> F  </i>
   <i type="int" name="KINTER">     0</i>
   <i name="CSHIFT">      0.10000000</i>
   <i name="OMEGAMAX">     -1.00000000</i>
   <i name="DEG_THRESHOLD">      0.00200000</i>
  </separator>
  <separator name="orbital magnetization" >
   <i type="logical" name="NUCIND"> F  </i>
   <v name="MAGPOS">      0.00000000      0.00000000      0.00000000</v>
   <i type="logical" name="LNICSALL"> T  </i>
   <i type="logical" name="ORBITALMAG"> F  </i>
   <i type="logical" name="LMAGBLOCH"> F  </i>
   <i type="logical" name="LCHIMAG"> F  </i>
   <i type="logical" name="LGAUGE"> T  </i>
   <i type="int" name="MAGATOM">     0</i>
   <v name="MAGDIPOL">      0.00000000      0.00000000      0.00000000</v>
   <v name="AVECCONST">      0.00000000      0.00000000      0.00000000</v>
  </separator>
  <separator name="response functions" >
   <i type="logical" name="LADDER"> F  </i>
   <i type="logical" name="LFXC"> F  </i>
   <i type="logical" name="LHARTREE"> T  </i>
   <i type="int" name="IBSE">     0</i>
   <v type="int" name="KPOINT">    -1     0     0     0</v>
   <i type="logical" name="LTCTE"> F  </i>
   <i type="logical" name="LTETE"> F  </i>
   <i type="logical" name="LTRIPLET"> F  </i>
   <i type="logical" name="LFXCEPS"> F  </i>
   <i type="logical" name="LFXHEG"> F  </i>
   <i type="int" name="NATURALO">     0</i>
   <i type="logical" name="L2ORDER"> F  </i>
   <i type="logical" name="LUSEW"> F  </i>
   <i name="ENCUTGW">     -2.00000000</i>
   <i name="ENCUTGWSOFT">     -2.00000000</i>
   <i name="ENCUTLF">     -1.00000000</i>
   <i type="int" name="LMAXMP2">    -1</i>
   <i name="SCISSOR">      0.00000000</i>
   <i type="int" name="NOMEGA">     0</i>
   <i type="int" name="NOMEGAR">     0</i>
   <i type="int" name="NBANDSGW">    -1</i>
   <i type="int" name="NBANDSO">    -1</i>
   <i type="int" name="NBANDSV">    -1</i>
   <i type="int" name="NELM">     1</i>
   <i type="int" name="NELMHF">     1</i>
   <i type="int" name="DIM">     3</i>
   <i type="int" name="ANTIRES">     0</i>
   <i name="OMEGAMAX">    -30.00000000</i>
   <i name="OMEGAMIN">    -30.00000000</i>
   <i name="OMEGATL">   -200.00000000</i>
   <i type="int" name="OMEGAGRID">     0</i>
   <i name="CSHIFT">     -0.10000000</i>
   <i type="logical" name="SELFENERGY"> F  </i>
   <i type="logical" name="LSPECTRAL"> F  </i>
   <i type="logical" name="LSPECTRALGW"> F  </i>
   <i type="logical" name="LSINGLES"> F  </i>
   <i type="logical" name="LFERMIGW"> F  </i>
   <i type="logical" name="ODDONLYGW"> F  </i>
   <i type="logical" name="EVENONLYGW"> F  </i>
   <i type="int" name="NKREDLFX">     1</i>
   <i type="int" name="NKREDLFY">     1</i>
   <i type="int" name="NKREDLFZ">     1</i>
   <i type="int" name="MAXMEM">  1800</i>
   <i type="int" name="TELESCOPE">     0</i>
   <i type="int" name="TAUPAR">     1</i>
   <i type="int" name="OMEGAPAR">    -1</i>
   <i name="LAMBDA">      1.00000000</i>
  </separator>
  <separator name="External order field" >
   <i name="OFIELD_KAPPA">      0.00000000</i>
   <v name="OFIELD_K">      0.00000000      0.00000000      0.00000000</v>
   <i name="OFIELD_Q6_NEAR">      0.00000000</i>
   <i name="OFIELD_Q6_FAR">      0.00000000</i>
   <i name="OFIELD_A">      0.00000000</i>
  </separator>
 </parameters>
 <atominfo>
  <atoms>       4 </atoms>
  <types>       1 </types>
  <array name="atoms" >
   <dimension dim="1">ion</dimension>
   <field type="string">element</field>
   <field type="int">atomtype</field>
   <set>
    <rc><c>Au</c><c>   1</c></rc>
    <rc><c>Au</c><c>   1</c></rc>
    <rc><c>Au</c><c>   1</c></rc>
    <rc><c>Au</c><c>   1</c></rc>
   </set>
  </array>
  <array name="atomtypes" >
   <dimension dim="1">type</dimension>
   <field type="int">atomspertype</field>
   <field type="string">element</field>
   <field>mass</field>
   <field>valence</field>
   <field type="string">pseudopotential</field>
   <set>
    <rc><c>   4</c><c>Au</c><c>    196.96600000</c><c>     11.00000000</c><c>  PAW_PBE Au 04Oct2007                  </c></rc>
   </set>
  </array>
 </atominfo>
 <structure name="initialpos" >
  <crystal>
   <varray name="basis" >
    <v>       4.08000000       0.00000000       0.00000000 </v>
    <v>       0.00000000       4.08000000       0.00000000 </v>
    <v>       0.00000000       0.00000000       4.08000000 </v>
   </varray>
   <i name="volume">     67.91731200 </i>
   <varray name="rec_basis" >
    <v>       0.24509804       0.00000000       0.00000000 </v>
    <v>       0.00000000       0.24509804       0.00000000 </v>
    <v>       0.00000000       0.00000000       0.24509804 </v>
   </varray>
  </crystal>
  <varray name="positions" >
   <v>       0.00000000       0.00000000       0.00000000 </v>
   <v>       0.00000000       0.50000000       0.50000000 </v>
   <v>       0.50000000       0.00000000       0.50000000 </v>
   <v>       0.50000000       0.50000000       0.00000000 </v>
  </varray>
 </structure>
 <calculation>
  <scstep>
   <time name="dav">    6.47    6.96</time>
   <time name="total">    8.07    8.57</time>
   <energy>
    <i name="alphaZ">    274.40333328 </i>
    <i name="ewald">  -3915.95376942 </i>
    <i name="hartreedc">   -494.00614683 </i>
    <i name="XCdc">     62.70648169 </i>
    <i name="pawpsdc">   3496.39001341 </i>
    <i name="pawaedc">  -3404.04053930 </i>
    <i name="eentropy">      0.00079368 </i>
    <i name="bandstr">    466.06257623 </i>
    <i name="atom">   3704.32207507 </i>
    <i name="e_fr_energy">    189.88481782 </i>
    <i name="e_wo_entrp">    189.88402413 </i>
    <i name="e_0_energy">    189.88455326 </i>
   </energy>
  </scstep>
  <scstep>
   <time name="dav">    2.01    2.02</time>
   <time name="total">    2.04    2.05</time>
   <energy>
    <i name="e_fr_energy">    -10.74401227 </i>
    <i name="e_wo_entrp">    -10.73646568 </i>
    <i name="e_0_energy">    -10.74149674 </i>
   </energy>
  </scstep>
  <scstep>
   <time name="dav">    0.09    0.09</time>
   <time name="total">    0.09    0.09</time>
   <energy>
    <i name="e_fr_energy">    -13.21101939 </i>
    <i name="e_wo_entrp">    -13.20169488 </i>
    <i name="e_0_energy">    -13.20791122 </i>
   </energy>
  </scstep>
  <scstep>
   <time name="dav">    0.07    0.07</time>
   <time name="total">    0.07    0.07</time>
   <energy>
    <i name="e_fr_energy">    -13.22100224 </i>
    <i name="e_wo_entrp">    -13.21167766 </i>
    <i name="e_0_energy">    -13.21789405 </i>
   </energy>
  </scstep>
  <scstep>
   <time name="dav">    0.09    0.09</time>
   <time name="total">    0.10    0.10</time>
   <energy>
    <i name="e_fr_energy">    -13.22109151 </i>
    <i name="e_wo_entrp">    -13.21176693 </i>
    <i name="e_0_energy">    -13.21798332 </i>
   </energy>
  </scstep>
  <scstep>
   <time name="dav">    0.07    0.07</time>
   <time name="total">    0.09    0.09</time>
   <energy>
    <i name="e_fr_energy">    -12.32790938 </i>
    <i name="e_wo_entrp">    -12.31858479 </i>
    <i name="e_0_energy">    -12.32480118 </i>
   </energy>
  </scstep>
  <scstep>
   <time name="dav">    0.08    0.09</time>
   <time name="total">    0.10    0.11</time>
   <energy>
    <i name="e_fr_energy">    -12.25059957 </i>
    <i name="e_wo_entrp">    -12.24127498 </i>
    <i name="e_0_energy">    -12.24749137 </i>
   </energy>
  </scstep>
  <scstep>
   <time name="dav">    0.08    0.08</time>
   <time name="total">    0.09    0.09</time>
   <energy>
    <i name="e_fr_energy">    -12.24108560 </i>
    <i name="e_wo_entrp">    -12.23176101 </i>
    <i name="e_0_energy">    -12.23797740 </i>
   </energy>
  </scstep>
  <scstep>
   <time name="dav">    0.08    0.08</time>
   <time name="total">    0.08    0.09</time>
   <energy>
    <i name="alphaZ">    274.40333328 </i>
    <i name="ewald">  -3915.95376942 </i>
    <i name="hartreedc">   -451.14760440 </i>
    <i name="XCdc">     60.80228883 </i>
    <i name="pawpsdc">   4256.97082967 </i>
    <i name="pawaedc">  -4175.61956735 </i>
    <i name="eentropy">     -0.00932459 </i>
    <i name="bandstr">    233.99069081 </i>
    <i name="atom">   3704.32207507 </i>
    <i name="e_fr_energy">    -12.24104809 </i>
    <i name="e_wo_entrp">    -12.23172350 </i>
    <i name="e_0_energy">    -12.23793990 </i>
   </energy>
  </scstep>
  <structure>
   <crystal>
    <varray name="basis" >
     <v>       4.08000000       0.00000000       0.00000000 </v>
     <v>       0.00000000       4.08000000       0.00000000 </v>
     <v>       0.00000000       0.00000000       4.08000000 </v>
    </varray>
    <i name="volume">     67.91731200 </i>
    <varray name="rec_basis" >
     <v>       0.24509804       0.00000000       0.00000000 </v>
     <v>       0.00000000       0.24509804       0.00000000 </v>
     <v>       0.00000000       0.00000000       0.24509804 </v>
    </varray>
   </crystal>
   <varray name="positions" >
    <v>       0.00000000       0.00000000       0.00000000 </v>
    <v>       0.00000000       0.50000000       0.50000000 </v>
    <v>       0.50000000       0.00000000       0.50000000 </v>
    <v>       0.50000000       0.50000000       0.00000000 </v>
   </varray>
  </structure>
  <varray name="forces" >
   <v>      -0.00000000      -0.00000000      -0.00000000 </v>
   <v>       0.00000000       0.00000000       0.00000000 </v>
   <v>       0.00000000      -0.00000000      -0.00000000 </v>
   <v>      -0.00000000      -0.00000000       0.00000000 </v>
  </varray>
  <varray name="stress" >
   <v>     125.04392990       0.00000000       0.00000000 </v>
   <v>       0.00000000     125.04392990       0.00000000 </v>
   <v>       0.00000000      -0.00000000     125.04392990 </v>
  </varray>
  <energy>
   <i name="e_fr_energy">    -12.24104809 </i>
   <i name="e_wo_entrp">    -12.23793990 </i>
   <i name="e_0_energy">     -0.00932459 </i>
  </energy>
  <time name="totalsc">   10.80   11.34</time>
  <eigenvalues>
   <array>
    <dimension dim="1">band</dimension>
    <dimension dim="2">kpoint</dimension>
    <dimension dim="3">spin</dimension>
    <field>eigene</field>
    <field>occ</field>
    <set>
     <set comment="spin 1">
      <set comment="kpoint 1">
       <r>   -0.3519    1.0000 </r>
       <r>    2.4589    1.0000 </r>
       <r>    2.4589    1.0000 </r>
       <r>    2.4589    1.0000 </r>
       <r>    2.7827    1.0000 </r>
       <r>    2.7827    1.0000 </r>
       <r>    2.7827    1.0000 </r>
       <r>    4.8588    1.0000 </r>
       <r>    4.8588    1.0000 </r>
       <r>    4.8588    1.0000 </r>
       <r>    6.3854    1.0000 </r>
       <r>    6.3854    1.0000 </r>
       <r>    7.5512    1.0000 </r>
       <r>    7.5512    1.0000 </r>
       <r>    7.5512    1.0000 </r>
       <r>    7.9235    1.0000 </r>
       <r>    7.9235    1.0000 </r>
       <r>    7.9235    1.0000 </r>
       <r>    7.9235    1.0000 </r>
       <r>    7.9235    1.0000 </r>
       <r>    7.9235    1.0000 </r>
       <r>   10.5557   -0.0000 </r>
       <r>   10.5557   -0.0000 </r>
       <r>   10.5557   -0.0000 </r>
       <r>   15.3611    0.0000 </r>
       <r>   15.3611    0.0000 </r>
       <r>   15.3611    0.0000 </r>
       <r>   19.5631    0.0000 </r>
       <r>   19.5631    0.0000 </r>
       <r>   19.5631    0.0000 </r>
       <r>   19.5631    0.0000 </r>
       <r>   19.5631    0.0000 </r>
       <r>   19.5631    0.0000 </r>
       <r>   24.0624    0.0000 </r>
       <r>   26.8021    0.0000 </r>
       <r>   26.8021    0.0000 </r>
       <r>   26.8021    0.0000 </r>
       <r>   28.0767    0.0000 </r>
       <r>   28.0767    0.0000 </r>
       <r>   28.0767    0.0000 </r>
       <r>   29.4259    0.0000 </r>
       <r>   29.4259    0.0000 </r>
       <r>   29.4259    0.0000 </r>
       <r>   32.9962    0.0000 </r>
       <r>   37.0326    0.0000 </r>
       <r>   37.0327    0.0000 </r>
       <r>   37.0329    0.0000 </r>
       <r>   37.6899    0.0000 </r>
      </set>
      <set comment="kpoint 2">
       <r>    0.8840    1.0000 </r>
       <r>    2.6731    1.0000 </r>
       <r>    3.2034    1.0000 </r>
       <r>    3.2034    1.0000 </r>
       <r>    3.2349    1.0000 </r>
       <r>    3.5013    1.0000 </r>
       <r>    3.5013    1.0000 </r>
       <r>    4.2622    1.0000 </r>
       <r>    5.4319    1.0000 </r>
       <r>    5.4319    1.0000 </r>
       <r>    5.5782    1.0000 </r>
       <r>    5.5782    1.0000 </r>
       <r>    5.7833    1.0000 </r>
       <r>    6.5326    1.0000 </r>
       <r>    6.6555    1.0000 </r>
       <r>    6.6555    1.0000 </r>
       <r>    6.6575    1.0000 </r>
       <r>    6.8977    1.0000 </r>
       <r>    6.8977    1.0000 </r>
       <r>    7.2388    1.0000 </r>
       <r>    7.9249    1.0000 </r>
       <r>    7.9249    1.0000 </r>
       <r>   13.7510    0.0000 </r>
       <r>   13.7510    0.0000 </r>
       <r>   14.5192    0.0000 </r>
       <r>   14.5192    0.0000 </r>
       <r>   17.7597    0.0000 </r>
       <r>   17.7597    0.0000 </r>
       <r>   19.1053    0.0000 </r>
       <r>   19.1053    0.0000 </r>
       <r>   21.7491    0.0000 </r>
       <r>   22.0001    0.0000 </r>
       <r>   22.0001    0.0000 </r>
       <r>   25.5159    0.0000 </r>
       <r>   26.0840    0.0000 </r>
       <r>   26.1046    0.0000 </r>
       <r>   26.6573    0.0000 </r>
       <r>   26.6573    0.0000 </r>
       <r>   28.2143    0.0000 </r>
       <r>   30.6005    0.0000 </r>
       <r>   30.6005    0.0000 </r>
       <r>   31.1674    0.0000 </r>
       <r>   31.1674    0.0000 </r>
       <r>   31.4961    0.0000 </r>
       <r>   34.3409    0.0000 </r>
       <r>   34.3409    0.0000 </r>
       <r>   34.4270    0.0000 </r>
       <r>   34.4270    0.0000 </r>
      </set>
      <set comment="kpoint 3">
       <r>    1.8945    1.0000 </r>
       <r>    3.3723    1.0000 </r>
       <r>    3.5467    1.0000 </r>
       <r>    3.5467    1.0000 </r>
       <r>    3.7928    1.0000 </r>
       <r>    3.7928    1.0000 </r>
       <r>    4.1869    1.0000 </r>
       <r>    4.2806    1.0000 </r>
       <r>    4.5413    1.0000 </r>
       <r>    4.5413    1.0000 </r>
       <r>    5.0553    1.0000 </r>
       <r>    5.1258    1.0000 </r>
       <r>    5.6083    1.0000 </r>
       <r>    5.8163    1.0000 </r>
       <r>    6.2692    1.0000 </r>
       <r>    6.5400    1.0000 </r>
       <r>    6.5400    1.0000 </r>
       <r>    6.8863    1.0000 </r>
       <r>    6.8863    1.0000 </r>
       <r>    7.1492    1.0000 </r>
       <r>    7.3069    1.0000 </r>
       <r>    9.4716    0.8750 </r>
       <r>    9.4716    0.8750 </r>
       <r>   11.9948   -0.0000 </r>
       <r>   16.0198    0.0000 </r>
       <r>   16.7325    0.0000 </r>
       <r>   18.1142    0.0000 </r>
       <r>   18.1142    0.0000 </r>
       <r>   19.8639    0.0000 </r>
       <r>   19.8639    0.0000 </r>
       <r>   21.6626    0.0000 </r>
       <r>   23.0371    0.0000 </r>
       <r>   23.0371    0.0000 </r>
       <r>   23.5269    0.0000 </r>
       <r>   23.8846    0.0000 </r>
       <r>   26.5645    0.0000 </r>
       <r>   27.7717    0.0000 </r>
       <r>   28.3107    0.0000 </r>
       <r>   29.7711    0.0000 </r>
       <r>   29.7711    0.0000 </r>
       <r>   30.1211    0.0000 </r>
       <r>   30.1211    0.0000 </r>
       <r>   31.9916    0.0000 </r>
       <r>   33.5278    0.0000 </r>
       <r>   34.7954    0.0000 </r>
       <r>   35.1208    0.0000 </r>
       <r>   35.1208    0.0000 </r>
       <r>   35.2870    0.0000 </r>
      </set>
      <set comment="kpoint 4">
       <r>    2.0565    1.0000 </r>
       <r>    2.8232    1.0000 </r>
       <r>    2.8232    1.0000 </r>
       <r>    2.8232    1.0000 </r>
       <r>    4.4475    1.0000 </r>
       <r>    4.4475    1.0000 </r>
       <r>    4.4475    1.0000 </r>
       <r>    5.0099    1.0000 </r>
       <r>    5.0099    1.0000 </r>
       <r>    5.3975    1.0000 </r>
       <r>    5.3975    1.0000 </r>
       <r>    5.3975    1.0000 </r>
       <r>    5.5125    1.0000 </r>
       <r>    5.5125    1.0000 </r>
       <r>    5.5125    1.0000 </r>
       <r>    5.5809    1.0000 </r>
       <r>    7.0015    1.0000 </r>
       <r>    7.0015    1.0000 </r>
       <r>    7.6402    1.0000 </r>
       <r>    7.6402    1.0000 </r>
       <r>    7.6402    1.0000 </r>
       <r>   10.2239   -0.0000 </r>
       <r>   10.2239   -0.0000 </r>
       <r>   10.2239   -0.0000 </r>
       <r>   13.7036    0.0000 </r>
       <r>   13.7036    0.0000 </r>
       <r>   13.7036    0.0000 </r>
       <r>   17.4534    0.0000 </r>
       <r>   23.1461    0.0000 </r>
       <r>   23.1461    0.0000 </r>
       <r>   23.1461    0.0000 </r>
       <r>   24.4074    0.0000 </r>
       <r>   24.8359    0.0000 </r>
       <r>   24.8359    0.0000 </r>
       <r>   24.8359    0.0000 </r>
       <r>   25.4822    0.0000 </r>
       <r>   25.4822    0.0000 </r>
       <r>   25.4822    0.0000 </r>
       <r>   28.4307    0.0000 </r>
       <r>   28.4307    0.0000 </r>
       <r>   32.7403    0.0000 </r>
       <r>   33.0723    0.0000 </r>
       <r>   33.0723    0.0000 </r>
       <r>   34.7177    0.0000 </r>
       <r>   34.7177    0.0000 </r>
       <r>   34.7177    0.0000 </r>
       <r>   35.3756    0.0000 </r>
       <r>   35.3756    0.0000 </r>
      </set>
     </set>
    </set>
   </array>
  </eigenvalues>
  <separator name="orbital magnetization" >
   <v name="MAGDIPOLOUT">      0.00000000      0.00000000      0.00000000</v>
  </separator>
  <dos>
   <i name="efermi">      9.52251026 </i>
   <total>
    <array>
     <dimension dim="1">gridpoints</dimension>
     <dimension dim="2">spin</dimension>
     <field>energy</field>
     <field>total</field>
     <field>integrated</field>
     <set>
      <set comment="spin 1">
       <r>    -2.2540     0.0000     0.0000 </r>
       <r>    -2.1145     0.0000     0.0000 </r>
       <r>    -1.9751     0.0000     0.0000 </r>
       <r>    -1.8356     0.0000     0.0000 </r>
       <r>    -1.6961     0.0000     0.0000 </r>
       <r>    -1.5566     0.0000     0.0000 </r>
       <r>    -1.4171     0.0000     0.0000 </r>
       <r>    -1.2776    -0.0000    -0.0000 </r>
       <r>    -1.1381    -0.0000    -0.0000 </r>
       <r>    -0.9986    -0.0000    -0.0000 </r>
       <r>    -0.8592    -0.0000    -0.0000 </r>
       <r>    -0.7197    -0.0000    -0.0000 </r>
       <r>    -0.5802    -0.0015    -0.0002 </r>
       <r>    -0.4407    -0.0033    -0.0007 </r>
       <r>    -0.3012     0.4690     0.0647 </r>
       <r>    -0.1617     0.0726     0.0749 </r>
       <r>    -0.0222    -0.0057     0.0741 </r>
       <r>     0.1172    -0.0000     0.0741 </r>
       <r>     0.2567    -0.0000     0.0741 </r>
       <r>     0.3962    -0.0000     0.0741 </r>
       <r>     0.5357    -0.0000     0.0741 </r>
       <r>     0.6752    -0.0190     0.0714 </r>
       <r>     0.8147     0.1545     0.0930 </r>
       <r>     0.9542     2.9248     0.5009 </r>
       <r>     1.0937     0.1444     0.5211 </r>
       <r>     1.2331    -0.0184     0.5185 </r>
       <r>     1.3726    -0.0000     0.5185 </r>
       <r>     1.5121    -0.0000     0.5185 </r>
       <r>     1.6516    -0.0101     0.5171 </r>
       <r>     1.7911    -0.1726     0.4930 </r>
       <r>     1.9306     5.0326     1.1950 </r>
       <r>     2.0701     4.2326     1.7854 </r>
       <r>     2.2095     1.6484     2.0153 </r>
       <r>     2.3490    -0.1613     1.9928 </r>
       <r>     2.4885     1.1880     2.1585 </r>
       <r>     2.6280     0.8300     2.2743 </r>
       <r>     2.7675     4.7417     2.9357 </r>
       <r>     2.9070    12.4606     4.6738 </r>
       <r>     3.0465    -0.1982     4.6462 </r>
       <r>     3.1860     2.7648     5.0318 </r>
       <r>     3.3254     7.9972     6.1473 </r>
       <r>     3.4649     6.8578     7.1039 </r>
       <r>     3.6044    16.4686     9.4011 </r>
       <r>     3.7439     2.9624     9.8143 </r>
       <r>     3.8834    11.0479    11.3553 </r>
       <r>     4.0229    -0.2694    11.3177 </r>
       <r>     4.1624     1.7093    11.5562 </r>
       <r>     4.3018    11.4722    13.1564 </r>
       <r>     4.4413     8.4443    14.3343 </r>
       <r>     4.5808    17.8817    16.8285 </r>
       <r>     4.7203     2.1671    17.1308 </r>
       <r>     4.8598     0.3725    17.1827 </r>
       <r>     4.9993     5.0223    17.8833 </r>
       <r>     5.1388    15.0798    19.9867 </r>
       <r>     5.2783     1.7701    20.2336 </r>
       <r>     5.4177    10.8425    21.7460 </r>
       <r>     5.5572    24.1027    25.1080 </r>
       <r>     5.6967    14.7149    27.1606 </r>
       <r>     5.8362     6.7331    28.0997 </r>
       <r>     5.9757     2.6514    28.4696 </r>
       <r>     6.1152    -0.3445    28.4215 </r>
       <r>     6.2547     2.5348    28.7751 </r>
       <r>     6.3941     4.3520    29.3821 </r>
       <r>     6.5336     7.7128    30.4580 </r>
       <r>     6.6731    15.5064    32.6209 </r>
       <r>     6.8126     3.4706    33.1050 </r>
       <r>     6.9521    18.3133    35.6595 </r>
       <r>     7.0916     9.5182    36.9871 </r>
       <r>     7.2311     7.1800    37.9887 </r>
       <r>     7.3706     7.7428    39.0687 </r>
       <r>     7.5100     0.2005    39.0966 </r>
       <r>     7.6495     9.1097    40.3673 </r>
       <r>     7.7890     5.3760    41.1172 </r>
       <r>     7.9285     5.0650    41.8237 </r>
       <r>     8.0680     4.7408    42.4850 </r>
       <r>     8.2075    -0.2884    42.4448 </r>
       <r>     8.3470    -0.0022    42.4444 </r>
       <r>     8.4864    -0.0000    42.4444 </r>
       <r>     8.6259    -0.0000    42.4444 </r>
       <r>     8.7654    -0.0000    42.4444 </r>
       <r>     8.9049    -0.0000    42.4444 </r>
       <r>     9.0444    -0.0000    42.4444 </r>
       <r>     9.1839    -0.0023    42.4441 </r>
       <r>     9.3234    -0.3600    42.3939 </r>
       <r>     9.4629     5.7946    43.2022 </r>
       <r>     9.6023     7.7529    44.2836 </r>
       <r>     9.7418    -0.4343    44.2230 </r>
       <r>     9.8813    -0.0058    44.2222 </r>
       <r>    10.0208    -0.0920    44.2094 </r>
       <r>    10.1603     0.9134    44.3368 </r>
       <r>    10.2998    11.6514    45.9620 </r>
       <r>    10.4393     0.2771    46.0006 </r>
       <r>    10.5787     1.0932    46.1531 </r>
       <r>    10.7182     0.5302    46.2271 </r>
       <r>    10.8577    -0.0348    46.2222 </r>
       <r>    10.9972    -0.0001    46.2222 </r>
       <r>    11.1367    -0.0000    46.2222 </r>
       <r>    11.2762    -0.0000    46.2222 </r>
       <r>    11.4157    -0.0000    46.2222 </r>
       <r>    11.5552    -0.0000    46.2222 </r>
       <r>    11.6946    -0.0006    46.2221 </r>
       <r>    11.8341    -0.1445    46.2020 </r>
       <r>    11.9736     2.2183    46.5114 </r>
       <r>    12.1131     4.5235    47.1424 </r>
       <r>    12.2526    -0.2190    47.1118 </r>
       <r>    12.3921    -0.0052    47.1111 </r>
       <r>    12.5316    -0.0000    47.1111 </r>
       <r>    12.6710    -0.0000    47.1111 </r>
       <r>    12.8105    -0.0000    47.1111 </r>
       <r>    12.9500    -0.0000    47.1111 </r>
       <r>    13.0895    -0.0000    47.1111 </r>
       <r>    13.2290    -0.0000    47.1111 </r>
       <r>    13.3685    -0.0001    47.1111 </r>
       <r>    13.5080    -0.1269    47.0934 </r>
       <r>    13.6475     1.1950    47.2601 </r>
       <r>    13.7869    16.6449    49.5818 </r>
       <r>    13.9264     1.5539    49.7986 </r>
       <r>    14.0659    -0.1489    49.7778 </r>
       <r>    14.2054    -0.0005    49.7777 </r>
       <r>    14.3449    -0.1063    49.7629 </r>
       <r>    14.4844     1.5362    49.9772 </r>
       <r>    14.6239     5.1298    50.6927 </r>
       <r>    14.7634    -0.1774    50.6680 </r>
       <r>    14.9028    -0.0095    50.6667 </r>
       <r>    15.0423    -0.0001    50.6667 </r>
       <r>    15.1818    -0.0234    50.6634 </r>
       <r>    15.3213     0.3279    50.7091 </r>
       <r>    15.4608     1.3282    50.8944 </r>
       <r>    15.6003    -0.0366    50.8893 </r>
       <r>    15.7398    -0.0047    50.8886 </r>
       <r>    15.8792    -0.1994    50.8608 </r>
       <r>    16.0187     3.3282    51.3251 </r>
       <r>    16.1582     3.4516    51.8065 </r>
       <r>    16.2977    -0.2042    51.7780 </r>
       <r>    16.4372    -0.0027    51.7777 </r>
       <r>    16.5767    -0.1584    51.7556 </r>
       <r>    16.7162     2.4749    52.1008 </r>
       <r>    16.8557     4.2827    52.6982 </r>
       <r>    16.9951    -0.2218    52.6672 </r>
       <r>    17.1346    -0.0043    52.6666 </r>
       <r>    17.2741    -0.0623    52.6580 </r>
       <r>    17.4136     0.8729    52.7797 </r>
       <r>    17.5531     3.5023    53.2682 </r>
       <r>    17.6926     0.2659    53.3053 </r>
       <r>    17.8321     5.8344    54.1192 </r>
       <r>    17.9715    -0.1503    54.0982 </r>
       <r>    18.1110     6.3945    54.9901 </r>
       <r>    18.2505     7.1296    55.9846 </r>
       <r>    18.3900    -0.4165    55.9265 </r>
       <r>    18.5295    -0.0043    55.9259 </r>
       <r>    18.6690    -0.0000    55.9259 </r>
       <r>    18.8085    -0.0007    55.9258 </r>
       <r>    18.9480    -0.1541    55.9043 </r>
       <r>    19.0874     2.3955    56.2385 </r>
       <r>    19.2269     4.3578    56.8463 </r>
       <r>    19.3664    -0.2497    56.8115 </r>
       <r>    19.5059     0.3197    56.8561 </r>
       <r>    19.6454     2.8230    57.2499 </r>
       <r>    19.7849     0.2373    57.2830 </r>
       <r>    19.9244    11.5801    58.8982 </r>
       <r>    20.0638     1.0973    59.0513 </r>
       <r>    20.2033    -0.1021    59.0371 </r>
       <r>    20.3428    -0.0001    59.0370 </r>
       <r>    20.4823    -0.0000    59.0370 </r>
       <r>    20.6218     0.0000    59.0370 </r>
       <r>    20.7613    -0.0000    59.0370 </r>
       <r>    20.9008    -0.0000    59.0370 </r>
       <r>    21.0403    -0.0000    59.0370 </r>
       <r>    21.1797    -0.0000    59.0370 </r>
       <r>    21.3192    -0.0000    59.0370 </r>
       <r>    21.4587    -0.0452    59.0307 </r>
       <r>    21.5982     0.3474    59.0792 </r>
       <r>    21.7377     7.2026    60.0838 </r>
       <r>    21.8772     1.9708    60.3587 </r>
       <r>    22.0167     4.1515    60.9378 </r>
       <r>    22.1561     2.4631    61.2814 </r>
       <r>    22.2956    -0.1579    61.2594 </r>
       <r>    22.4351    -0.0008    61.2593 </r>
       <r>    22.5746    -0.0000    61.2593 </r>
       <r>    22.7141    -0.0003    61.2592 </r>
       <r>    22.8536    -0.1684    61.2357 </r>
       <r>    22.9931     1.9253    61.5043 </r>
       <r>    23.1326    16.1702    63.7598 </r>
       <r>    23.2720     8.0354    64.8806 </r>
       <r>    23.4115    -0.6852    64.7851 </r>
       <r>    23.5510     4.6587    65.4349 </r>
       <r>    23.6905     2.0023    65.7142 </r>
       <r>    23.8300     0.5963    65.7974 </r>
       <r>    23.9695     5.7017    66.5927 </r>
       <r>    24.1090     0.4723    66.6586 </r>
       <r>    24.2484    -0.0353    66.6536 </r>
       <r>    24.3879     1.5307    66.8671 </r>
       <r>    24.5274     2.9606    67.2801 </r>
       <r>    24.6669    -0.3881    67.2260 </r>
       <r>    24.8064     3.5732    67.7244 </r>
       <r>    24.9459     9.8260    69.0950 </r>
       <r>    25.0854    -0.4004    69.0391 </r>
       <r>    25.2249    -0.0262    69.0355 </r>
       <r>    25.3643    -0.5221    68.9627 </r>
       <r>    25.5038    10.4529    70.4207 </r>
       <r>    25.6433     6.4107    71.3149 </r>
       <r>    25.7828    -0.3965    71.2596 </r>
       <r>    25.9223    -0.1167    71.2433 </r>
       <r>    26.0618     1.6731    71.4767 </r>
       <r>    26.2013     4.9932    72.1732 </r>
       <r>    26.3407    -0.1923    72.1464 </r>
       <r>    26.4802    -0.0873    72.1342 </r>
       <r>    26.6197     7.1097    73.1259 </r>
       <r>    26.7592     6.2415    73.9965 </r>
       <r>    26.8987     1.1319    74.1544 </r>
       <r>    27.0382    -0.0414    74.1486 </r>
       <r>    27.1777    -0.0034    74.1481 </r>
       <r>    27.3172    -0.0000    74.1481 </r>
       <r>    27.4566    -0.0003    74.1481 </r>
       <r>    27.5961    -0.1030    74.1337 </r>
       <r>    27.7356     1.4782    74.3399 </r>
       <r>    27.8751     5.1661    75.0605 </r>
       <r>    28.0146    -0.0722    75.0505 </r>
       <r>    28.1541     1.5620    75.2683 </r>
       <r>    28.2936     5.0867    75.9779 </r>
       <r>    28.4330     9.0648    77.2423 </r>
       <r>    28.5725     4.1074    77.8152 </r>
       <r>    28.7120    -0.2662    77.7781 </r>
       <r>    28.8515    -0.0022    77.7778 </r>
       <r>    28.9910    -0.0000    77.7778 </r>
       <r>    29.1305    -0.0002    77.7778 </r>
       <r>    29.2700    -0.0395    77.7722 </r>
       <r>    29.4095     0.6172    77.8583 </r>
       <r>    29.5489     1.0254    78.0014 </r>
       <r>    29.6884     0.0358    78.0063 </r>
       <r>    29.8279    11.4913    79.6092 </r>
       <r>    29.9674     0.9915    79.7475 </r>
       <r>    30.1069     5.0780    80.4559 </r>
       <r>    30.2464     8.3343    81.6184 </r>
       <r>    30.3859    -0.4738    81.5523 </r>
       <r>    30.5253     0.1718    81.5763 </r>
       <r>    30.6648     5.8313    82.3896 </r>
       <r>    30.8043     0.4378    82.4507 </r>
       <r>    30.9438    -0.0670    82.4414 </r>
       <r>    31.0833     0.0230    82.4446 </r>
       <r>    31.2228     5.7213    83.2426 </r>
       <r>    31.3623     0.6027    83.3267 </r>
       <r>    31.5018     1.7924    83.5767 </r>
       <r>    31.6412     1.5363    83.7910 </r>
       <r>    31.7807    -0.1294    83.7730 </r>
       <r>    31.9202     0.2599    83.8092 </r>
       <r>    32.0597     5.8480    84.6249 </r>
       <r>    32.1992     0.3388    84.6722 </r>
       <r>    32.3387    -0.0395    84.6667 </r>
       <r>    32.4782    -0.0029    84.6663 </r>
       <r>    32.6176    -0.1478    84.6457 </r>
       <r>    32.7571     2.8707    85.0461 </r>
       <r>    32.8966     1.4830    85.2529 </r>
       <r>    33.0361     2.3035    85.5742 </r>
       <r>    33.1756     7.0174    86.5531 </r>
       <r>    33.3151    -0.2673    86.5158 </r>
       <r>    33.4546     0.2058    86.5445 </r>
       <r>    33.5941     5.8420    87.3594 </r>
       <r>    33.7335     0.3865    87.4133 </r>
       <r>    33.8730    -0.0421    87.4074 </r>
       <r>    34.0125    -0.0002    87.4074 </r>
       <r>    34.1520    -0.0739    87.3971 </r>
       <r>    34.2915     0.7113    87.4963 </r>
       <r>    34.4310     9.2067    88.7805 </r>
       <r>    34.5705     2.7239    89.1605 </r>
       <r>    34.7100     5.6994    89.9554 </r>
       <r>    34.8494    13.3372    91.8158 </r>
       <r>    34.9889    -0.1113    91.8003 </r>
       <r>    35.1284     7.4025    92.8328 </r>
       <r>    35.2679     7.9926    93.9477 </r>
       <r>    35.4074    10.7322    95.4447 </r>
       <r>    35.5469     2.0144    95.7257 </r>
       <r>    35.6864    -0.1571    95.7038 </r>
       <r>    35.8258    -0.0004    95.7037 </r>
       <r>    35.9653    -0.0000    95.7037 </r>
       <r>    36.1048    -0.0000    95.7037 </r>
       <r>    36.2443    -0.0000    95.7037 </r>
       <r>    36.3838    -0.0000    95.7037 </r>
       <r>    36.5233    -0.0000    95.7037 </r>
       <r>    36.6628    -0.0000    95.7037 </r>
       <r>    36.8023    -0.0042    95.7031 </r>
       <r>    36.9417    -0.0166    95.7008 </r>
       <r>    37.0812     1.3936    95.8952 </r>
       <r>    37.2207     0.2388    95.9285 </r>
       <r>    37.3602    -0.0184    95.9259 </r>
       <r>    37.4997    -0.0058    95.9251 </r>
       <r>    37.6392     0.0726    95.9353 </r>
       <r>    37.7787     0.4690    96.0007 </r>
       <r>    37.9181    -0.0033    96.0002 </r>
       <r>    38.0576    -0.0015    96.0000 </r>
       <r>    38.1971    -0.0000    96.0000 </r>
       <r>    38.3366    -0.0000    96.0000 </r>
       <r>    38.4761     0.0000    96.0000 </r>
       <r>    38.6156     0.0000    96.0000 </r>
       <r>    38.7551     0.0000    96.0000 </r>
       <r>    38.8946     0.0000    96.0000 </r>
       <r>    39.0340     0.0000    96.0000 </r>
       <r>    39.1735     0.0000    96.0000 </r>
       <r>    39.3130     0.0000    96.0000 </r>
       <r>    39.4525     0.0000    96.0000 </r>
       <r>    39.5920     0.0000    96.0000 </r>
      </set>
     </set>
    </array>
   </total>
  </dos>
 </calculation>
 <structure name="finalpos" >
  <crystal>
   <varray name="basis" >
    <v>       4.08000000       0.00000000       0.00000000 </v>
    <v>       0.00000000       4.08000000       0.00000000 </v>
    <v>       0.00000000       0.00000000       4.08000000 </v>
   </varray>
   <i name="volume">     67.91731200 </i>
   <varray name="rec_basis" >
    <v>       0.24509804       0.00000000       0.00000000 </v>
    <v>       0.00000000       0.24509804       0.00000000 </v>
    <v>       0.00000000       0.00000000       0.24509804 </v>
   </varray>
  </crystal>
  <varray name="positions" >
   <v>       0.00000000       0.00000000       0.00000000 </v>
   <v>       0.00000000       0.50000000       0.50000000 </v>
   <v>       0.50000000       0.00000000       0.50000000 </v>
   <v>       0.50000000       0.50000000       0.00000000 </v>
  </varray>
 </structure>
</modeling>
