----- GAMESS execution script 'rungms' -----
This job is running on host crcfe02.crc.nd.edu
under operating system Linux at Sun Sep 29 10:51:46 EDT 2019
Available scratch disk space (Kbyte units) at beginning of the job is
Filesystem      1K-blocks  Used  Available Use% Mounted on
AFS            2147483647     0 2147483647   0% /afs
GAMESS temporary binary files will be written to /afs/crc.nd.edu/user/c/cdrisko
GAMESS supplementary output files will be written to /afs/crc.nd.edu/user/c/cdrisko/scr
Copying input file SO2.inp to your run's scratch directory...

 Distributed Data Interface kickoff program.
 Initiating 1 compute processes on 1 nodes to run the following command:
 /afs/crc.nd.edu/x86_64_linux/g/gamess/nov-2017/gamess/gamess.00.x SO2 

          ******************************************************
          *         GAMESS VERSION = 11 NOV 2017 (R3)         *
          *             FROM IOWA STATE UNIVERSITY             *
          * M.W.SCHMIDT, K.K.BALDRIDGE, J.A.BOATZ, S.T.ELBERT, *
          *   M.S.GORDON, J.H.JENSEN, S.KOSEKI, N.MATSUNAGA,   *
          *          K.A.NGUYEN, S.J.SU, T.L.WINDUS,           *
          *       TOGETHER WITH M.DUPUIS, J.A.MONTGOMERY       *
          *         J.COMPUT.CHEM.  14, 1347-1363(1993)        *
          **************** 64 BIT INTEL VERSION ****************

  SINCE 1993, STUDENTS AND POSTDOCS WORKING AT IOWA STATE UNIVERSITY
  AND ALSO IN THEIR VARIOUS JOBS AFTER LEAVING ISU HAVE MADE IMPORTANT
  CONTRIBUTIONS TO THE CODE:
     IVANA ADAMOVIC, CHRISTINE AIKENS, YURI ALEXEEV, POOJA ARORA,
     ANDREY ASADCHEV, ROB BELL, PRADIPTA BANDYOPADHYAY, JONATHAN BENTZ,
     BRETT BODE, KURT BRORSEN, CALEB CARLIN, GALINA CHABAN, WEI CHEN,
     CHEOL HO CHOI, PAUL DAY, ALBERT DEFUSCO, NUWAN DESILVA, TIM DUDLEY,
     DMITRI FEDOROV, ALEX FINDLATER, GRAHAM FLETCHER, MARK FREITAG,
     KURT GLAESEMANN, ANASTASIA GUININA,
     DAN KEMP, GRANT MERRILL, NORIYUKI MINEZAWA, JONATHAN MULLIN,
     TAKESHI NAGATA, SEAN NEDD, HEATHER NETZLOFF, BOSILJKA NJEGIC, RYAN OLSON,
     MIKE PAK, BUU PHAM,
     SPENCER PRUITT, LUKE ROSKOP, JIM SHOEMAKER, LYUDMILA SLIPCHENKO,
     TONY SMITH, SAROM SOK LEANG, JIE SONG, TETSUYA TAKETSUGU, SIMON WEBB,
     PENG XU, SOOHAENG YOO, FEDERICO ZAHARIEV

  ADDITIONAL CODE HAS BEEN PROVIDED BY COLLABORATORS IN OTHER GROUPS:
     IOWA STATE UNIVERSITY:
          JOE IVANIC, AARON WEST, LAIMUTIS BYTAUTAS, KLAUS RUEDENBERG
     UNIVERSITY OF TOKYO: KIMIHIKO HIRAO, TAKAHITO NAKAJIMA,
          TAKAO TSUNEDA, MUNEAKI KAMIYA, SUSUMU YANAGISAWA,
          KIYOSHI YAGI, MAHITO CHIBA, SEIKEN TOKURA, NAOAKI KAWAKAMI
     UNIVERSITY OF AARHUS: FRANK JENSEN
     UNIVERSITY OF IOWA: VISVALDAS KAIRYS, HUI LI
     NATIONAL INST. OF STANDARDS AND TECHNOLOGY: WALT STEVENS, DAVID GARMER
     UNIVERSITY OF PISA: BENEDETTA MENNUCCI, JACOPO TOMASI
     UNIVERSITY OF MEMPHIS: HENRY KURTZ, PRAKASHAN KORAMBATH
     UNIVERSITY OF ALBERTA: TOBY ZENG, MARIUSZ KLOBUKOWSKI
     UNIVERSITY OF NEW ENGLAND: MARK SPACKMAN
     MIE UNIVERSITY: HIROAKI UMEDA
     NAT. INST. OF ADVANCED INDUSTRIAL SCIENCE AND TECHNOLOGY: KAZUO KITAURA
     MICHIGAN STATE UNIVERSITY:
          KAROL KOWALSKI, MARTA WLOCH, JEFFREY GOUR, JESSE LUTZ,
          WEI LI, PIOTR PIECUCH
     UNIVERSITY OF SILESIA: MONIKA MUSIAL, STANISLAW KUCHARSKI
     FACULTES UNIVERSITAIRES NOTRE-DAME DE LA PAIX:
          OLIVIER QUINET, BENOIT CHAMPAGNE
     UNIVERSITY OF CALIFORNIA - SANTA BARBARA: BERNARD KIRTMAN
     INSTITUTE FOR MOLECULAR SCIENCE:
          KAZUYA ISHIMURA, MICHIO KATOUDA, AND SHIGERU NAGASE
     UNIVERSITY OF NOTRE DAME: ANNA POMOGAEVA, DAN CHIPMAN
     KYUSHU UNIVERSITY:
          HARUYUKI NAKANO,
          FENG LONG GU, JACEK KORCHOWIEC, MARCIN MAKOWSKI, AND YURIKO AOKI,
          HIROTOSHI MORI AND EISAKU MIYOSHI
     PENNSYLVANIA STATE UNIVERSITY:
          TZVETELIN IORDANOV, CHET SWALINA, JONATHAN SKONE,
          SHARON HAMMES-SCHIFFER
     WASEDA UNIVERSITY:
          MASATO KOBAYASHI, TOMOKO AKAMA, TSUGUKI TOUMA,
          TAKESHI YOSHIKAWA, YASUHIRO IKABATA, JUNJI SEINO,
          YUYA NAKAJIMA, HIROMI NAKAI
     NANJING UNIVERSITY: SHUHUA LI
     UNIVERSITY OF NEBRASKA:
          PEIFENG SU, DEJUN SI, NANDUN THELLAMUREGE, YALI WANG, HUI LI
     UNIVERSITY OF ZURICH: ROBERTO PEVERATI, KIM BALDRIDGE
     N. COPERNICUS UNIVERSITY AND JACKSON STATE UNIVERSITY:
          MARIA BARYSZ
     UNIVERSITY OF COPENHAGEN: Jimmy Kromann, CASPER STEINMANN
     TOKYO INSTITUTE OF TECHNOLOGY: HIROYA NAKATA
     NAGOYA UNIVERSITY: YOSHIO NISHIMOTO, STEPHAN IRLE
     MOSCOW STATE UNIVERSITY: VLADIMIR MIRONOV

 EXECUTION OF GAMESS BEGUN Sun Sep 29 10:51:46 2019

            ECHO OF THE FIRST FEW INPUT CARDS -
 INPUT CARD> $BASIS GBASIS=PCSEG-1 $END                                                     
 INPUT CARD> $CONTRL COORD=ZMT ISPHER=1 RUNTYP=ENERGY DFTTYP=PBE MULT=1 $END                
 INPUT CARD>                                                                                
 INPUT CARD> $DATA                                                                          
 INPUT CARD>Title SO2 single-point calculation template with Z-Matrix                       
 INPUT CARD>C1                                                                              
 INPUT CARD>S                                                                               
 INPUT CARD>O 1 1.60                                                                        
 INPUT CARD>O 1 1.60 2 135                                                                  
 INPUT CARD> $END                                                                           
    1000000 WORDS OF MEMORY AVAILABLE

     BASIS OPTIONS
     -------------
     GBASIS=PCSEG-1      IGAUSS=       0      POLAR=NONE    
     NDFUNC=       0     NFFUNC=       0     DIFFSP=       F
     NPFUNC=       0      DIFFS=       F     BASNAM=        


     RUN TITLE
     ---------
 Title SO2 single-point calculation template with Z-Matrix                       

 THE POINT GROUP OF THE MOLECULE IS C1      
 THE ORDER OF THE PRINCIPAL AXIS IS     0

 YOUR FULLY SUBSTITUTED Z-MATRIX IS
 S   
 O      1   1.6000000
 O      1   1.6000000  2  135.0000

 THE MOMENTS OF INERTIA ARE (AMU-ANGSTROM**2)
 IXX=     5.995   IYY=    69.901   IZZ=    75.896

 ATOM      ATOMIC                      COORDINATES (BOHR)
           CHARGE         X                   Y                   Z
 S          16.0     0.0000000000       -0.5786940100        0.0000000000
 O           8.0     2.7934066594        0.5783729135        0.0000000000
 O           8.0    -2.7934066594        0.5783729135        0.0000000000

          INTERNUCLEAR DISTANCES (ANGS.)
          ------------------------------

                1 S          2 O          3 O     

   1 S       0.0000000    1.6000000 *  1.6000000 *
   2 O       1.6000000 *  0.0000000    2.9564145 *
   3 O       1.6000000 *  2.9564145 *  0.0000000  

  * ... LESS THAN  3.000


     ATOMIC BASIS SET
     ----------------
 THE CONTRACTED PRIMITIVE FUNCTIONS HAVE BEEN UNNORMALIZED
 THE CONTRACTED BASIS FUNCTIONS ARE NOW NORMALIZED TO UNITY

  SHELL TYPE  PRIMITIVE        EXPONENT          CONTRACTION COEFFICIENT(S)

 S         

      1   S       1         49299.4000000    0.000677492991
      1   S       2          7395.8400000    0.005232317766
      1   S       3          1683.3000000    0.026769459077
      1   S       4           476.1440000    0.102869580705
      1   S       5           154.3290000    0.286438127414
      1   S       6            55.0288000    0.454278639081
      1   S       7            20.5029000    0.271743121997

      2   S       8            45.9596000   -0.088421914560
      2   S       9             4.9274000    0.564350486135
      2   S      10             1.9179900    0.505415953466

      3   S      11             0.3684980    1.000000000000

      4   S      12             0.1291650    1.000000000000

      5   P      13           451.6620000    0.003707705453
      5   P      14           106.0980000    0.029219352245
      5   P      15            33.6996000    0.124444551509
      5   P      16            12.3054000    0.321808587656
      5   P      17             4.7141200    0.462822172957
      5   P      18             1.7810500    0.266513371364

      6   P      19             0.8722350    0.349265132972
      6   P      20             0.3102780    0.717115018770

      7   P      21             0.1001940    1.000000000000

      8   D      22             0.5500000    1.000000000000

 O         

      9   S      23          2288.6400000    0.005451138222
      9   S      24           344.4160000    0.040718922842
      9   S      25            78.2538000    0.181369420873
      9   S      26            21.7195000    0.465536820246
      9   S      27             6.5590700    0.451211321214

     10   S      28            10.4656000   -0.150211201174
     10   S      29             0.9643510    1.052867983385

     11   S      30             0.2851270    1.000000000000

     12   P      31            17.0590000    0.068749256972
     12   P      32             3.6899900    0.351671941499
     12   P      33             0.9929960    0.724532099722

     13   P      34             0.2449240    1.000000000000

     14   D      35             1.0000000    1.000000000000

 O         

     15   S      36          2288.6400000    0.005451138222
     15   S      37           344.4160000    0.040718922842
     15   S      38            78.2538000    0.181369420873
     15   S      39            21.7195000    0.465536820246
     15   S      40             6.5590700    0.451211321214

     16   S      41            10.4656000   -0.150211201174
     16   S      42             0.9643510    1.052867983385

     17   S      43             0.2851270    1.000000000000

     18   P      44            17.0590000    0.068749256972
     18   P      45             3.6899900    0.351671941499
     18   P      46             0.9929960    0.724532099722

     19   P      47             0.2449240    1.000000000000

     20   D      48             1.0000000    1.000000000000

 TOTAL NUMBER OF BASIS SET SHELLS             =   20
 NUMBER OF CARTESIAN GAUSSIAN BASIS FUNCTIONS =   49
 NOTE: THIS RUN WILL RESTRICT THE MO VARIATION SPACE TO SPHERICAL HARMONICS.
 THE NUMBER OF ORBITALS KEPT IN THE VARIATIONAL SPACE WILL BE PRINTED LATER.
 NUMBER OF ELECTRONS                          =   32
 CHARGE OF MOLECULE                           =    0
 SPIN MULTIPLICITY                            =    1
 NUMBER OF OCCUPIED ORBITALS (ALPHA)          =   16
 NUMBER OF OCCUPIED ORBITALS (BETA )          =   16
 TOTAL NUMBER OF ATOMS                        =    3
 THE NUCLEAR REPULSION ENERGY IS       96.1239064214

     LEBEDEV GRID-BASED DFT OPTIONS
     ------------------------------
     DFTTYP=PBE     
     NRAD  =      96     NLEB  =     302
     NRAD0 =      24     NLEB0 =     110
     SWOFF =    5.00E-03 (PURE SCF -> DFT)
     SWITCH=    3.00E-04 (COARSE -> TIGHT GRID)
     THRESH=    0.00E+00 GTHRE=    1.00E+00

 GRIMME'S EMPIRICAL DISPERSION CORRECTION= F

     $CONTRL OPTIONS
     ---------------
 SCFTYP=RHF          RUNTYP=ENERGY       EXETYP=RUN     
 MPLEVL=       0     CITYP =NONE         CCTYP =NONE         VBTYP =NONE    
 DFTTYP=PBE          TDDFT =NONE    
 MULT  =       1     ICHARG=       0     NZVAR =       0     COORD =ZMT     
 PP    =NONE         RELWFN=NONE         LOCAL =NONE         NUMGRD=       F
 ISPHER=       1     NOSYM =       0     MAXIT =      30     UNITS =ANGS    
 PLTORB=       F     MOLPLT=       F     AIMPAC=       F     FRIEND=        
 NPRINT=       7     IREST =       0     GEOM  =INPUT   
 NORMF =       0     NORMP =       0     ITOL  =      20     ICUT  =       9
 INTTYP=BEST         GRDTYP=BEST         QMTTOL= 1.0E-06

     $SYSTEM OPTIONS
     ---------------
  REPLICATED MEMORY=     1000000 WORDS (ON EVERY NODE).
 DISTRIBUTED MEMDDI=           0 MILLION WORDS IN AGGREGATE,
 MEMDDI DISTRIBUTED OVER   1 PROCESSORS IS           0 WORDS/PROCESSOR.
 TOTAL MEMORY REQUESTED ON EACH PROCESSOR=     1000000 WORDS.
 TIMLIM=      525600.00 MINUTES, OR     365.0 DAYS.
 PARALL= F  BALTYP=  DLB     KDIAG=    0  COREFL= F
 MXSEQ2=     300 MXSEQ3=     150  mem10=         0

          ----------------
          PROPERTIES INPUT
          ----------------

     MOMENTS            FIELD           POTENTIAL          DENSITY
 IEMOM =       1   IEFLD =       0   IEPOT =       0   IEDEN =       0
 WHERE =COMASS     WHERE =NUCLEI     WHERE =NUCLEI     WHERE =NUCLEI  
 OUTPUT=BOTH       OUTPUT=BOTH       OUTPUT=BOTH       OUTPUT=BOTH    
 IEMINT=       0   IEFINT=       0                     IEDINT=       0
                                                       MORB  =       0
          EXTRAPOLATION IN EFFECT
          DIIS IN EFFECT
 ORBITAL PRINTING OPTION: NPREO=     1    49     2     1

     -------------------------------
     INTEGRAL TRANSFORMATION OPTIONS
     -------------------------------
     NWORD  =            0
     CUTOFF = 1.0E-09     MPTRAN =       0
     DIRTRF =       F     AOINTS =DUP     

          ----------------------
          INTEGRAL INPUT OPTIONS
          ----------------------
 NOPK  =       1 NORDER=       0 SCHWRZ=       F

   --- ENCODED Z MATRIX ---
 COORD  TYPE   I   J   K   L   M   N
    1      1    2   1
    2      1    3   1
    3      2    3   1   2

 THE DETERMINANT OF THE G MATRIX IS 10**(    -4)

 THE DETERMINANT OF THE G MATRIX IS 10**(    -4)
 * * * WARNING * * *
 YOUR B MATRIX HAS A SMALL DETERMINANT.
 THIS SUGGESTS YOU MAY HAVE BADLY CHOSEN COORDINATES.

     ------------------------------------------
     THE POINT GROUP IS C1 , NAXIS= 0, ORDER= 1
     ------------------------------------------

 -- VARIATIONAL SPACE WILL BE RESTRICTED TO PURE SPHERICAL HARMONICS ONLY --
 AFTER EXCLUDING CONTAMINANT COMBINATIONS FROM THE CARTESIAN GAUSSIAN BASIS
 SET, THE NUMBER OF SPHERICAL HARMONICS KEPT IN THE VARIATION SPACE IS   46

     DIMENSIONS OF THE SYMMETRY SUBSPACES ARE
 A   =   46

 ..... DONE SETTING UP THE RUN .....
 STEP CPU TIME =     0.04 TOTAL CPU TIME =          0.0 (      0.0 MIN)
 TOTAL WALL CLOCK TIME=          0.1 SECONDS, CPU UTILIZATION IS    80.00%

          ********************
          1 ELECTRON INTEGRALS
          ********************
 ...... END OF ONE-ELECTRON INTEGRALS ......
 STEP CPU TIME =     0.00 TOTAL CPU TIME =          0.0 (      0.0 MIN)
 TOTAL WALL CLOCK TIME=          0.1 SECONDS, CPU UTILIZATION IS    80.00%

          -------------
          GUESS OPTIONS
          -------------
          GUESS =HUCKEL            NORB  =       0          NORDER=       0
          MIX   =       F          PRTMO =       F          PUNMO =       F
          TOLZ  = 1.0E-08          TOLE  = 1.0E-05
          SYMDEN=       F          PURIFY=       F

 INITIAL GUESS ORBITALS GENERATED BY HUCKEL   ROUTINE.
 HUCKEL GUESS REQUIRES     21634 WORDS.

 STATISTICS FOR GENERATION OF SYMMETRY ORBITAL -Q- MATRIX
 NUMBER OF CARTESIAN ATOMIC ORBITALS=         49
 NUMBER OF SPHERICAL CONTAMINANTS DROPPED=     3
 NUMBER OF LINEARLY DEPENDENT MOS DROPPED=     0
 TOTAL NUMBER OF MOS IN VARIATION SPACE=      46

 SYMMETRIES FOR INITIAL GUESS ORBITALS FOLLOW.   BOTH SET(S).
    16 ORBITALS ARE OCCUPIED (    7 CORE ORBITALS).
     8=A        9=A       10=A       11=A       12=A       13=A       14=A   
    15=A       16=A       17=A       18=A       19=A       20=A       21=A   
    22=A       23=A       24=A       25=A       26=A   
 ...... END OF INITIAL ORBITAL SELECTION ......
 STEP CPU TIME =     0.00 TOTAL CPU TIME =          0.0 (      0.0 MIN)
 TOTAL WALL CLOCK TIME=          0.1 SECONDS, CPU UTILIZATION IS    66.67%

                    ----------------------
                    AO INTEGRAL TECHNOLOGY
                    ----------------------
     S,P,L SHELL ROTATED AXIS INTEGRALS, REPROGRAMMED BY
        KAZUYA ISHIMURA (IMS) AND JOSE SIERRA (SYNSTAR).
     S,P,D,L SHELL ROTATED AXIS INTEGRALS PROGRAMMED BY
        KAZUYA ISHIMURA (INSTITUTE FOR MOLECULAR SCIENCE).
     S,P,D,F,G SHELL TO TOTAL QUARTET ANGULAR MOMENTUM SUM 5,
        ERIC PROGRAM BY GRAHAM FLETCHER (ELORET AND NASA ADVANCED
        SUPERCOMPUTING DIVISION, AMES RESEARCH CENTER).
     S,P,D,F,G,L SHELL GENERAL RYS QUADRATURE PROGRAMMED BY
        MICHEL DUPUIS (PACIFIC NORTHWEST NATIONAL LABORATORY).

          --------------------
          2 ELECTRON INTEGRALS
          --------------------

 THE -PK- OPTION IS OFF, THE INTEGRALS ARE NOT IN SUPERMATRIX FORM.
 STORING   15000 INTEGRALS/RECORD ON DISK, USING 12 BYTES/INTEGRAL.
 TWO ELECTRON INTEGRAL EVALUATION REQUIRES   90606 WORDS OF MEMORY.
 II,JST,KST,LST =  1  1  1  1 NREC =         1 INTLOC =    1
 II,JST,KST,LST =  2  1  1  1 NREC =         1 INTLOC =    2
 II,JST,KST,LST =  3  1  1  1 NREC =         1 INTLOC =    7
 II,JST,KST,LST =  4  1  1  1 NREC =         1 INTLOC =   22
 II,JST,KST,LST =  5  1  1  1 NREC =         1 INTLOC =   56
 II,JST,KST,LST =  6  1  1  1 NREC =         1 INTLOC =  125
 II,JST,KST,LST =  7  1  1  1 NREC =         1 INTLOC =  329
 II,JST,KST,LST =  8  1  1  1 NREC =         1 INTLOC =  776
 II,JST,KST,LST =  9  1  1  1 NREC =         1 INTLOC = 2864
 II,JST,KST,LST = 10  1  1  1 NREC =         1 INTLOC = 4915
 II,JST,KST,LST = 11  1  1  1 NREC =         1 INTLOC = 7575
 II,JST,KST,LST = 12  1  1  1 NREC =         1 INTLOC =10691
 II,JST,KST,LST = 13  1  1  1 NREC =         2 INTLOC = 6586
 II,JST,KST,LST = 14  1  1  1 NREC =         3 INTLOC = 6848
 II,JST,KST,LST = 15  1  1  1 NREC =         6 INTLOC = 8778
 II,JST,KST,LST = 16  1  1  1 NREC =         7 INTLOC =  792
 II,JST,KST,LST = 17  1  1  1 NREC =         7 INTLOC =11610
 II,JST,KST,LST = 18  1  1  1 NREC =         8 INTLOC = 9916
 II,JST,KST,LST = 19  1  1  1 NREC =        11 INTLOC = 1564
 II,JST,KST,LST = 20  1  1  1 NREC =        14 INTLOC = 7937
 TOTAL NUMBER OF NONZERO TWO-ELECTRON INTEGRALS =              325640
         22 INTEGRAL RECORDS WERE STORED ON DISK FILE  8.
  ...... END OF TWO-ELECTRON INTEGRALS .....
 STEP CPU TIME =     0.11 TOTAL CPU TIME =          0.2 (      0.0 MIN)
 TOTAL WALL CLOCK TIME=          0.2 SECONDS, CPU UTILIZATION IS    93.75%

          --------------------------
               R-PBE SCF CALCULATION
          --------------------------

     NUCLEAR ENERGY =        96.1239064214
     MAXIT =   30     NPUNCH=    2
     EXTRAP=T  DAMP=F  SHIFT=F  RSTRCT=F  DIIS=T  DEM=F  SOSCF=F
         DENSITY MATRIX CONVERGENCE THRESHOLD=  1.00E-05
     COARSE -> FINE DFT GRID SWITCH THRESHOLD=  3.00E-04 (SWITCH IN $DFT)
                   HF -> DFT SWITCH THRESHOLD=  5.00E-03 (SWOFF IN $DFT)
     MEMORY REQUIRED FOR RHF ITERS=    183108 WORDS.

 DFT CODE IS SWITCHING FROM THE FINE GRID NRAD= 96,  NLEB=  302
                      TO THE COARSE GRID NRAD0= 24, NLEB0=  110

     EXCHANGE FUNCTIONAL   =PBE       
     CORRELATION FUNCTIONAL=PBE       
     DFT THRESHOLD         =.460E-07
     GRID CHANGE THRESHOLD =.300E-03
 FOR AN EULER-MACLAURIN QUADRATURE USING  96 RADIAL POINTS:
 SMALLEST GAUSSIAN PRIMITIVE EXPONENT=        0.1001940000 OF TYPE -P-
 ON ATOM NUMBER   1 HAS RADIAL NORMALIZATION=  1.000000
  LARGEST GAUSSIAN PRIMITIVE EXPONENT=    49299.4000000000 OF TYPE -S-
 ON ATOM NUMBER   1 HAS RADIAL NORMALIZATION=  1.000000
 DFT IS SWITCHED OFF, PERFORMING PURE SCF UNTIL SWOFF THRESHOLD IS REACHED.

 ITER EX DEM     TOTAL ENERGY        E CHANGE  DENSITY CHANGE    DIIS ERROR
   1  0  0     -546.0180265858  -546.0180265858   0.679520425   0.906121474
          * * *   INITIATING DIIS PROCEDURE   * * *
   2  1  0     -546.6251632500    -0.6071366642   0.672522722   0.318449575
   3  2  0     -546.6785911725    -0.0534279225   0.247002742   0.297071506
   4  3  0     -547.0199968469    -0.3414056744   0.041445666   0.010080761
   5  4  0     -547.0212035699    -0.0012067229   0.012671754   0.004260103
   6  5  0     -547.0214338240    -0.0002302541   0.005481168   0.002171300
   7  6  0     -547.0214884047    -0.0000545807   0.003410967   0.001009213
 CONVERGED TO SWOFF, SO DFT CALCULATION IS NOW SWITCHED ON.
          * * *   INITIATING DIIS PROCEDURE   * * *
   8  7  0     -548.1771125191    -1.1556241145   0.430341110   0.105083372
   9  8  0     -548.1688553696     0.0082571495   0.371816053   0.127214419
  10  9  0     -548.1780010262    -0.0091456566   0.121851911   0.123124999
  11 10  0     -548.2205375860    -0.0425365598   0.030918384   0.013582005
  12 11  0     -548.2212635779    -0.0007259919   0.002123106   0.001152005
  13 12  0     -548.2212682563    -0.0000046784   0.000589500   0.000314154
  14 13  0     -548.2212686273    -0.0000003709   0.000112893   0.000037103
 DFT CODE IS SWITCHING BACK TO THE FINE GRID
          * * *   INITIATING DIIS PROCEDURE   * * *
  15 14  0     -548.2195371586     0.0017314686   0.010679137   0.009167678
  16 15  0     -548.2195744177    -0.0000372591   0.021600425   0.006915456
  17 16  0     -548.2194054265     0.0001689911   0.012273312   0.010097331
  18 17  0     -548.2196524716    -0.0002470451   0.003894063   0.005862755
  19 18  0     -548.2197128049    -0.0000603332   0.000324019   0.000505060
  20 19  0     -548.2197134338    -0.0000006289   0.000096806   0.000044528
  21 20  0     -548.2197134407    -0.0000000070   0.000019571   0.000008512
  22 21  0     -548.2197134411    -0.0000000004   0.000001910   0.000001256
  23 22  0     -548.2197134411    -0.0000000000   0.000000143   0.000000128

          -----------------
          DENSITY CONVERGED
          -----------------
     TIME TO FORM FOCK OPERATORS=       2.4 SECONDS (       0.1 SEC/ITER)
     TIME TO SOLVE SCF EQUATIONS=       0.0 SECONDS (       0.0 SEC/ITER)

 FINAL R-PBE ENERGY IS     -548.2197134411 AFTER  23 ITERATIONS
 DFT EXCHANGE + CORRELATION ENERGY =       -42.3391293694
 TOTAL ELECTRON NUMBER             =        32.0000216203

          ------------
          EIGENVECTORS
          ------------

                      1          2          3          4          5
                  -88.2314   -18.8236   -18.8236    -7.8434    -5.8701
                     A          A          A          A          A   
    1  S  1  S    0.997760  -0.000000  -0.000004  -0.308385  -0.000000
    2  S  1  S    0.008246  -0.000000  -0.000069   1.031757   0.000000
    3  S  1  S   -0.002970  -0.000000  -0.000075   0.027708   0.000000
    4  S  1  S    0.000817   0.000011   0.006865  -0.005455  -0.000000
    5  S  1  X   -0.000000  -0.000116   0.000000  -0.000000   0.994630
    6  S  1  Y    0.000124  -0.000000  -0.000103   0.011495  -0.000001
    7  S  1  Z    0.000000   0.000000   0.000000   0.000000   0.000000
    8  S  1  X    0.000000   0.001895  -0.000003   0.000000   0.017283
    9  S  1  Y   -0.000270   0.000002   0.001081   0.001118  -0.000000
   10  S  1  Z    0.000000   0.000000   0.000000   0.000000   0.000000
   11  S  1  X    0.000000   0.004706  -0.000007  -0.000000  -0.002395
   12  S  1  Y   -0.000005   0.000003   0.002199  -0.000191   0.000000
   13  S  1  Z    0.000000   0.000000   0.000000   0.000000   0.000000
   14  S  1 XX   -0.000282   0.000001   0.000688   0.000933  -0.000000
   15  S  1 YY    0.000104  -0.000000  -0.000108  -0.000440  -0.000000
   16  S  1 ZZ    0.000179  -0.000001  -0.000581  -0.000493   0.000000
   17  S  1 XY    0.000000   0.000416  -0.000001  -0.000000   0.001321
   18  S  1 XZ    0.000000   0.000000   0.000000   0.000000   0.000000
   19  S  1 YZ    0.000000   0.000000   0.000000   0.000000   0.000000
   20  O  2  S   -0.000013   0.703397   0.701249  -0.000002  -0.000194
   21  O  2  S   -0.000162   0.023779   0.023686  -0.000009  -0.000077
   22  O  2  S    0.000367  -0.011475  -0.011187  -0.000516  -0.000855
   23  O  2  X   -0.000022  -0.000757  -0.000963   0.000233  -0.000129
   24  O  2  Y   -0.000009  -0.000423  -0.000166   0.000090  -0.000039
   25  O  2  Z    0.000000   0.000000   0.000000   0.000000   0.000000
   26  O  2  X   -0.000402   0.001822   0.002984   0.000948   0.001077
   27  O  2  Y   -0.000171   0.001458   0.000409   0.000448   0.000460
   28  O  2  Z    0.000000   0.000000   0.000000   0.000000   0.000000
   29  O  2 XX    0.000196  -0.000149  -0.000344  -0.000195   0.000443
   30  O  2 YY   -0.000065   0.000005   0.000143   0.000056  -0.000144
   31  O  2 ZZ   -0.000131   0.000144   0.000201   0.000140  -0.000300
   32  O  2 XY    0.000164  -0.000219  -0.000162  -0.000190   0.000375
   33  O  2 XZ    0.000000   0.000000   0.000000   0.000000   0.000000
   34  O  2 YZ    0.000000   0.000000   0.000000   0.000000   0.000000
   35  O  3  S   -0.000013  -0.701246   0.703401  -0.000002   0.000194
   36  O  3  S   -0.000162  -0.023706   0.023759  -0.000009   0.000077
   37  O  3  S    0.000367   0.011440  -0.011222  -0.000516   0.000855
   38  O  3  X    0.000022  -0.000754   0.000965  -0.000233  -0.000129
   39  O  3  Y   -0.000009   0.000422  -0.000168   0.000090   0.000039
   40  O  3  Z    0.000000   0.000000   0.000000   0.000000   0.000000
   41  O  3  X    0.000402   0.001813  -0.002989  -0.000948   0.001077
   42  O  3  Y   -0.000171  -0.001457   0.000414   0.000448  -0.000460
   43  O  3  Z    0.000000   0.000000   0.000000   0.000000   0.000000
   44  O  3 XX    0.000196   0.000148  -0.000344  -0.000195  -0.000443
   45  O  3 YY   -0.000065  -0.000004   0.000143   0.000056   0.000144
   46  O  3 ZZ   -0.000131  -0.000144   0.000201   0.000140   0.000300
   47  O  3 XY   -0.000164  -0.000219   0.000163   0.000190   0.000375
   48  O  3 XZ    0.000000   0.000000   0.000000   0.000000   0.000000
   49  O  3 YZ    0.000000   0.000000   0.000000   0.000000   0.000000

                      6          7          8          9         10
                   -5.8682    -5.8641    -0.9921    -0.9357    -0.6147
                     A          A          A          A          A   
    1  S  1  S    0.000000   0.003602   0.047885   0.000000   0.069054
    2  S  1  S    0.000000  -0.012402  -0.295374  -0.000000  -0.441677
    3  S  1  S    0.000000   0.000129   0.415559  -0.000001   0.677867
    4  S  1  S    0.000000   0.000424   0.075271   0.000004   0.246002
    5  S  1  X    0.000000   0.000001  -0.000000   0.112483   0.000000
    6  S  1  Y    0.000000   0.994963  -0.042701  -0.000000   0.015379
    7  S  1  Z    0.995018   0.000000   0.000000   0.000000   0.000000
    8  S  1  X    0.000000   0.000000   0.000001  -0.252476   0.000000
    9  S  1  Y    0.000000   0.015719   0.095823   0.000001  -0.030425
   10  S  1  Z    0.015748   0.000000   0.000000   0.000000   0.000000
   11  S  1  X    0.000000  -0.000000   0.000003   0.009896  -0.000002
   12  S  1  Y    0.000000  -0.002855  -0.010850   0.000001  -0.026090
   13  S  1  Z   -0.003048   0.000000   0.000000   0.000000   0.000000
   14  S  1 XX    0.000000  -0.000293   0.050507   0.000001  -0.015787
   15  S  1 YY    0.000000   0.000799  -0.018348  -0.000000   0.001551
   16  S  1 ZZ    0.000000  -0.000506  -0.032159  -0.000001   0.014236
   17  S  1 XY    0.000000   0.000000   0.000001  -0.053737  -0.000000
   18  S  1 XZ   -0.000000   0.000000   0.000000   0.000000   0.000000
   19  S  1 YZ    0.000705   0.000000   0.000000   0.000000   0.000000
   20  O  2  S    0.000000  -0.000088  -0.139474   0.163295   0.113728
   21  O  2  S    0.000000  -0.000066   0.285846  -0.338731  -0.242985
   22  O  2  S    0.000000  -0.000109   0.267515  -0.319248  -0.310432
   23  O  2  X    0.000000  -0.000099  -0.093952   0.085925  -0.135699
   24  O  2  Y    0.000000  -0.000088  -0.034736   0.035107  -0.059276
   25  O  2  Z   -0.000062   0.000000   0.000000   0.000000   0.000000
   26  O  2  X    0.000000   0.000397  -0.038595   0.025015  -0.064273
   27  O  2  Y    0.000000  -0.000040  -0.011316   0.011779  -0.022775
   28  O  2  Z   -0.000112   0.000000   0.000000   0.000000   0.000000
   29  O  2 XX    0.000000   0.000161   0.009884  -0.007189   0.005820
   30  O  2 YY    0.000000  -0.000003  -0.005586   0.003960  -0.000813
   31  O  2 ZZ    0.000000  -0.000157  -0.004298   0.003229  -0.005008
   32  O  2 XY    0.000000   0.000327   0.005317  -0.006021   0.005360
   33  O  2 XZ    0.000144   0.000000   0.000000   0.000000   0.000000
   34  O  2 YZ    0.000046   0.000000   0.000000   0.000000   0.000000
   35  O  3  S    0.000000  -0.000088  -0.139475  -0.163295   0.113729
   36  O  3  S    0.000000  -0.000066   0.285844   0.338732  -0.242986
   37  O  3  S    0.000000  -0.000109   0.267521   0.319242  -0.310435
   38  O  3  X    0.000000   0.000099   0.093951   0.085925   0.135699
   39  O  3  Y    0.000000  -0.000088  -0.034735  -0.035107  -0.059276
   40  O  3  Z   -0.000062   0.000000   0.000000   0.000000   0.000000
   41  O  3  X    0.000000  -0.000397   0.038597   0.025012   0.064273
   42  O  3  Y    0.000000  -0.000040  -0.011318  -0.011779  -0.022775
   43  O  3  Z   -0.000112   0.000000   0.000000   0.000000   0.000000
   44  O  3 XX    0.000000   0.000161   0.009884   0.007189   0.005820
   45  O  3 YY    0.000000  -0.000003  -0.005586  -0.003960  -0.000813
   46  O  3 ZZ    0.000000  -0.000157  -0.004298  -0.003229  -0.005008
   47  O  3 XY    0.000000  -0.000327  -0.005317  -0.006021  -0.005360
   48  O  3 XZ   -0.000144   0.000000   0.000000   0.000000   0.000000
   49  O  3 YZ    0.000046   0.000000   0.000000   0.000000   0.000000

                     11         12         13         14         15
                   -0.4450    -0.4176    -0.4138    -0.3284    -0.3154
                     A          A          A          A          A   
    1  S  1  S    0.000000   0.000000  -0.010816   0.000000  -0.000000
    2  S  1  S    0.000000   0.000000   0.068948   0.000000   0.000000
    3  S  1  S   -0.000000   0.000000  -0.089940   0.000000  -0.000001
    4  S  1  S   -0.000001   0.000000  -0.140180   0.000000   0.000002
    5  S  1  X   -0.180568   0.000000   0.000000   0.000000  -0.018868
    6  S  1  Y   -0.000000   0.000000  -0.212571   0.000000   0.000000
    7  S  1  Z    0.000000  -0.215229   0.000000  -0.000000   0.000000
    8  S  1  X    0.487048   0.000000   0.000000   0.000000   0.049762
    9  S  1  Y   -0.000000   0.000000   0.571313   0.000000  -0.000001
   10  S  1  Z    0.000000   0.581862   0.000000   0.000000   0.000000
   11  S  1  X   -0.010862   0.000000   0.000001   0.000000   0.085804
   12  S  1  Y   -0.000000   0.000000   0.135374   0.000000   0.000001
   13  S  1  Z    0.000000   0.159252   0.000000  -0.000000   0.000000
   14  S  1 XX   -0.000000   0.000000  -0.024660   0.000000   0.000000
   15  S  1 YY    0.000000   0.000000   0.044388   0.000000   0.000000
   16  S  1 ZZ    0.000000   0.000000  -0.019729   0.000000  -0.000000
   17  S  1 XY    0.042525   0.000000   0.000000   0.000000  -0.102385
   18  S  1 XZ    0.000000  -0.000000   0.000000   0.109132   0.000000
   19  S  1 YZ    0.000000   0.037849   0.000000   0.000000   0.000000
   20  O  2  S    0.069128   0.000000   0.018564   0.000000   0.001110
   21  O  2  S   -0.147799   0.000000  -0.039982   0.000000  -0.000840
   22  O  2  S   -0.221459   0.000000  -0.063139   0.000000  -0.031972
   23  O  2  X   -0.327572   0.000000  -0.231718   0.000000   0.248011
   24  O  2  Y   -0.173020   0.000000   0.197461   0.000000  -0.396023
   25  O  2  Z    0.000000   0.301354   0.000000   0.466456   0.000000
   26  O  2  X   -0.165711   0.000000  -0.143010   0.000000   0.168093
   27  O  2  Y   -0.097854   0.000000   0.125619   0.000000  -0.277867
   28  O  2  Z    0.000000   0.184691   0.000000   0.331029   0.000000
   29  O  2 XX    0.009034   0.000000   0.016346   0.000000  -0.009875
   30  O  2 YY   -0.001096   0.000000  -0.011912   0.000000   0.010685
   31  O  2 ZZ   -0.007938   0.000000  -0.004434   0.000000  -0.000810
   32  O  2 XY    0.011792   0.000000  -0.007816   0.000000   0.013268
   33  O  2 XZ    0.000000  -0.017615   0.000000  -0.016583   0.000000
   34  O  2 YZ    0.000000  -0.006632   0.000000  -0.007004   0.000000
   35  O  3  S   -0.069128   0.000000   0.018564   0.000000  -0.001110
   36  O  3  S    0.147797   0.000000  -0.039983   0.000000   0.000840
   37  O  3  S    0.221460   0.000000  -0.063138   0.000000   0.031971
   38  O  3  X   -0.327572   0.000000   0.231719   0.000000   0.248010
   39  O  3  Y    0.173020   0.000000   0.197461   0.000000   0.396023
   40  O  3  Z    0.000000   0.301354   0.000000  -0.466456   0.000000
   41  O  3  X   -0.165709   0.000000   0.143011   0.000000   0.168092
   42  O  3  Y    0.097854   0.000000   0.125618   0.000000   0.277868
   43  O  3  Z    0.000000   0.184691   0.000000  -0.331029   0.000000
   44  O  3 XX   -0.009034   0.000000   0.016346   0.000000   0.009875
   45  O  3 YY    0.001096   0.000000  -0.011912   0.000000  -0.010685
   46  O  3 ZZ    0.007938   0.000000  -0.004434   0.000000   0.000810
   47  O  3 XY    0.011792   0.000000   0.007816   0.000000   0.013268
   48  O  3 XZ    0.000000   0.017615   0.000000  -0.016583   0.000000
   49  O  3 YZ    0.000000  -0.006632   0.000000   0.007003   0.000000

                     16         17         18         19         20
                   -0.2787    -0.1975    -0.1065     0.0348     0.2146
                     A          A          A          A          A   
    1  S  1  S    0.023600   0.000000   0.024803  -0.000000   0.000000
    2  S  1  S   -0.152985   0.000000  -0.165777   0.000000   0.000000
    3  S  1  S    0.192331   0.000000   0.249445  -0.000002   0.000000
    4  S  1  S    0.431152   0.000000   0.469510  -0.000003   0.000000
    5  S  1  X   -0.000000   0.000000   0.000000  -0.196542   0.000000
    6  S  1  Y    0.094039   0.000000  -0.200381  -0.000000   0.000000
    7  S  1  Z    0.000000  -0.224557   0.000000   0.000000   0.247768
    8  S  1  X    0.000000   0.000000   0.000001   0.617223   0.000000
    9  S  1  Y   -0.260394   0.000000   0.614990  -0.000000   0.000000
   10  S  1  Z    0.000000   0.660849   0.000000   0.000000  -0.981878
   11  S  1  X   -0.000001   0.000000  -0.000007   1.014813   0.000000
   12  S  1  Y   -0.019299   0.000000   0.406911   0.000000   0.000000
   13  S  1  Z    0.000000   0.274825   0.000000   0.000000   1.312002
   14  S  1 XX   -0.144075   0.000000  -0.130479  -0.000003   0.000000
   15  S  1 YY    0.078242   0.000000   0.017218   0.000001   0.000000
   16  S  1 ZZ    0.065833   0.000000   0.113261   0.000002   0.000000
   17  S  1 XY    0.000000   0.000000   0.000001  -0.183372   0.000000
   18  S  1 XZ    0.000000   0.000000   0.000000   0.000000   0.000000
   19  S  1 YZ    0.000000  -0.033311   0.000000   0.000000  -0.083879
   20  O  2  S    0.003182   0.000000   0.037044   0.062795   0.000000
   21  O  2  S   -0.007332   0.000000  -0.083872  -0.124175   0.000000
   22  O  2  S   -0.055596   0.000000  -0.244775  -0.566566   0.000000
   23  O  2  X    0.173457   0.000000   0.378403   0.158969   0.000000
   24  O  2  Y    0.408580   0.000000  -0.131358   0.243284   0.000000
   25  O  2  Z    0.000000  -0.394841   0.000000   0.000000  -0.059021
   26  O  2  X    0.122280   0.000000   0.329074   0.206406   0.000000
   27  O  2  Y    0.292323   0.000000  -0.107971   0.229044   0.000000
   28  O  2  Z    0.000000  -0.309340   0.000000   0.000000  -0.128040
   29  O  2 XX   -0.000321   0.000000   0.001554  -0.003922   0.000000
   30  O  2 YY   -0.002936   0.000000  -0.003157   0.006030   0.000000
   31  O  2 ZZ    0.003257   0.000000   0.001603  -0.002108   0.000000
   32  O  2 XY   -0.009797   0.000000  -0.003722   0.006252   0.000000
   33  O  2 XZ    0.000000   0.001549   0.000000   0.000000   0.015767
   34  O  2 YZ    0.000000  -0.000069   0.000000   0.000000   0.004738
   35  O  3  S    0.003182   0.000000   0.037045  -0.062794   0.000000
   36  O  3  S   -0.007333   0.000000  -0.083875   0.124166   0.000000
   37  O  3  S   -0.055596   0.000000  -0.244779   0.566576   0.000000
   38  O  3  X   -0.173457   0.000000  -0.378405   0.158964   0.000000
   39  O  3  Y    0.408579   0.000000  -0.131357  -0.243285   0.000000
   40  O  3  Z    0.000000  -0.394841   0.000000   0.000000  -0.059021
   41  O  3  X   -0.122280   0.000000  -0.329074   0.206412   0.000000
   42  O  3  Y    0.292323   0.000000  -0.107969  -0.229047   0.000000
   43  O  3  Z    0.000000  -0.309340   0.000000   0.000000  -0.128040
   44  O  3 XX   -0.000321   0.000000   0.001554   0.003922   0.000000
   45  O  3 YY   -0.002936   0.000000  -0.003157  -0.006030   0.000000
   46  O  3 ZZ    0.003257   0.000000   0.001603   0.002108   0.000000
   47  O  3 XY    0.009797   0.000000   0.003722   0.006252   0.000000
   48  O  3 XZ    0.000000  -0.001549   0.000000   0.000000  -0.015767
   49  O  3 YZ    0.000000  -0.000069   0.000000   0.000000   0.004738

                     21         22         23         24         25
                    0.2225     0.2399     0.2680     0.5023     0.5025
                     A          A          A          A          A   
    1  S  1  S    0.015464  -0.066479  -0.000001   0.000000   0.000000
    2  S  1  S   -0.112691   0.488672   0.000007   0.000000   0.000000
    3  S  1  S    0.372202  -1.876559  -0.000028   0.000000   0.000000
    4  S  1  S   -0.297779   2.168815   0.000023   0.000000   0.000000
    5  S  1  X   -0.000001  -0.000005   0.287286   0.000000   0.000000
    6  S  1  Y    0.245752   0.035676   0.000002   0.000000   0.000000
    7  S  1  Z    0.000000   0.000000   0.000000  -0.000002   0.025139
    8  S  1  X    0.000004   0.000021  -1.102686   0.000000   0.000000
    9  S  1  Y   -0.969965  -0.131775  -0.000007   0.000000   0.000000
   10  S  1  Z    0.000000   0.000000   0.000000   0.000006  -0.103086
   11  S  1  X   -0.000004  -0.000020   1.430511   0.000000   0.000000
   12  S  1  Y    1.295230   0.421617   0.000008   0.000000   0.000000
   13  S  1  Z    0.000000   0.000000   0.000000  -0.000005   0.079535
   14  S  1 XX    0.100427  -0.005065  -0.000004   0.000000   0.000000
   15  S  1 YY   -0.112516  -0.031668   0.000001   0.000000   0.000000
   16  S  1 ZZ    0.012088   0.036732   0.000004   0.000000   0.000000
   17  S  1 XY    0.000000   0.000001   0.141387   0.000000   0.000000
   18  S  1 XZ    0.000000   0.000000   0.000000   0.856346   0.000054
   19  S  1 YZ    0.000000   0.000000   0.000000  -0.000061   0.961018
   20  O  2  S    0.004535   0.020551   0.005930   0.000000   0.000000
   21  O  2  S    0.010567  -0.020045   0.046771   0.000000   0.000000
   22  O  2  S   -0.134217  -0.426018  -0.428361   0.000000   0.000000
   23  O  2  X   -0.038682  -0.130766  -0.258170   0.000000   0.000000
   24  O  2  Y   -0.051036  -0.108334  -0.100988   0.000000   0.000000
   25  O  2  Z    0.000000   0.000000   0.000000  -0.360479  -0.180662
   26  O  2  X    0.025705   0.141099  -0.086535   0.000000   0.000000
   27  O  2  Y   -0.113317   0.013345   0.004822   0.000000   0.000000
   28  O  2  Z    0.000000   0.000000   0.000000   0.146054   0.076406
   29  O  2 XX   -0.016536  -0.031590  -0.024200   0.000000   0.000000
   30  O  2 YY    0.011689   0.010391   0.003476   0.000000   0.000000
   31  O  2 ZZ    0.004847   0.021198   0.020724   0.000000   0.000000
   32  O  2 XY    0.008261  -0.023853  -0.031289   0.000000   0.000000
   33  O  2 XZ    0.000000   0.000000   0.000000  -0.053936  -0.033401
   34  O  2 YZ    0.000000   0.000000   0.000000  -0.032135   0.013148
   35  O  3  S    0.004535   0.020552  -0.005928   0.000000   0.000000
   36  O  3  S    0.010565  -0.020052  -0.046782   0.000000   0.000000
   37  O  3  S   -0.134216  -0.426019   0.428365   0.000000   0.000000
   38  O  3  X    0.038683   0.130770  -0.258171   0.000000   0.000000
   39  O  3  Y   -0.051037  -0.108338   0.100984   0.000000   0.000000
   40  O  3  Z    0.000000   0.000000   0.000000   0.360501  -0.180616
   41  O  3  X   -0.025702  -0.141088  -0.086527   0.000000   0.000000
   42  O  3  Y   -0.113317   0.013343  -0.004825   0.000000   0.000000
   43  O  3  Z    0.000000   0.000000   0.000000  -0.146064   0.076388
   44  O  3 XX   -0.016536  -0.031590   0.024200   0.000000   0.000000
   45  O  3 YY    0.011689   0.010391  -0.003476   0.000000   0.000000
   46  O  3 ZZ    0.004848   0.021199  -0.020724   0.000000   0.000000
   47  O  3 XY   -0.008261   0.023853  -0.031289   0.000000   0.000000
   48  O  3 XZ    0.000000   0.000000   0.000000  -0.053940   0.033394
   49  O  3 YZ    0.000000   0.000000   0.000000   0.032134   0.013152

                     26         27         28         29         30
                    0.5049     0.6296     0.6653     0.7849     0.7953
                     A          A          A          A          A   
    1  S  1  S    0.000119  -0.000000   0.012269   0.000000  -0.000000
    2  S  1  S   -0.000335   0.000000  -0.097171   0.000000   0.000000
    3  S  1  S   -0.012418  -0.000000   0.278227   0.000000  -0.000002
    4  S  1  S    0.034891  -0.000011   0.833365   0.000000  -0.000004
    5  S  1  X   -0.000000  -0.134424  -0.000001   0.000000  -0.043357
    6  S  1  Y    0.026449   0.000000  -0.069081   0.000000   0.000000
    7  S  1  Z    0.000000   0.000000   0.000000   0.000000   0.000000
    8  S  1  X    0.000001   0.659189   0.000005   0.000000   0.323478
    9  S  1  Y   -0.109312  -0.000002   0.355153   0.000000  -0.000001
   10  S  1  Z    0.000000   0.000000   0.000000  -0.000000   0.000000
   11  S  1  X   -0.000000   0.266170   0.000006   0.000000  -0.273025
   12  S  1  Y    0.096841  -0.000002   0.134873   0.000000   0.000001
   13  S  1  Z    0.000000   0.000000   0.000000   0.000000   0.000000
   14  S  1 XX   -0.118889  -0.000004   0.727654   0.000000  -0.000002
   15  S  1 YY    0.874934   0.000001  -0.205718   0.000000   0.000002
   16  S  1 ZZ   -0.756044   0.000003  -0.521936   0.000000  -0.000000
   17  S  1 XY    0.000000   0.808461   0.000005   0.000000   0.221957
   18  S  1 XZ    0.000000   0.000000   0.000000  -0.533657   0.000000
   19  S  1 YZ    0.000000   0.000000   0.000000  -0.000000   0.000000
   20  O  2  S    0.002528   0.066663   0.074912   0.000000   0.001081
   21  O  2  S   -0.011224  -0.246192  -0.293343   0.000000   0.056211
   22  O  2  S   -0.012551  -0.246897  -0.243388   0.000000  -0.072662
   23  O  2  X    0.078420   0.005182  -0.295069   0.000000  -0.432904
   24  O  2  Y   -0.193073  -0.269618   0.056936   0.000000   0.430637
   25  O  2  Z    0.000000   0.000000   0.000000  -0.545516   0.000000
   26  O  2  X   -0.029292   0.557988   0.875743   0.000000   0.710259
   27  O  2  Y    0.083433   0.423780   0.200467   0.000000  -0.486372
   28  O  2  Z    0.000000   0.000000   0.000000   0.766477   0.000000
   29  O  2 XX    0.018527   0.048047   0.003348   0.000000   0.038636
   30  O  2 YY    0.000912  -0.039418   0.013402   0.000000  -0.021297
   31  O  2 ZZ   -0.019439  -0.008630  -0.016751   0.000000  -0.017339
   32  O  2 XY   -0.031089  -0.008774   0.025210   0.000000   0.005143
   33  O  2 XZ    0.000000   0.000000   0.000000   0.055873   0.000000
   34  O  2 YZ    0.000000   0.000000   0.000000   0.029905   0.000000
   35  O  3  S    0.002528  -0.066663   0.074911   0.000000  -0.001082
   36  O  3  S   -0.011225   0.246191  -0.293343   0.000000  -0.056199
   37  O  3  S   -0.012550   0.246908  -0.243377   0.000000   0.072653
   38  O  3  X   -0.078421   0.005175   0.295058   0.000000  -0.432912
   39  O  3  Y   -0.193073   0.269619   0.056935   0.000000  -0.430628
   40  O  3  Z    0.000000   0.000000   0.000000   0.545515   0.000000
   41  O  3  X    0.029293   0.558004  -0.875722   0.000000   0.710271
   42  O  3  Y    0.083432  -0.423784   0.200465   0.000000   0.486360
   43  O  3  Z    0.000000   0.000000   0.000000  -0.766477   0.000000
   44  O  3 XX    0.018527  -0.048048   0.003348   0.000000  -0.038636
   45  O  3 YY    0.000912   0.039418   0.013403   0.000000   0.021297
   46  O  3 ZZ   -0.019439   0.008630  -0.016750   0.000000   0.017339
   47  O  3 XY    0.031089  -0.008774  -0.025210   0.000000   0.005144
   48  O  3 XZ    0.000000   0.000000   0.000000   0.055873   0.000000
   49  O  3 YZ    0.000000   0.000000   0.000000  -0.029905   0.000000

                     31         32         33         34         35
                    0.8279     0.8490     0.8584     0.8989     1.4521
                     A          A          A          A          A   
    1  S  1  S    0.007573   0.000000   0.000000  -0.006297  -0.002584
    2  S  1  S   -0.065988   0.000000  -0.000000   0.062003   0.028375
    3  S  1  S    0.349559   0.000000   0.000002  -0.488581   0.143872
    4  S  1  S   -0.032263   0.000000  -0.000002   0.430225  -1.674326
    5  S  1  X   -0.000000   0.000000   0.005176   0.000000  -0.000132
    6  S  1  Y   -0.008008   0.000000   0.000000  -0.024819   0.039822
    7  S  1  Z    0.000000   0.000876   0.000000   0.000000   0.000000
    8  S  1  X    0.000002   0.000000  -0.243283  -0.000001   0.000907
    9  S  1  Y    0.081355   0.000000   0.000000   0.028132  -0.265729
   10  S  1  Z    0.000000  -0.011308   0.000000   0.000000   0.000000
   11  S  1  X   -0.000002   0.000000   0.210789   0.000003   0.001990
   12  S  1  Y   -0.506687   0.000000  -0.000001  -0.088106  -0.551870
   13  S  1  Z    0.000000  -0.566269   0.000000   0.000000   0.000000
   14  S  1 XX    0.086578   0.000000  -0.000001   0.817239  -0.332756
   15  S  1 YY   -0.281634   0.000000   0.000000  -0.373627   0.065746
   16  S  1 ZZ    0.195056   0.000000   0.000001  -0.443612   0.267010
   17  S  1 XY    0.000001   0.000000   0.622019   0.000000   0.000440
   18  S  1 XZ    0.000000   0.000000   0.000000   0.000000   0.000000
   19  S  1 YZ    0.000000  -0.272397   0.000000   0.000000   0.000000
   20  O  2  S   -0.008319   0.000000   0.003284   0.016799   0.071789
   21  O  2  S    0.096967   0.000000   0.038901   0.001616  -1.202836
   22  O  2  S   -0.054850   0.000000  -0.163775  -0.229784   1.878061
   23  O  2  X   -0.006904   0.000000   0.465577   0.541357   0.117025
   24  O  2  Y   -0.607864   0.000000   0.357323   0.072703  -0.063818
   25  O  2  Z    0.000000  -0.615661   0.000000   0.000000   0.000000
   26  O  2  X    0.035439   0.000000  -0.442549  -0.439035  -0.716870
   27  O  2  Y    0.881934   0.000000  -0.487438   0.144900  -0.027097
   28  O  2  Z    0.000000   0.903925   0.000000   0.000000   0.000000
   29  O  2 XX    0.001141   0.000000   0.025206  -0.045440  -0.154293
   30  O  2 YY    0.004225   0.000000  -0.042846   0.051467   0.061540
   31  O  2 ZZ   -0.005366   0.000000   0.017640  -0.006027   0.092753
   32  O  2 XY    0.041125   0.000000  -0.053862   0.046729  -0.071476
   33  O  2 XZ    0.000000   0.038396   0.000000   0.000000   0.000000
   34  O  2 YZ    0.000000   0.005321   0.000000   0.000000   0.000000
   35  O  3  S   -0.008320   0.000000  -0.003284   0.016800   0.072063
   36  O  3  S    0.096971   0.000000  -0.038910   0.001606  -1.207299
   37  O  3  S   -0.054855   0.000000   0.163786  -0.229772   1.885114
   38  O  3  X    0.006897   0.000000   0.465581  -0.541351  -0.117036
   39  O  3  Y   -0.607868   0.000000  -0.357325   0.072704  -0.063426
   40  O  3  Z    0.000000  -0.615662   0.000000   0.000000   0.000000
   41  O  3  X   -0.035428   0.000000  -0.442553   0.439028   0.718220
   42  O  3  Y    0.881939   0.000000   0.487440   0.144898  -0.028508
   43  O  3  Z    0.000000   0.903925   0.000000   0.000000   0.000000
   44  O  3 XX    0.001141   0.000000  -0.025205  -0.045440  -0.154676
   45  O  3 YY    0.004225   0.000000   0.042846   0.051467   0.061660
   46  O  3 ZZ   -0.005366   0.000000  -0.017640  -0.006027   0.093016
   47  O  3 XY   -0.041125   0.000000  -0.053862  -0.046729   0.071857
   48  O  3 XZ    0.000000  -0.038396   0.000000   0.000000   0.000000
   49  O  3 YZ    0.000000   0.005321   0.000000   0.000000   0.000000

                     36         37         38         39         40
                    1.4530     2.0671     2.0672     2.0730     2.0790
                     A          A          A          A          A   
    1  S  1  S   -0.000005  -0.000000   0.000000   0.000000  -0.001094
    2  S  1  S    0.000052   0.000000   0.000000   0.000000   0.008932
    3  S  1  S    0.000252  -0.000000   0.000000   0.000000  -0.034702
    4  S  1  S   -0.002993   0.000000   0.000000   0.000000   0.018308
    5  S  1  X    0.073336  -0.001271   0.000000   0.000000  -0.000000
    6  S  1  Y    0.000071   0.000000   0.000000   0.000000   0.005730
    7  S  1  Z    0.000000   0.000000  -0.000000  -0.019014   0.000000
    8  S  1  X   -0.504482   0.001541   0.000000   0.000000   0.000000
    9  S  1  Y   -0.000476  -0.000000   0.000000   0.000000  -0.023867
   10  S  1  Z    0.000000   0.000000   0.000000   0.064557   0.000000
   11  S  1  X   -1.116216   0.017312   0.000000   0.000000  -0.000000
   12  S  1  Y   -0.000986   0.000000   0.000000   0.000000   0.008111
   13  S  1  Z    0.000000   0.000000   0.000000   0.013514   0.000000
   14  S  1 XX   -0.000593   0.000000   0.000000   0.000000   0.028194
   15  S  1 YY    0.000117   0.000000   0.000000   0.000000   0.045121
   16  S  1 ZZ    0.000476  -0.000000   0.000000   0.000000  -0.073315
   17  S  1 XY   -0.246973  -0.029566   0.000000   0.000000   0.000000
   18  S  1 XZ    0.000000   0.000000   0.024551  -0.000000   0.000000
   19  S  1 YZ    0.000000   0.000000  -0.000000  -0.017842   0.000000
   20  O  2  S    0.076459  -0.001154   0.000000   0.000000   0.001904
   21  O  2  S   -1.246875   0.009913   0.000000   0.000000  -0.011679
   22  O  2  S    1.972890  -0.012253   0.000000   0.000000   0.001815
   23  O  2  X    0.002059   0.002809   0.000000   0.000000   0.013798
   24  O  2  Y    0.109711  -0.009254   0.000000   0.000000   0.003072
   25  O  2  Z    0.000000   0.000000   0.005475   0.016410   0.000000
   26  O  2  X   -0.376582  -0.009115   0.000000   0.000000  -0.012318
   27  O  2  Y   -0.394588   0.013011   0.000000   0.000000  -0.003145
   28  O  2  Z    0.000000   0.000000  -0.008774  -0.026433   0.000000
   29  O  2 XX   -0.107055   0.181021   0.000000   0.000000  -0.029404
   30  O  2 YY    0.033809   0.426354   0.000000   0.000000  -0.565079
   31  O  2 ZZ    0.073246  -0.607375   0.000000   0.000000   0.594483
   32  O  2 XY   -0.106263  -0.333638   0.000000   0.000000   0.225709
   33  O  2 XZ    0.000000   0.000000   0.367081  -0.015352   0.000000
   34  O  2 YZ    0.000000   0.000000  -0.604515   0.707804   0.000000
   35  O  3  S   -0.076201   0.001154   0.000000   0.000000   0.001904
   36  O  3  S    1.242554  -0.009913   0.000000   0.000000  -0.011679
   37  O  3  S   -1.966150   0.012253   0.000000   0.000000   0.001814
   38  O  3  X    0.001637   0.002809   0.000000   0.000000  -0.013798
   39  O  3  Y   -0.109937   0.009254   0.000000   0.000000   0.003072
   40  O  3  Z    0.000000   0.000000  -0.005475   0.016410   0.000000
   41  O  3  X   -0.374009  -0.009115   0.000000   0.000000   0.012318
   42  O  3  Y    0.394487  -0.013011   0.000000   0.000000  -0.003145
   43  O  3  Z    0.000000   0.000000   0.008774  -0.026433   0.000000
   44  O  3 XX    0.106499  -0.181021   0.000000   0.000000  -0.029403
   45  O  3 YY   -0.033587  -0.426357   0.000000   0.000000  -0.565077
   46  O  3 ZZ   -0.072912   0.607378   0.000000   0.000000   0.594480
   47  O  3 XY   -0.106006  -0.333639   0.000000   0.000000  -0.225707
   48  O  3 XZ    0.000000   0.000000   0.367082   0.015349   0.000000
   49  O  3 YZ    0.000000   0.000000   0.604521   0.707799   0.000000

                     41         42         43         44         45
                    2.1229     2.1543     2.2143     2.2340     2.6386
                     A          A          A          A          A   
    1  S  1  S    0.000000  -0.000000  -0.005679   0.000000  -0.032371
    2  S  1  S    0.000000   0.000000   0.046385   0.000000   0.254840
    3  S  1  S    0.000000  -0.000001  -0.122964   0.000000  -0.620588
    4  S  1  S    0.000000   0.000001  -0.195838   0.000000  -0.807343
    5  S  1  X    0.000000   0.045636  -0.000000   0.000000  -0.000001
    6  S  1  Y    0.000000   0.000000   0.062714   0.000000   0.081935
    7  S  1  Z    0.049054   0.000000   0.000000  -0.000000   0.000000
    8  S  1  X    0.000000  -0.220363   0.000000   0.000000   0.000005
    9  S  1  Y    0.000000  -0.000000  -0.248242   0.000000  -0.438112
   10  S  1  Z   -0.165465   0.000000   0.000000   0.000000   0.000000
   11  S  1  X    0.000000  -0.028873  -0.000002   0.000000  -0.000003
   12  S  1  Y    0.000000   0.000000  -0.133306   0.000000  -0.089084
   13  S  1  Z   -0.068445   0.000000   0.000000  -0.000000   0.000000
   14  S  1 XX    0.000000   0.000000   0.173635   0.000000  -0.690257
   15  S  1 YY    0.000000  -0.000000  -0.244772   0.000000   0.278828
   16  S  1 ZZ    0.000000  -0.000000   0.071136   0.000000   0.411429
   17  S  1 XY    0.000000   0.253414  -0.000000   0.000000   0.000001
   18  S  1 XZ    0.000000   0.000000   0.000000   0.403065   0.000000
   19  S  1 YZ   -0.184644   0.000000   0.000000   0.000000   0.000000
   20  O  2  S    0.000000   0.008245   0.011088   0.000000   0.004843
   21  O  2  S    0.000000  -0.117317  -0.186130   0.000000  -0.495228
   22  O  2  S    0.000000   0.156129   0.283338   0.000000   1.025153
   23  O  2  X    0.000000   0.039274   0.082535   0.000000   0.029135
   24  O  2  Y    0.000000   0.059567  -0.032941   0.000000   0.008802
   25  O  2  Z   -0.053015   0.000000   0.000000   0.040477   0.000000
   26  O  2  X    0.000000  -0.064432  -0.205409   0.000000  -0.591623
   27  O  2  Y    0.000000  -0.121870   0.090251   0.000000  -0.257530
   28  O  2  Z    0.109596   0.000000   0.000000  -0.117415   0.000000
   29  O  2 XX    0.000000  -0.322418   0.541357   0.000000   0.513523
   30  O  2 YY    0.000000   0.490858  -0.419992   0.000000  -0.108747
   31  O  2 ZZ    0.000000  -0.168440  -0.121365   0.000000  -0.404776
   32  O  2 XY    0.000000   0.510985  -0.440436   0.000000   0.579871
   33  O  2 XZ   -0.716728   0.000000   0.000000   0.621823   0.000000
   34  O  2 YZ   -0.021069   0.000000   0.000000   0.373634   0.000000
   35  O  3  S    0.000000  -0.008245   0.011088   0.000000   0.004843
   36  O  3  S    0.000000   0.117317  -0.186129   0.000000  -0.495230
   37  O  3  S    0.000000  -0.156130   0.283336   0.000000   1.025156
   38  O  3  X    0.000000   0.039274  -0.082536   0.000000  -0.029136
   39  O  3  Y    0.000000  -0.059567  -0.032941   0.000000   0.008802
   40  O  3  Z   -0.053015   0.000000   0.000000  -0.040477   0.000000
   41  O  3  X    0.000000  -0.064431   0.205409   0.000000   0.591629
   42  O  3  Y    0.000000   0.121870   0.090252   0.000000  -0.257530
   43  O  3  Z    0.109596   0.000000   0.000000   0.117415   0.000000
   44  O  3 XX    0.000000   0.322419   0.541357   0.000000   0.513529
   45  O  3 YY    0.000000  -0.490859  -0.419992   0.000000  -0.108750
   46  O  3 ZZ    0.000000   0.168439  -0.121365   0.000000  -0.404779
   47  O  3 XY    0.000000   0.510986   0.440434   0.000000  -0.579875
   48  O  3 XZ    0.716728   0.000000   0.000000   0.621823   0.000000
   49  O  3 YZ   -0.021069   0.000000   0.000000  -0.373634   0.000000

                     46
                    2.6529
                     A   
    1  S  1  S    0.000000
    2  S  1  S   -0.000001
    3  S  1  S    0.000004
    4  S  1  S    0.000001
    5  S  1  X   -0.209598
    6  S  1  Y   -0.000000
    7  S  1  Z    0.000000
    8  S  1  X    1.075243
    9  S  1  Y    0.000002
   10  S  1  Z    0.000000
   11  S  1  X    0.172182
   12  S  1  Y   -0.000000
   13  S  1  Z    0.000000
   14  S  1 XX    0.000002
   15  S  1 YY   -0.000001
   16  S  1 ZZ   -0.000001
   17  S  1 XY    0.522214
   18  S  1 XZ    0.000000
   19  S  1 YZ    0.000000
   20  O  2  S   -0.004239
   21  O  2  S    0.435360
   22  O  2  S   -0.914223
   23  O  2  X   -0.022536
   24  O  2  Y   -0.013832
   25  O  2  Z    0.000000
   26  O  2  X    0.555955
   27  O  2  Y    0.221732
   28  O  2  Z    0.000000
   29  O  2 XX   -0.680750
   30  O  2 YY    0.319823
   31  O  2 ZZ    0.360927
   32  O  2 XY   -0.400424
   33  O  2 XZ    0.000000
   34  O  2 YZ    0.000000
   35  O  3  S    0.004239
   36  O  3  S   -0.435355
   37  O  3  S    0.914215
   38  O  3  X   -0.022536
   39  O  3  Y    0.013831
   40  O  3  Z    0.000000
   41  O  3  X    0.555950
   42  O  3  Y   -0.221730
   43  O  3  Z    0.000000
   44  O  3 XX    0.680745
   45  O  3 YY   -0.319822
   46  O  3 ZZ   -0.360923
   47  O  3 XY   -0.400419
   48  O  3 XZ    0.000000
   49  O  3 YZ    0.000000
 ...... END OF RHF CALCULATION ......
 STEP CPU TIME =     2.46 TOTAL CPU TIME =          2.6 (      0.0 MIN)
 TOTAL WALL CLOCK TIME=          2.7 SECONDS, CPU UTILIZATION IS    98.12%

     ---------------------------------------------------------------------
     PROPERTIES FOR THE PBE      DFT FUNCTIONAL (RHF  TYPE) DENSITY MATRIX
     ---------------------------------------------------------------------

          -----------------
          ENERGY COMPONENTS
          -----------------

         WAVEFUNCTION NORMALIZATION =       1.0000000000

                ONE ELECTRON ENERGY =    -946.4839479849
                TWO ELECTRON ENERGY =     302.1403281225
           NUCLEAR REPULSION ENERGY =      96.1239064214
                                      ------------------
                       TOTAL ENERGY =    -548.2197134411

 ELECTRON-ELECTRON POTENTIAL ENERGY =     302.1403281225
  NUCLEUS-ELECTRON POTENTIAL ENERGY =   -1493.4326586774
   NUCLEUS-NUCLEUS POTENTIAL ENERGY =      96.1239064214
                                      ------------------
             TOTAL POTENTIAL ENERGY =   -1095.1684241336
               TOTAL KINETIC ENERGY =     546.9487106925
                 VIRIAL RATIO (V/T) =       2.0023238061

          ---------------------------------------
          MULLIKEN AND LOWDIN POPULATION ANALYSES
          ---------------------------------------

     ATOMIC MULLIKEN POPULATION IN EACH MOLECULAR ORBITAL

                      1          2          3          4          5

                  2.000000   2.000000   2.000000   2.000000   2.000000

    1             1.999959   0.001004   0.000888   2.000759   2.000356
    2             0.000020   1.002560   0.996494  -0.000380  -0.000178
    3             0.000020   0.996436   1.002618  -0.000380  -0.000178

                      6          7          8          9         10

                  2.000000   2.000000   2.000000   2.000000   2.000000

    1             2.000013   2.000047   0.632140   0.308476   1.028071
    2            -0.000007  -0.000023   0.683926   0.845766   0.485963
    3            -0.000007  -0.000023   0.683934   0.845758   0.485966

                     11         12         13         14         15

                  2.000000   2.000000   2.000000   2.000000   2.000000

    1             0.497571   1.079350   1.051010   0.072388   0.104657
    2             0.751216   0.460325   0.474494   0.963806   0.947672
    3             0.751213   0.460325   0.474496   0.963805   0.947671

                     16

                  2.000000

    1             0.526633
    2             0.736684
    3             0.736683

               ----- POPULATIONS IN EACH AO -----
                             MULLIKEN      LOWDIN
              1  S  1  S      1.99983     1.99927
              2  S  1  S      1.99248     1.88804
              3  S  1  S      1.34643     0.68464
              4  S  1  S      0.57429     0.47753
              5  S  1  X      1.99368     1.95653
              6  S  1  Y      1.99472     1.96515
              7  S  1  Z      1.99384     1.96027
              8  S  1  X      0.80394     0.67383
              9  S  1  Y      0.99415     0.91369
             10  S  1  Z      0.85686     0.77052
             11  S  1  X      0.01895     0.19332
             12  S  1  Y      0.17226     0.30499
             13  S  1  Z      0.22162     0.32878
             14  S  1 XX      0.03933     0.32528
             15  S  1 YY      0.12601     0.31065
             16  S  1 ZZ      0.09550     0.30979
             17  S  1 XY      0.07239     0.11163
             18  S  1 XZ      0.00705     0.08590
             19  S  1 YZ      0.00000     0.00677
             20  O  2  S      1.99565     1.97286
             21  O  2  S      0.96327     0.70671
             22  O  2  S      0.95807     0.54092
             23  O  2  X      0.82650     0.78555
             24  O  2  Y      1.08229     1.05120
             25  O  2  Z      0.84728     0.81255
             26  O  2  X      0.42735     0.55293
             27  O  2  Y      0.66018     0.70423
             28  O  2  Z      0.57238     0.60548
             29  O  2 XX      0.00171     0.21219
             30  O  2 YY      0.00497     0.20206
             31  O  2 ZZ      0.00422     0.20676
             32  O  2 XY      0.00385     0.00740
             33  O  2 XZ      0.00062     0.00505
             34  O  2 YZ      0.00000     0.00080
             35  O  3  S      1.99565     1.97286
             36  O  3  S      0.96327     0.70671
             37  O  3  S      0.95808     0.54092
             38  O  3  X      0.82650     0.78555
             39  O  3  Y      1.08229     1.05120
             40  O  3  Z      0.84728     0.81255
             41  O  3  X      0.42735     0.55293
             42  O  3  Y      0.66018     0.70423
             43  O  3  Z      0.57238     0.60548
             44  O  3 XX      0.00171     0.21219
             45  O  3 YY      0.00497     0.20206
             46  O  3 ZZ      0.00422     0.20676
             47  O  3 XY      0.00385     0.00740
             48  O  3 XZ      0.00062     0.00505
             49  O  3 YZ      0.00000     0.00080

          ----- MULLIKEN ATOMIC OVERLAP POPULATIONS -----
          (OFF-DIAGONAL ELEMENTS NEED TO BE MULTIPLIED BY 2)

             1           2           3

    1   14.7862519
    2    0.2585361   8.0955112
    3    0.2585347  -0.0057087   8.0955128

          TOTAL MULLIKEN AND LOWDIN ATOMIC POPULATIONS
       ATOM         MULL.POP.    CHARGE          LOW.POP.     CHARGE
    1 S            15.303323    0.696677        15.266589    0.733411
    2 O             8.348339   -0.348339         8.366706   -0.366706
    3 O             8.348339   -0.348339         8.366706   -0.366706

          MULLIKEN SPHERICAL HARMONIC POPULATIONS
       ATOM           S       P       D      F      G      H      I    TOTAL
    1 S             5.91    9.05    0.34   0.00   0.00   0.00   0.00   15.30
    2 O             3.92    4.42    0.02   0.00   0.00   0.00   0.00    8.35
    3 O             3.92    4.42    0.02   0.00   0.00   0.00   0.00    8.35

          -------------------------------
          BOND ORDER AND VALENCE ANALYSIS     BOND ORDER THRESHOLD=0.050
          -------------------------------

                   BOND                       BOND                       BOND
  ATOM PAIR DIST  ORDER      ATOM PAIR DIST  ORDER      ATOM PAIR DIST  ORDER
    1   2  1.600  1.756        1   3  1.600  1.756        2   3  2.956  0.381

                       TOTAL       BONDED        FREE
      ATOM            VALENCE     VALENCE     VALENCE
    1 S                 3.512       3.512      -0.000
    2 O                 2.137       2.137       0.000
    3 O                 2.137       2.137       0.000

          ---------------------
          ELECTROSTATIC MOMENTS
          ---------------------

 POINT   1           X           Y           Z (BOHR)    CHARGE
                -0.000000   -0.000000    0.000000        0.00 (A.U.)
         DX          DY          DZ         /D/  (DEBYE)
    -0.000001   -1.227789    0.000000    1.227789
 ...... END OF PROPERTY EVALUATION ......
 STEP CPU TIME =     0.00 TOTAL CPU TIME =          2.6 (      0.0 MIN)
 TOTAL WALL CLOCK TIME=          2.7 SECONDS, CPU UTILIZATION IS    98.12%
                580000  WORDS OF DYNAMIC MEMORY USED
 EXECUTION OF GAMESS TERMINATED NORMALLY Sun Sep 29 10:51:49 2019
 DDI: 263640 bytes (0.3 MB / 0 MWords) used by master data server.

 ----------------------------------------
 CPU timing information for all processes
 ========================================
 0: 2.546 + 0.78 = 2.625
 ----------------------------------------
 ddikick.x: exited gracefully.
----- accounting info -----
Files used on the master node crcfe02.crc.nd.edu were:
-rw-r--r-- 1 cdrisko campus     208 Sep 29 10:51 /afs/crc.nd.edu/user/c/cdrisko/SO2.F05
-rw-r--r-- 1 cdrisko campus   37566 Sep 29 10:51 /afs/crc.nd.edu/user/c/cdrisko/SO2.F07
-rw-r--r-- 1 cdrisko campus 3960352 Sep 29 10:51 /afs/crc.nd.edu/user/c/cdrisko/SO2.F08
-rw-r--r-- 1 cdrisko campus 1766880 Sep 29 10:51 /afs/crc.nd.edu/user/c/cdrisko/SO2.F10
Sun Sep 29 10:51:52 EDT 2019
0.452u 0.237s 0:06.31 10.7%	0+0k 0+24io 0pf+0w
