   4   4   0   0
  0.1427407E+02  0.3850667E-09  0.3850667E-09  0.3850667E-09  0.5000000E-15
  1.000000000000000E-004
  CAR 
 unknown system                          
     39.46446687     -4.54734789  301      5.37078440      1.00000000
     -4.547  0.0000E+00  0.0000E+00
     -4.401  0.0000E+00  0.0000E+00
     -4.254  0.0000E+00  0.0000E+00
     -4.107  0.0000E+00  0.0000E+00
     -3.961  0.0000E+00  0.0000E+00
     -3.814  0.0000E+00  0.0000E+00
     -3.667  0.0000E+00  0.0000E+00
     -3.520  0.0000E+00  0.0000E+00
     -3.374 -0.8811E-31 -0.1293E-31
     -3.227 -0.2899E-21 -0.4254E-22
     -3.080 -0.1186E-13 -0.1740E-14
     -2.934 -0.6081E-08 -0.8921E-09
     -2.787 -0.3347E-04 -0.4912E-05
     -2.640 -0.6584E-03 -0.1015E-03
     -2.493  0.1772E-01  0.2498E-02
     -2.347  0.1243E+00  0.2073E-01
     -2.200  0.2380E+00  0.5564E-01
     -2.053  0.1505E+00  0.7772E-01
     -1.907  0.2724E+00  0.1177E+00
     -1.760  0.5508E+00  0.1985E+00
     -1.613  0.1663E+00  0.2229E+00
     -1.467  0.2182E+00  0.2549E+00
     -1.320  0.6121E+00  0.3447E+00
     -1.173  0.5517E+00  0.4256E+00
     -1.026  0.3861E+00  0.4823E+00
     -0.880  0.4025E+00  0.5413E+00
     -0.733  0.9522E+00  0.6810E+00
     -0.586  0.5681E-01  0.6894E+00
     -0.440  0.6474E+00  0.7843E+00
     -0.293  0.9541E+00  0.9243E+00
     -0.146  0.6004E+00  0.1012E+01
      0.001  0.9943E+00  0.1158E+01
      0.147  0.7405E+00  0.1267E+01
      0.294  0.2740E+00  0.1307E+01
      0.441  0.8976E+00  0.1439E+01
      0.587  0.1634E+01  0.1679E+01
      0.734  0.1044E+01  0.1832E+01
      0.881  0.1224E+01  0.2011E+01
      1.027  0.9373E+00  0.2149E+01
      1.174  0.1765E+01  0.2408E+01
      1.321  0.3118E+01  0.2865E+01
      1.468  0.2456E+01  0.3226E+01
      1.614  0.4604E+01  0.3901E+01
      1.761  0.6101E+01  0.4796E+01
      1.908  0.5889E+01  0.5660E+01
      2.054  0.9606E+01  0.7069E+01
      2.201  0.1123E+02  0.8717E+01
      2.348  0.1126E+02  0.1037E+02
      2.495  0.1114E+02  0.1200E+02
      2.641  0.1206E+02  0.1377E+02
      2.788  0.1732E+02  0.1631E+02
      2.935  0.1764E+02  0.1890E+02
      3.081  0.2460E+02  0.2251E+02
      3.228  0.1821E+02  0.2518E+02
      3.375  0.1358E+02  0.2717E+02
      3.521  0.1979E+02  0.3008E+02
      3.668  0.1858E+02  0.3280E+02
      3.815  0.1774E+02  0.3541E+02
      3.962  0.2545E+02  0.3914E+02
      4.108  0.1789E+02  0.4176E+02
      4.255  0.3161E+01  0.4223E+02
      4.402  0.1029E+01  0.4238E+02
      4.548  0.1873E+01  0.4265E+02
      4.695  0.1961E+01  0.4294E+02
      4.842  0.1450E+01  0.4315E+02
      4.989 -0.6996E-03  0.4315E+02
      5.135  0.2529E+01  0.4352E+02
      5.282  0.2304E+01  0.4386E+02
      5.429  0.1456E+01  0.4408E+02
      5.575  0.5909E+00  0.4416E+02
      5.722  0.5040E+00  0.4424E+02
      5.869  0.1096E+01  0.4440E+02
      6.015  0.2280E+01  0.4473E+02
      6.162  0.1146E+01  0.4490E+02
      6.309  0.1808E+01  0.4517E+02
      6.456  0.7331E+00  0.4527E+02
      6.602  0.1005E+01  0.4542E+02
      6.749  0.8994E+00  0.4555E+02
      6.896  0.2275E+00  0.4559E+02
      7.042  0.1899E+01  0.4586E+02
      7.189  0.1606E+01  0.4610E+02
      7.336  0.5152E+00  0.4618E+02
      7.483  0.1916E+01  0.4646E+02
      7.629  0.9102E+00  0.4659E+02
      7.776  0.8782E+00  0.4672E+02
      7.923  0.2465E+00  0.4676E+02
      8.069  0.4431E+00  0.4682E+02
      8.216  0.9433E+00  0.4696E+02
      8.363  0.1282E+01  0.4715E+02
      8.509  0.1062E+01  0.4730E+02
      8.656  0.2143E+01  0.4762E+02
      8.803  0.1061E+01  0.4777E+02
      8.950  0.3264E+00  0.4782E+02
      9.096  0.1304E+01  0.4801E+02
      9.243  0.1774E+01  0.4827E+02
      9.390  0.2048E+01  0.4857E+02
      9.536  0.2100E+00  0.4860E+02
      9.683  0.9370E+00  0.4874E+02
      9.830  0.1856E+01  0.4901E+02
      9.977  0.1458E+01  0.4923E+02
     10.123  0.5504E+00  0.4931E+02
     10.270  0.3110E+00  0.4935E+02
     10.417  0.2176E+01  0.4967E+02
     10.563  0.2134E+01  0.4999E+02
     10.710  0.5923E+00  0.5007E+02
     10.857  0.1178E+01  0.5025E+02
     11.003  0.4329E+00  0.5031E+02
     11.150  0.1165E+01  0.5048E+02
     11.297  0.2636E+00  0.5052E+02
     11.444  0.9114E+00  0.5065E+02
     11.590  0.2037E+01  0.5095E+02
     11.737  0.1684E+01  0.5120E+02
     11.884  0.1788E+01  0.5146E+02
     12.030  0.1883E+01  0.5174E+02
     12.177  0.9846E+00  0.5188E+02
     12.324  0.7691E+00  0.5199E+02
     12.471  0.1334E+01  0.5219E+02
     12.617  0.1586E+01  0.5242E+02
     12.764  0.8650E+00  0.5255E+02
     12.911  0.2392E+01  0.5290E+02
     13.057  0.6422E+00  0.5299E+02
     13.204  0.2353E+01  0.5334E+02
     13.351  0.2919E+01  0.5377E+02
     13.497  0.9326E+00  0.5390E+02
     13.644  0.1548E+01  0.5413E+02
     13.791  0.2175E+01  0.5445E+02
     13.938  0.7506E+00  0.5456E+02
     14.084  0.1376E+01  0.5476E+02
     14.231  0.1522E+01  0.5499E+02
     14.378  0.1208E+01  0.5516E+02
     14.524  0.1673E+01  0.5541E+02
     14.671  0.9254E+00  0.5554E+02
     14.818  0.9155E+00  0.5568E+02
     14.965  0.3202E+01  0.5615E+02
     15.111  0.2390E+01  0.5650E+02
     15.258  0.7328E+00  0.5661E+02
     15.405  0.3490E+01  0.5712E+02
     15.551  0.1351E+01  0.5732E+02
     15.698  0.7206E+00  0.5742E+02
     15.845  0.1417E+01  0.5763E+02
     15.991  0.1368E+01  0.5783E+02
     16.138  0.3102E+01  0.5829E+02
     16.285  0.1671E+01  0.5853E+02
     16.432  0.5993E+00  0.5862E+02
     16.578  0.3105E+01  0.5907E+02
     16.725  0.1780E+01  0.5934E+02
     16.872  0.1413E+01  0.5954E+02
     17.018  0.1316E+01  0.5974E+02
     17.165  0.1665E+01  0.5998E+02
     17.312  0.2566E+01  0.6036E+02
     17.459  0.1251E+01  0.6054E+02
     17.605  0.2204E+01  0.6086E+02
     17.752  0.1973E+01  0.6115E+02
     17.899  0.2379E+01  0.6150E+02
     18.045  0.2309E+01  0.6184E+02
     18.192  0.1435E+01  0.6205E+02
     18.339  0.1942E+01  0.6234E+02
     18.486  0.2947E+01  0.6277E+02
     18.632  0.2180E+01  0.6309E+02
     18.779  0.1159E+01  0.6326E+02
     18.926  0.1963E+01  0.6355E+02
     19.072  0.7885E+00  0.6366E+02
     19.219  0.1333E+01  0.6386E+02
     19.366  0.2572E+01  0.6423E+02
     19.512  0.1832E+01  0.6450E+02
     19.659  0.2147E+01  0.6482E+02
     19.806  0.5537E+00  0.6490E+02
     19.953  0.3083E+00  0.6495E+02
     20.099  0.1742E+01  0.6520E+02
     20.246  0.2410E+01  0.6555E+02
     20.393  0.1167E+01  0.6573E+02
     20.539  0.2082E+01  0.6603E+02
     20.686  0.1813E+01  0.6630E+02
     20.833  0.9319E+00  0.6643E+02
     20.980  0.1079E+01  0.6659E+02
     21.126  0.1881E+01  0.6687E+02
     21.273  0.1081E+01  0.6703E+02
     21.420  0.1259E+01  0.6721E+02
     21.566  0.1884E+01  0.6749E+02
     21.713  0.1388E+01  0.6769E+02
     21.860  0.1497E+01  0.6791E+02
     22.006  0.1261E+01  0.6810E+02
     22.153  0.1701E+01  0.6835E+02
     22.300  0.2026E+01  0.6864E+02
     22.447  0.2100E+01  0.6895E+02
     22.593  0.2110E+01  0.6926E+02
     22.740  0.8683E+00  0.6939E+02
     22.887  0.8768E+00  0.6952E+02
     23.033  0.2867E+01  0.6994E+02
     23.180  0.2028E+01  0.7023E+02
     23.327  0.1813E+01  0.7050E+02
     23.474  0.1682E+01  0.7075E+02
     23.620  0.2147E+01  0.7106E+02
     23.767  0.2015E+01  0.7136E+02
     23.914  0.2396E+01  0.7171E+02
     24.060  0.2612E+01  0.7209E+02
     24.207  0.2981E+01  0.7253E+02
     24.354  0.1026E+01  0.7268E+02
     24.500  0.2718E+01  0.7308E+02
     24.647  0.3401E+01  0.7358E+02
     24.794  0.2506E+01  0.7395E+02
     24.941  0.2576E+01  0.7432E+02
     25.087  0.4255E+01  0.7495E+02
     25.234  0.2921E+01  0.7538E+02
     25.381  0.2226E+01  0.7570E+02
     25.527  0.2029E+01  0.7600E+02
     25.674  0.1386E+01  0.7620E+02
     25.821  0.3445E+01  0.7671E+02
     25.968  0.2168E+01  0.7703E+02
     26.114  0.1064E+01  0.7718E+02
     26.261  0.1662E+01  0.7743E+02
     26.408  0.4836E+01  0.7814E+02
     26.554  0.1975E+01  0.7843E+02
     26.701  0.1191E+01  0.7860E+02
     26.848  0.1548E+01  0.7883E+02
     26.994  0.3958E+00  0.7889E+02
     27.141  0.1281E+01  0.7907E+02
     27.288  0.2716E+01  0.7947E+02
     27.435  0.3096E+01  0.7993E+02
     27.581  0.2392E+01  0.8028E+02
     27.728  0.2234E+01  0.8061E+02
     27.875  0.1992E+01  0.8090E+02
     28.021  0.9339E+00  0.8104E+02
     28.168  0.2265E+01  0.8137E+02
     28.315  0.1662E+01  0.8161E+02
     28.462  0.2419E+01  0.8197E+02
     28.608  0.1811E+00  0.8199E+02
     28.755  0.1310E+01  0.8218E+02
     28.902  0.9837E+00  0.8233E+02
     29.048  0.8006E+00  0.8245E+02
     29.195  0.1178E+01  0.8262E+02
     29.342  0.9771E+00  0.8276E+02
     29.488  0.1957E+01  0.8305E+02
     29.635  0.2749E+01  0.8345E+02
     29.782  0.3143E+01  0.8391E+02
     29.929  0.3052E+01  0.8436E+02
     30.075  0.4805E+01  0.8507E+02
     30.222  0.2784E+01  0.8548E+02
     30.369  0.1224E+01  0.8565E+02
     30.515  0.1847E+01  0.8593E+02
     30.662  0.1746E+01  0.8618E+02
     30.809  0.7350E+00  0.8629E+02
     30.956  0.1880E+01  0.8657E+02
     31.102  0.3350E+01  0.8706E+02
     31.249  0.3142E+01  0.8752E+02
     31.396  0.2534E+01  0.8789E+02
     31.542  0.1151E+01  0.8806E+02
     31.689  0.1963E+01  0.8835E+02
     31.836  0.1239E+01  0.8853E+02
     31.982  0.1974E+01  0.8882E+02
     32.129  0.3056E+00  0.8886E+02
     32.276  0.1765E+01  0.8912E+02
     32.423  0.4795E+01  0.8983E+02
     32.569  0.2770E+01  0.9023E+02
     32.716  0.2584E+01  0.9061E+02
     32.863  0.1915E+01  0.9089E+02
     33.009  0.1639E+01  0.9113E+02
     33.156  0.2746E+01  0.9154E+02
     33.303  0.1913E+01  0.9182E+02
     33.450  0.1315E+01  0.9201E+02
     33.596  0.2010E+01  0.9230E+02
     33.743  0.2870E+01  0.9272E+02
     33.890  0.2598E+01  0.9311E+02
     34.036  0.3369E+01  0.9360E+02
     34.183  0.3276E+01  0.9408E+02
     34.330  0.5804E+00  0.9417E+02
     34.476  0.1053E+01  0.9432E+02
     34.623  0.1410E+01  0.9453E+02
     34.770  0.4568E+00  0.9459E+02
     34.917  0.1422E+01  0.9480E+02
     35.063  0.1535E+01  0.9503E+02
     35.210  0.4503E+00  0.9509E+02
     35.357  0.1808E+01  0.9536E+02
     35.503  0.1131E+01  0.9553E+02
     35.650  0.4038E-01  0.9553E+02
     35.797  0.6994E+00  0.9563E+02
     35.944  0.8168E+00  0.9575E+02
     36.090  0.8162E+00  0.9587E+02
     36.237  0.4105E+00  0.9593E+02
     36.384  0.1039E+00  0.9595E+02
     36.530 -0.9695E-02  0.9595E+02
     36.677  0.5822E-01  0.9596E+02
     36.824  0.1815E+00  0.9598E+02
     36.970  0.9804E-01  0.9600E+02
     37.117  0.2649E-02  0.9600E+02
     37.264 -0.5541E-03  0.9600E+02
     37.411  0.2245E-02  0.9600E+02
     37.557  0.1692E-01  0.9600E+02
     37.704 -0.2806E-03  0.9600E+02
     37.851 -0.3336E-04  0.9600E+02
     37.997 -0.6080E-08  0.9600E+02
     38.144 -0.1186E-13  0.9600E+02
     38.291  0.0000E+00  0.9600E+02
     38.438  0.0000E+00  0.9600E+02
     38.584  0.0000E+00  0.9600E+02
     38.731  0.0000E+00  0.9600E+02
     38.878  0.0000E+00  0.9600E+02
     39.024  0.0000E+00  0.9600E+02
     39.171  0.0000E+00  0.9600E+02
     39.318  0.0000E+00  0.9600E+02
     39.464  0.0000E+00  0.9600E+02
