    4    4    1    1
  0.1427407E+02  0.3850667E-09  0.3850667E-09  0.3850667E-09  0.5000000E-15
  1.000000000000000E-004
  CAR 
 unknown system                          
     44     35     48
 
  0.0000000E+00  0.0000000E+00  0.0000000E+00  0.1371742E-02
    1       -2.546811   1.000000
    2        1.564879   1.000000
    3        1.564879   1.000000
    4        1.564879   1.000000
    5        1.909474   1.000000
    6        1.909474   1.000000
    7        1.909474   1.000000
    8        2.942765   1.000000
    9        2.942765   1.000000
   10        2.942765   1.000000
   11        3.558952   1.000000
   12        3.558952   1.000000
   13        3.970094   1.000000
   14        3.970094   1.000000
   15        3.970094   1.000000
   16        4.086078   1.000000
   17        4.086078   1.000000
   18        4.086078   1.000000
   19        4.086078   1.000000
   20        4.086078   1.000000
   21        4.086078   1.000000
   22        7.095889  -0.000000
   23        7.095889  -0.000000
   24        7.095889  -0.000000
   25       11.334492   0.000000
   26       11.334492   0.000000
   27       11.334492   0.000000
   28       17.148203   0.000000
   29       17.148203   0.000000
   30       17.148203   0.000000
   31       17.148203   0.000000
   32       17.148203   0.000000
   33       17.148203   0.000000
   34       21.220379   0.000000
   35       21.220379   0.000000
   36       21.220379   0.000000
   37       22.850809   0.000000
   38       22.850809   0.000000
   39       22.850809   0.000000
   40       26.523920   0.000000
   41       27.761475   0.000000
   42       27.761475   0.000000
   43       27.761475   0.000000
   44       30.238108   0.000000
   45       30.238108   0.000000
   46       30.238108   0.000000
   47       33.848147   0.000000
   48       37.463930   0.000000
 
  0.1111111E+00  0.0000000E+00  0.0000000E+00  0.8230453E-02
    1       -2.415754   1.000000
    2        1.556855   1.000000
    3        1.619942   1.000000
    4        1.619942   1.000000
    5        1.939478   1.000000
    6        1.941506   1.000000
    7        1.941506   1.000000
    8        2.910451   1.000000
    9        2.969488   1.000000
   10        2.969488   1.000000
   11        3.529378   1.000000
   12        3.571119   1.000000
   13        3.915957   1.000000
   14        3.915957   1.000000
   15        3.932375   1.000000
   16        3.932375   1.000000
   17        3.957454   1.000000
   18        4.041283   1.000000
   19        4.041283   1.000000
   20        4.086135   1.000000
   21        4.086135   1.000000
   22        6.238457  -0.000000
   23        7.387660  -0.000000
   24        7.387660  -0.000000
   25       11.392353   0.000000
   26       11.392353   0.000000
   27       12.466830   0.000000
   28       16.316841   0.000000
   29       16.316841   0.000000
   30       16.538439   0.000000
   31       16.538439   0.000000
   32       17.333011   0.000000
   33       17.333011   0.000000
   34       21.287180   0.000000
   35       22.227543   0.000000
   36       22.227543   0.000000
   37       22.906020   0.000000
   38       23.742381   0.000000
   39       23.742381   0.000000
   40       25.932817   0.000000
   41       26.529977   0.000000
   42       26.529977   0.000000
   43       27.294446   0.000000
   44       31.103980   0.000000
   45       31.593440   0.000000
   46       31.593440   0.000000
   47       33.611036   0.000000
   48       35.849668   0.000000
 
  0.2222222E+00  0.0000000E+00  0.0000000E+00  0.8230453E-02
    1       -2.026728   1.000000
    2        1.481708   1.000000
    3        1.770734   1.000000
    4        1.770734   1.000000
    5        2.026261   1.000000
    6        2.038590   1.000000
    7        2.038590   1.000000
    8        2.817825   1.000000
    9        3.048649   1.000000
   10        3.048649   1.000000
   11        3.447928   1.000000
   12        3.538039   1.000000
   13        3.538039   1.000000
   14        3.605895   1.000000
   15        3.825644   1.000000
   16        3.825644   1.000000
   17        3.916986   1.000000
   18        3.916986   1.000000
   19        3.921131   1.000000
   20        4.086160   1.000000
   21        4.086160   1.000000
   22        4.810584   1.000000
   23        8.128947   0.000000
   24        8.128947   0.000000
   25       11.574205   0.000000
   26       11.574205   0.000000
   27       14.764330   0.000000
   28       14.784980   0.000000
   29       14.784980   0.000000
   30       15.339979   0.000000
   31       15.339979   0.000000
   32       17.875421   0.000000
   33       17.875421   0.000000
   34       21.490316   0.000000
   35       23.080706   0.000000
   36       24.287908   0.000000
   37       24.287908   0.000000
   38       24.684242   0.000000
   39       24.684242   0.000000
   40       24.871081   0.000000
   41       25.773814   0.000000
   42       25.773814   0.000000
   43       26.294638   0.000000
   44       30.716912   0.000000
   45       32.985037   0.000000
   46       33.792827   0.000000
   47       33.792827   0.000000
   48       36.894616   0.000000
 
  0.3333333E+00  0.0000000E+00  0.0000000E+00  0.8230453E-02
    1       -1.394810   1.000000
    2        1.145635   1.000000
    3        1.970016   1.000000
    4        1.970016   1.000000
    5        2.160540   1.000000
    6        2.204026   1.000000
    7        2.204026   1.000000
    8        2.677063   1.000000
    9        3.123448   1.000000
   10        3.123448   1.000000
   11        3.176263   1.000000
   12        3.176263   1.000000
   13        3.335560   1.000000
   14        3.659937   1.000000
   15        3.676728   1.000000
   16        3.676728   1.000000
   17        3.720784   1.000000
   18        3.739408   1.000000
   19        3.739408   1.000000
   20        3.865931   1.000000
   21        4.086420   1.000000
   22        4.086420   1.000000
   23        9.144738   0.000000
   24        9.144738   0.000000
   25       11.903217   0.000000
   26       11.903217   0.000000
   27       13.204336   0.000000
   28       13.204336   0.000000
   29       14.160286   0.000000
   30       14.160286   0.000000
   31       17.490823   0.000000
   32       18.744283   0.000000
   33       18.744283   0.000000
   34       21.837685   0.000000
   35       22.910346   0.000000
   36       22.910346   0.000000
   37       23.401018   0.000000
   38       23.861227   0.000000
   39       25.194901   0.000000
   40       26.753127   0.000000
   41       26.753127   0.000000
   42       27.334222   0.000000
   43       28.276208   0.000000
   44       28.276208   0.000000
   45       35.344602   0.000000
   46       35.654403   0.000000
   47       35.654431   0.000000
   48       36.076460   0.000000
 
  0.4444444E+00  0.0000000E+00  0.0000000E+00  0.8230453E-02
    1       -0.558043   1.000000
    2        0.379224   1.000000
    3        2.125510   1.000000
    4        2.125510   1.000000
    5        2.326911   1.000000
    6        2.440363   1.000000
    7        2.440363   1.000000
    8        2.506326   1.000000
    9        2.749081   1.000000
   10        2.749081   1.000000
   11        3.239881   1.000000
   12        3.276167   1.000000
   13        3.344577   1.000000
   14        3.344577   1.000000
   15        3.539024   1.000000
   16        3.539024   1.000000
   17        3.553852   1.000000
   18        3.553852   1.000000
   19        3.726729   1.000000
   20        3.798101   1.000000
   21        4.086484   1.000000
   22        4.086484   1.000000
   23       10.351706   0.000000
   24       10.351706   0.000000
   25       11.713087   0.000000
   26       11.713087   0.000000
   27       12.403115   0.000000
   28       12.403115   0.000000
   29       13.198296   0.000000
   30       13.198296   0.000000
   31       19.899674   0.000000
   32       19.899674   0.000000
   33       20.465470   0.000000
   34       21.301174   0.000000
   35       21.301174   0.000000
   36       22.340879   0.000000
   37       23.012820   0.000000
   38       23.477236   0.000000
   39       23.912982   0.000000
   40       24.794170   0.000000
   41       29.489809   0.000000
   42       29.489809   0.000000
   43       30.716172   0.000000
   44       30.716172   0.000000
   45       32.463636   0.000000
   46       32.463636   0.000000
   47       35.843898   0.000000
   48       35.843898   0.000000
 
  0.1111111E+00  0.1111111E+00  0.0000000E+00  0.1646091E-01
    1       -2.285533   1.000000
    2        1.614854   1.000000
    3        1.614854   1.000000
    4        1.672182   1.000000
    5        1.970563   1.000000
    6        1.970563   1.000000
    7        1.971860   1.000000
    8        2.893640   1.000000
    9        2.981889   1.000000
   10        2.991399   1.000000
   11        3.521902   1.000000
   12        3.566021   1.000000
   13        3.799334   1.000000
   14        3.830849   1.000000
   15        3.830849   1.000000
   16        3.897206   1.000000
   17        3.946474   1.000000
   18        3.946474   1.000000
   19        4.041180   1.000000
   20        4.041180   1.000000
   21        4.056869   1.000000
   22        6.517119  -0.000000
   23        6.517119  -0.000000
   24        7.655507  -0.000000
   25       11.452442   0.000000
   26       12.550626   0.000000
   27       12.550626   0.000000
   28       14.749086   0.000000
   29       16.485829   0.000000
   30       16.485829   0.000000
   31       16.707313   0.000000
   32       16.707313   0.000000
   33       17.507632   0.000000
   34       21.959744   0.000000
   35       22.311442   0.000000
   36       22.311442   0.000000
   37       23.809326   0.000000
   38       23.809326   0.000000
   39       24.533281   0.000000
   40       25.066447   0.000000
   41       25.118400   0.000000
   42       27.379635   0.000000
   43       28.108653   0.000000
   44       30.389342   0.000000
   45       31.336605   0.000000
   46       33.244462   0.000000
   47       34.459644   0.000000
   48       34.551958   0.000000
 
  0.2222222E+00  0.1111111E+00  0.0000000E+00  0.3292181E-01
    1       -1.899148   1.000000
    2        1.548701   1.000000
    3        1.773835   1.000000
    4        1.815381   1.000000
    5        2.054206   1.000000
    6        2.063404   1.000000
    7        2.064499   1.000000
    8        2.812338   1.000000
    9        3.053015   1.000000
   10        3.054167   1.000000
   11        3.450647   1.000000
   12        3.455621   1.000000
   13        3.477672   1.000000
   14        3.602475   1.000000
   15        3.643167   1.000000
   16        3.797907   1.000000
   17        3.835260   1.000000
   18        3.913322   1.000000
   19        3.916434   1.000000
   20        4.040726   1.000000
   21        4.041509   1.000000
   22        5.130081   1.001737
   23        7.184832  -0.000000
   24        8.356999   0.000000
   25       11.641081   0.000000
   26       12.809468   0.000000
   27       13.086138   0.000000
   28       14.863269   0.000000
   29       14.944127   0.000000
   30       15.488154   0.000000
   31       16.979215   0.000000
   32       17.094174   0.000000
   33       17.202153   0.000000
   34       22.567025   0.000000
   35       22.911031   0.000000
   36       23.133601   0.000000
   37       23.386338   0.000000
   38       24.019480   0.000000
   39       24.385513   0.000000
   40       25.846023   0.000000
   41       26.737013   0.000000
   42       27.332086   0.000000
   43       27.638630   0.000000
   44       30.542150   0.000000
   45       31.651465   0.000000
   46       33.088706   0.000000
   47       35.364687   0.000000
   48       35.811731   0.000000
 
  0.3333333E+00  0.1111111E+00  0.0000000E+00  0.3292181E-01
    1       -1.272209   1.000000
    2        1.228462   1.000000
    3        1.986356   1.000000
    4        2.008593   1.000000
    5        2.183440   1.000000
    6        2.212158   1.000000
    7        2.223882   1.000000
    8        2.679158   1.000000
    9        3.045535   1.000000
   10        3.097916   1.000000
   11        3.133261   1.000000
   12        3.177920   1.000000
   13        3.341720   1.000000
   14        3.378847   1.000000
   15        3.658814   1.000000
   16        3.669833   1.000000
   17        3.687037   1.000000
   18        3.738359   1.000000
   19        3.822372   1.000000
   20        4.038224   1.000000
   21        4.039964   1.000000
   22        4.187683   1.000000
   23        8.058794  -0.000000
   24        9.342541   0.000000
   25       11.574583   0.000000
   26       11.983403   0.000000
   27       13.254949   0.000000
   28       13.363564   0.000000
   29       14.302070   0.000000
   30       15.989114   0.000000
   31       17.593027   0.000000
   32       17.761606   0.000000
   33       17.993060   0.000000
   34       21.393938   0.000000
   35       21.765521   0.000000
   36       23.005675   0.000000
   37       24.398829   0.000000
   38       25.391821   0.000000
   39       25.557817   0.000000
   40       26.355785   0.000000
   41       26.857346   0.000000
   42       27.532407   0.000000
   43       28.306173   0.000000
   44       29.901730   0.000000
   45       33.925556   0.000000
   46       34.532587   0.000000
   47       34.838080   0.000000
   48       35.765072   0.000000
 
  0.4444444E+00  0.1111111E+00  0.0000000E+00  0.3292181E-01
    1       -0.443888   1.000000
    2        0.479860   1.000000
    3        2.159274   1.000000
    4        2.168777   1.000000
    5        2.343544   1.000000
    6        2.411669   1.000000
    7        2.451000   1.000000
    8        2.515878   1.000000
    9        2.689509   1.000000
   10        2.745490   1.000000
   11        3.132982   1.000000
   12        3.133830   1.000000
   13        3.344699   1.000000
   14        3.432301   1.000000
   15        3.538423   1.000000
   16        3.547737   1.000000
   17        3.559404   1.000000
   18        3.623170   1.000000
   19        3.757239   1.000000
   20        3.873222   1.000000
   21        4.038237   1.000000
   22        4.039031   1.000000
   23        9.078908   0.000000
   24       10.244225   0.000000
   25       10.529657   0.000000
   26       11.878719   0.000000
   27       12.509649   0.000000
   28       13.239467   0.000000
   29       14.005273   0.000000
   30       14.893125   0.000000
   31       18.787166   0.000000
   32       19.039394   0.000000
   33       20.010456   0.000000
   34       20.307261   0.000000
   35       20.576784   0.000000
   36       23.643655   0.000000
   37       23.710471   0.000000
   38       24.495789   0.000000
   39       24.985228   0.000000
   40       25.841570   0.000000
   41       28.020295   0.000000
   42       29.597922   0.000000
   43       30.056861   0.000000
   44       32.373901   0.000000
   45       32.555246   0.000000
   46       32.574297   0.000000
   47       35.978828   0.000000
   48       36.019307   0.000000
 
  0.2222222E+00  0.2222222E+00  0.0000000E+00  0.1646091E-01
    1       -1.521252   1.000000
    2        1.734270   1.000000
    3        1.734270   1.000000
    4        1.935341   1.000000
    5        2.138595   1.000000
    6        2.138624   1.000000
    7        2.138624   1.000000
    8        2.771439   1.000000
    9        3.071274   1.000000
   10        3.093219   1.000000
   11        3.238500   1.000000
   12        3.238500   1.000000
   13        3.289780   1.000000
   14        3.433495   1.000000
   15        3.640674   1.000000
   16        3.717691   1.000000
   17        3.818536   1.000000
   18        3.818536   1.000000
   19        3.914922   1.000000
   20        3.914922   1.000000
   21        3.970559   1.000000
   22        5.753914  -0.000000
   23        5.753914  -0.000000
   24        8.982593   0.000000
   25       11.326585   0.000000
   26       11.849945   0.000000
   27       15.151957   0.000000
   28       15.151957   0.000000
   29       15.408905   0.000000
   30       15.408905   0.000000
   31       15.932889   0.000000
   32       15.932889   0.000000
   33       18.544487   0.000000
   34       21.206083   0.000000
   35       21.670590   0.000000
   36       22.438770   0.000000
   37       24.680279   0.000000
   38       24.680279   0.000000
   39       26.069496   0.000000
   40       26.069496   0.000000
   41       28.226167   0.000000
   42       29.062400   0.000000
   43       29.707169   0.000000
   44       30.007836   0.000000
   45       30.852835   0.000000
   46       31.104209   0.000000
   47       34.926014   0.000000
   48       36.708684   0.000000
 
  0.3333333E+00  0.2222222E+00  0.0000000E+00  0.3292181E-01
    1       -0.910633   1.000000
    2        1.459550   1.000000
    3        1.989040   1.000000
    4        2.100600   1.000000
    5        2.251111   1.000000
    6        2.252369   1.000000
    7        2.280576   1.000000
    8        2.674392   1.000000
    9        2.866615   1.000000
   10        3.011033   1.000000
   11        3.016037   1.000000
   12        3.078881   1.000000
   13        3.196203   1.000000
   14        3.389894   1.000000
   15        3.603169   1.000000
   16        3.679324   1.000000
   17        3.735225   1.000000
   18        3.736814   1.000000
   19        3.747972   1.000000
   20        3.913145   1.000000
   21        3.931360   1.000000
   22        4.698521   1.000000
   23        6.513797  -0.000000
   24        9.791274   0.000000
   25        9.902073   0.000000
   26       12.223546   0.000000
   27       13.828216   0.000000
   28       14.630095   0.000000
   29       15.718838   0.000000
   30       16.147817   0.000000
   31       16.605620   0.000000
   32       17.916004   0.000000
   33       18.316785   0.000000
   34       19.668879   0.000000
   35       20.098865   0.000000
   36       23.822069   0.000000
   37       25.177062   0.000000
   38       26.461511   0.000000
   39       27.170516   0.000000
   40       27.309794   0.000000
   41       27.786191   0.000000
   42       28.381043   0.000000
   43       28.679251   0.000000
   44       31.638317   0.000000
   45       32.323700   0.000000
   46       32.406936   0.000000
   47       33.562984   0.000000
   48       35.304783   0.000000
 
  0.4444444E+00  0.2222222E+00  0.0000000E+00  0.3292181E-01
    1       -0.110706   1.000000
    2        0.767067   1.000000
    3        2.221269   1.000000
    4        2.287031   1.000000
    5        2.333236   1.000000
    6        2.392187   1.000000
    7        2.479972   1.000000
    8        2.539938   1.000000
    9        2.556315   1.000000
   10        2.731346   1.000000
   11        2.949072   1.000000
   12        3.020231   1.000000
   13        3.351320   1.000000
   14        3.438876   1.000000
   15        3.517537   1.000000
   16        3.539224   1.000000
   17        3.549293   1.000000
   18        3.584792   1.000000
   19        3.905818   1.000000
   20        3.912623   1.000000
   21        3.916637   1.000000
   22        4.158771   1.000000
   23        7.413670  -0.000000
   24        8.492977   0.000000
   25       11.041881   0.000000
   26       12.359976   0.000000
   27       12.794660   0.000000
   28       13.594624   0.000000
   29       16.442989   0.000000
   30       17.123670   0.000000
   31       17.362021   0.000000
   32       17.553850   0.000000
   33       18.304518   0.000000
   34       18.721580   0.000000
   35       20.892247   0.000000
   36       24.055602   0.000000
   37       25.879271   0.000000
   38       26.308856   0.000000
   39       26.776405   0.000000
   40       27.039389   0.000000
   41       27.801190   0.000000
   42       28.775780   0.000000
   43       29.922044   0.000000
   44       32.795019   0.000000
   45       32.839937   0.000000
   46       32.906153   0.000000
   47       34.025478   0.000000
   48       34.515378   0.000000
 
  0.3333333E+00  0.3333333E+00  0.0000000E+00  0.1646091E-01
    1       -0.332637   1.000000
    2        1.780222   1.000000
    3        1.780222   1.000000
    4        2.177112   1.000000
    5        2.350544   1.000000
    6        2.366017   1.000000
    7        2.366017   1.000000
    8        2.638987   1.000000
    9        2.748521   1.000000
   10        2.748521   1.000000
   11        2.875520   1.000000
   12        3.034381   1.000000
   13        3.259508   1.000000
   14        3.344146   1.000000
   15        3.515213   1.000000
   16        3.607051   1.000000
   17        3.607051   1.000000
   18        3.737415   1.000000
   19        3.737415   1.000000
   20        3.833138   1.000000
   21        3.917007   1.000000
   22        5.299924   0.962840
   23        5.299924   0.962840
   24        8.262056   0.000000
   25       10.754569   0.000000
   26       12.648051   0.000000
   27       14.566835   0.000000
   28       14.566835   0.000000
   29       15.273929   0.000000
   30       15.273929   0.000000
   31       18.109667   0.000000
   32       18.446614   0.000000
   33       18.446614   0.000000
   34       18.565334   0.000000
   35       20.164732   0.000000
   36       23.147786   0.000000
   37       27.649136   0.000000
   38       27.692738   0.000000
   39       27.692738   0.000000
   40       27.791776   0.000000
   41       28.442929   0.000000
   42       28.442929   0.000000
   43       29.663898   0.000000
   44       30.929378   0.000000
   45       31.656003   0.000000
   46       32.515307   0.000000
   47       32.515307   0.000000
   48       34.979197   0.000000
 
  0.4444444E+00  0.3333333E+00  0.0000000E+00  0.3292181E-01
    1        0.408001   1.000000
    2        1.189070   1.000000
    3        2.075902   1.000000
    4        2.200973   1.000000
    5        2.456340   1.000000
    6        2.466777   1.000000
    7        2.519170   1.000000
    8        2.564295   1.000000
    9        2.564877   1.000000
   10        2.697855   1.000000
   11        2.812960   1.000000
   12        2.944673   1.000000
   13        3.360009   1.000000
   14        3.381526   1.000000
   15        3.446590   1.000000
   16        3.474805   1.000000
   17        3.483758   1.000000
   18        3.549539   1.000000
   19        3.746318   1.000000
   20        3.773366   1.000000
   21        4.162057   1.000000
   22        4.558843   1.000000
   23        6.048367  -0.000000
   24        7.017745  -0.000000
   25       11.840404   0.000000
   26       13.120292   0.000000
   27       13.283350   0.000000
   28       14.155452   0.000000
   29       15.544009   0.000000
   30       16.142322   0.000000
   31       16.731141   0.000000
   32       17.240968   0.000000
   33       19.178206   0.000000
   34       20.009881   0.000000
   35       21.413461   0.000000
   36       24.550172   0.000000
   37       24.871884   0.000000
   38       27.479313   0.000000
   39       28.113135   0.000000
   40       28.378324   0.000000
   41       28.416744   0.000000
   42       29.289576   0.000000
   43       30.459483   0.000000
   44       31.554366   0.000000
   45       31.874949   0.000000
   46       33.150409   0.000000
   47       33.456849   0.000000
   48       33.590852   0.000000
 
  0.4444444E+00  0.4444444E+00  0.0000000E+00  0.1646091E-01
    1        1.036784   1.000000
    2        1.640614   1.000000
    3        1.640614   1.000000
    4        1.990065   1.000000
    5        2.554908   1.000000
    6        2.554908   1.000000
    7        2.572607   1.000000
    8        2.616376   1.000000
    9        2.637826   1.000000
   10        2.722212   1.000000
   11        2.722212   1.000000
   12        2.865119   1.000000
   13        3.309583   1.000000
   14        3.366027   1.000000
   15        3.372791   1.000000
   16        3.372791   1.000000
   17        3.455957   1.000000
   18        3.582767   1.000000
   19        3.582767   1.000000
   20        3.655363   1.000000
   21        4.524092   1.000000
   22        5.099297   1.000420
   23        5.099297   1.000420
   24        5.887719  -0.000000
   25       12.878203   0.000000
   26       13.995093   0.000000
   27       14.120656   0.000000
   28       14.120656   0.000000
   29       14.946561   0.000000
   30       14.946561   0.000000
   31       15.331027   0.000000
   32       15.975165   0.000000
   33       22.097805   0.000000
   34       22.097805   0.000000
   35       22.272099   0.000000
   36       24.240079   0.000000
   37       24.791855   0.000000
   38       25.791074   0.000000
   39       26.356031   0.000000
   40       26.356031   0.000000
   41       31.188752   0.000000
   42       31.188752   0.000000
   43       31.605906   0.000000
   44       32.838131   0.000000
   45       33.067196   0.000000
   46       33.478265   0.000000
   47       33.478265   0.000000
   48       34.010135   0.000000
 
  0.1111111E+00  0.1111111E+00  0.1111111E+00  0.1097394E-01
    1       -2.156224   1.000000
    2        1.669004   1.000000
    3        1.669004   1.000000
    4        1.669004   1.000000
    5        2.000047   1.000000
    6        2.000047   1.000000
    7        2.000047   1.000000
    8        2.879346   1.000000
    9        3.000662   1.000000
   10        3.000662   1.000000
   11        3.540149   1.000000
   12        3.540149   1.000000
   13        3.731049   1.000000
   14        3.731049   1.000000
   15        3.731049   1.000000
   16        3.855463   1.000000
   17        3.855463   1.000000
   18        3.855463   1.000000
   19        4.046284   1.000000
   20        4.046284   1.000000
   21        4.046284   1.000000
   22        6.762578  -0.000000
   23        6.762578  -0.000000
   24        6.762578  -0.000000
   25       12.636107   0.000000
   26       12.636107   0.000000
   27       12.636107   0.000000
   28       14.907748   0.000000
   29       14.907748   0.000000
   30       14.907748   0.000000
   31       17.687078   0.000000
   32       17.687078   0.000000
   33       17.687078   0.000000
   34       22.026119   0.000000
   35       22.026119   0.000000
   36       22.026119   0.000000
   37       22.916436   0.000000
   38       25.148638   0.000000
   39       25.148638   0.000000
   40       25.148638   0.000000
   41       26.777040   0.000000
   42       26.823489   0.000000
   43       26.823489   0.000000
   44       31.786191   0.000000
   45       31.786191   0.000000
   46       32.298628   0.000000
   47       34.728239   0.000000
   48       34.728239   0.000000
 
  0.2222222E+00  0.1111111E+00  0.1111111E+00  0.3292181E-01
    1       -1.772852   1.000000
    2        1.609684   1.000000
    3        1.817655   1.000000
    4        1.817655   1.000000
    5        2.081790   1.000000
    6        2.089224   1.000000
    7        2.089224   1.000000
    8        2.808603   1.000000
    9        3.054062   1.000000
   10        3.057535   1.000000
   11        3.400077   1.000000
   12        3.400077   1.000000
   13        3.475329   1.000000
   14        3.525033   1.000000
   15        3.592146   1.000000
   16        3.745636   1.000000
   17        3.769418   1.000000
   18        3.769418   1.000000
   19        4.009179   1.000000
   20        4.029466   1.000000
   21        4.029466   1.000000
   22        5.365313   0.546227
   23        7.381023  -0.000000
   24        7.381023  -0.000000
   25       12.888141   0.000000
   26       12.888141   0.000000
   27       13.255101   0.000000
   28       13.255101   0.000000
   29       14.950352   0.000000
   30       15.382149   0.000000
   31       17.252221   0.000000
   32       17.252221   0.000000
   33       18.215142   0.000000
   34       21.193027   0.000000
   35       22.229295   0.000000
   36       23.211843   0.000000
   37       23.211843   0.000000
   38       24.958861   0.000000
   39       25.401866   0.000000
   40       25.694658   0.000000
   41       27.417155   0.000000
   42       27.417155   0.000000
   43       28.361149   0.000000
   44       30.235787   0.000000
   45       31.990423   0.000000
   46       33.834350   0.000000
   47       33.981917   0.000000
   48       35.406769   0.000000
 
  0.3333333E+00  0.1111111E+00  0.1111111E+00  0.3292181E-01
    1       -1.151659   1.000000
    2        1.303124   1.000000
    3        2.019336   1.000000
    4        2.019336   1.000000
    5        2.208055   1.000000
    6        2.231850   1.000000
    7        2.231850   1.000000
    8        2.684300   1.000000
    9        3.032699   1.000000
   10        3.032699   1.000000
   11        3.117387   1.000000
   12        3.151864   1.000000
   13        3.227673   1.000000
   14        3.431206   1.000000
   15        3.596363   1.000000
   16        3.647347   1.000000
   17        3.647347   1.000000
   18        3.669812   1.000000
   19        3.943822   1.000000
   20        4.014416   1.000000
   21        4.014416   1.000000
   22        4.353119   1.000000
   23        8.219141   0.000000
   24        8.219141   0.000000
   25       11.723903   0.000000
   26       11.723903   0.000000
   27       13.378202   0.000000
   28       13.378202   0.000000
   29       16.097437   0.000000
   30       16.128106   0.000000
   31       16.128106   0.000000
   32       17.702313   0.000000
   33       19.064832   0.000000
   34       19.635976   0.000000
   35       22.581859   0.000000
   36       23.185223   0.000000
   37       24.624939   0.000000
   38       25.471961   0.000000
   39       25.471961   0.000000
   40       25.842633   0.000000
   41       27.196560   0.000000
   42       28.266746   0.000000
   43       29.950716   0.000000
   44       29.950716   0.000000
   45       32.817476   0.000000
   46       34.944841   0.000000
   47       34.944841   0.000000
   48       35.202801   0.000000
 
  0.4444444E+00  0.1111111E+00  0.1111111E+00  0.3292181E-01
    1       -0.333287   1.000000
    2        0.574287   1.000000