       N       E                     dE             d eps       ncg     rms          rms(c)
DAV:   1     0.173603165258E+03    0.17360E+03   -0.16598E+04  3624   0.128E+03
DAV:   2    -0.114705106058E+02   -0.18507E+03   -0.16699E+03  3528   0.193E+02
DAV:   3    -0.175085119877E+02   -0.60380E+01   -0.59511E+01  4560   0.423E+01
DAV:   4    -0.175580063371E+02   -0.49494E-01   -0.49492E-01  3768   0.334E+00
DAV:   5    -0.175587749650E+02   -0.76863E-03   -0.76863E-03  4656   0.457E-01    0.145E+01
DAV:   6    -0.163838722680E+02    0.11749E+01   -0.39011E+01  4248   0.711E+01    0.952E+00
DAV:   7    -0.144309636403E+02    0.19529E+01   -0.70356E+00  4224   0.309E+01    0.775E-01
DAV:   8    -0.144152023801E+02    0.15761E-01   -0.68060E-02  5232   0.260E+00    0.847E-01
DAV:   9    -0.144028018709E+02    0.12401E-01   -0.51549E-02  4416   0.241E+00    0.778E-02
DAV:  10    -0.144027822480E+02    0.19623E-04   -0.44082E-04  4608   0.189E-01
   1 F= -.14402782E+02 E0= -.14402136E+02  d E =-.193892E-02
