 vasp.5.4.1 05Feb16 (build Feb 08 2018 09:21:51) complex                        
  
 executed on             LinuxIFC date 2019.11.21  15:53:40
 running on   24 total cores
 distrk:  each k-point on   24 cores,    1 groups
 distr:  one band on NCORES_PER_BAND=   1 cores,   24 groups


--------------------------------------------------------------------------------------------------------


 INCAR:
 POTCAR:    PAW_PBE Cu 22Jun2005                  

 ----------------------------------------------------------------------------- 
|                                                                             |
|           W    W    AA    RRRRR   N    N  II  N    N   GGGG   !!!           |
|           W    W   A  A   R    R  NN   N  II  NN   N  G    G  !!!           |
|           W    W  A    A  R    R  N N  N  II  N N  N  G       !!!           |
|           W WW W  AAAAAA  RRRRR   N  N N  II  N  N N  G  GGG   !            |
|           WW  WW  A    A  R   R   N   NN  II  N   NN  G    G                |
|           W    W  A    A  R    R  N    N  II  N    N   GGGG   !!!           |
|                                                                             |
|      For optimal performance we recommend to set                            |
|        NCORE= 4 - approx SQRT( number of cores)                             |
|      NCORE specifies how many cores store one orbital (NPAR=cpu/NCORE).     |
|      This setting can  greatly improve the performance of VASP for DFT.     |
|      The default, NPAR=number of cores might be grossly inefficient         |
|      on modern multi-core architectures or massively parallel machines.     |
|      Do your own testing !!!!                                               |
|      Unfortunately you need to use the default for GW and RPA calculations. |
|      (for HF NCORE is supported but not extensively tested yet)             |
|                                                                             |
 ----------------------------------------------------------------------------- 

 POTCAR:    PAW_PBE Cu 22Jun2005                  
   VRHFIN =Cu: d10 p1                                                           
   LEXCH  = PE                                                                  
   EATOM  =  1390.9808 eV,  102.2342 Ry                                         
                                                                                
   TITEL  = PAW_PBE Cu 22Jun2005                                                
   LULTRA =        F    use ultrasoft PP ?                                      
   IUNSCR =        1    unscreen: 0-lin 1-nonlin 2-no                           
   RPACOR =    2.000    partial core radius                                     
   POMASS =   63.546; ZVAL   =   11.000    mass and valenz                      
   RCORE  =    2.300    outmost cutoff radius                                   
   RWIGS  =    2.200; RWIGS  =    1.164    wigner-seitz radius (au A)           
   ENMAX  =  295.446; ENMIN  =  221.585 eV                                      
   ICORE  =        3    local potential                                         
   LCOR   =        T    correct aug charges                                     
   LPAW   =        T    paw PP                                                  
   EAUG   =  586.980                                                            
   DEXC   =    0.000                                                            
   RMAX   =    2.344    core radius for proj-oper                               
   RAUG   =    1.300    factor for augmentation sphere                          
   RDEP   =    2.302    radius for radial grids                                 
   RDEPT  =    1.771    core radius for aug-charge                              
                                                                                
   Atomic configuration                                                         
    9 entries                                                                   
     n  l   j            E        occ.                                          
     1  0  0.50     -8850.2468   2.0000                                         
     2  0  0.50     -1062.3498   2.0000                                         
     2  1  1.50      -916.8226   6.0000                                         
     3  0  0.50      -114.6929   2.0000                                         
     3  1  1.50       -72.1325   6.0000                                         
     3  2  2.50        -5.0394  10.0000                                         
     4  0  0.50        -4.6097   1.0000                                         
     4  1  0.50        -4.0817   0.0000                                         
     4  3  2.50        -1.3606   0.0000                                         
   Description                                                                  
     l       E           TYP  RCUT    TYP  RCUT                                 
     2     -5.0393973     23  2.200                                             
     2     10.8846608     23  2.200                                             
     0     -4.6097109     23  2.200                                             
     0      8.2520465     23  2.200                                             
     1     -2.7211652     23  2.200                                             
     1     21.7055443     23  2.200                                             
     3      2.7211652     23  2.300                                             
  local pseudopotential read in
  partial core-charges read in
  partial kinetic energy density read in
  atomic valenz-charges read in
  non local Contribution for L=           2  read in
    real space projection operators read in
  non local Contribution for L=           2  read in
    real space projection operators read in
  non local Contribution for L=           0  read in
    real space projection operators read in
  non local Contribution for L=           0  read in
    real space projection operators read in
  non local Contribution for L=           1  read in
    real space projection operators read in
  non local Contribution for L=           1  read in
    real space projection operators read in
    PAW grid and wavefunctions read in
 
   number of l-projection  operators is LMAX  =           6
   number of lm-projection operators is LMMAX =          18
 
  PAW_PBE Cu 22Jun2005                  :
 energy of atom  1       EATOM=-1390.9808
 kinetic energy error for atom=    0.0232 (will be added to EATOM!!)
 
 
 POSCAR: Cu                                      
  positions in cartesian coordinates
  No initial velocities read in
 exchange correlation table for  LEXCH =        8
   RHO(1)=    0.500       N(1)  =     2000
   RHO(2)=  100.500       N(2)  =     4000
 


--------------------------------------------------------------------------------------------------------


 ion  position               nearest neighbor table
   1  0.000  0.000  0.000-   2 2.72   3 2.72   4 2.72   2 2.72   3 2.72   2 2.72   4 2.72   2 2.72
                             3 2.72   4 2.72   3 2.72   4 2.72
   2  0.000  0.500  0.500-   1 2.72   3 2.72   4 2.72   1 2.72   4 2.72   1 2.72   3 2.72   1 2.72
                             3 2.72   4 2.72   4 2.72   3 2.72
   3  0.500  0.000  0.500-   1 2.72   2 2.72   4 2.72   1 2.72   4 2.72   2 2.72   4 2.72   4 2.72
                             1 2.72   2 2.72   1 2.72   2 2.72
   4  0.500  0.500  0.000-   1 2.72   2 2.72   3 2.72   2 2.72   3 2.72   1 2.72   3 2.72   3 2.72
                             1 2.72   2 2.72   2 2.72   1 2.72
 
  LATTYP: Found a simple cubic cell.
 ALAT       =     3.8506666667
  
  Lattice vectors:
  
 A1 = (   3.8506666667,   0.0000000000,   0.0000000000)
 A2 = (   0.0000000000,   3.8506666667,   0.0000000000)
 A3 = (   0.0000000000,   0.0000000000,   3.8506666667)


Analysis of symmetry for initial positions (statically):
=====================================================================
 Subroutine PRICEL returns following result:
 
  LATTYP: Found a face centered cubic cell.
 ALAT       =     3.8506666667
  
  Lattice vectors:
  
 A1 = (   1.9253333333,   1.9253333333,   0.0000000000)
 A2 = (   1.9253333333,   0.0000000000,  -1.9253333333)
 A3 = (   0.0000000000,   1.9253333333,  -1.9253333333)
 
   4 primitive cells build up your supercell.
 

 Routine SETGRP: Setting up the symmetry group for a 
 simple cubic supercell.


 Subroutine GETGRP returns: Found 48 space group operations
 (whereof 48 operations were pure point group operations)
 out of a pool of 48 trial point group operations.


The static configuration has the point symmetry O_h .


Analysis of symmetry for dynamics (positions and initial velocities):
=====================================================================
 Subroutine PRICEL returns following result:
 
  LATTYP: Found a face centered cubic cell.
 ALAT       =     3.8506666667
  
  Lattice vectors:
  
 A1 = (   1.9253333333,   1.9253333333,   0.0000000000)
 A2 = (   1.9253333333,   0.0000000000,  -1.9253333333)
 A3 = (   0.0000000000,   1.9253333333,  -1.9253333333)
 
   4 primitive cells build up your supercell.
 

 Routine SETGRP: Setting up the symmetry group for a 
 simple cubic supercell.


 Subroutine GETGRP returns: Found 48 space group operations
 (whereof 48 operations were pure point group operations)
 out of a pool of 48 trial point group operations.


The dynamic configuration has the point symmetry O_h .


 Subroutine INISYM returns: Found 48 space group operations
 (whereof 48 operations are pure point group operations),
 and found     4 'primitive' translations

 
 
 KPOINTS: KPOINTS created by Atomic Simulation Env

Automatic generation of k-mesh.
Space group operators:
 irot       det(A)        alpha          n_x          n_y          n_z        tau_x        tau_y        tau_z
    1     1.000000     0.000000     1.000000     0.000000     0.000000     0.000000     0.000000     0.000000
    2    -1.000000     0.000000     1.000000     0.000000     0.000000     0.000000     0.000000     0.000000
    3     1.000000   120.000000    -0.577350    -0.577350    -0.577350     0.000000     0.000000     0.000000
    4    -1.000000   120.000000    -0.577350    -0.577350    -0.577350     0.000000     0.000000     0.000000
    5     1.000000   120.000000     0.577350     0.577350     0.577350     0.000000     0.000000     0.000000
    6    -1.000000   120.000000     0.577350     0.577350     0.577350     0.000000     0.000000     0.000000
    7     1.000000    90.000000     0.000000     0.000000    -1.000000     0.000000     0.000000     0.000000
    8    -1.000000    90.000000     0.000000     0.000000    -1.000000     0.000000     0.000000     0.000000
    9     1.000000   180.000000     0.000000     0.707107     0.707107     0.000000     0.000000     0.000000
   10    -1.000000   180.000000     0.000000     0.707107     0.707107     0.000000     0.000000     0.000000
   11     1.000000    90.000000     0.000000     1.000000     0.000000     0.000000     0.000000     0.000000
   12    -1.000000    90.000000     0.000000     1.000000     0.000000     0.000000     0.000000     0.000000
   13     1.000000   180.000000     0.000000     0.000000     1.000000     0.000000     0.000000     0.000000
   14    -1.000000   180.000000     0.000000     0.000000     1.000000     0.000000     0.000000     0.000000
   15     1.000000   120.000000    -0.577350     0.577350     0.577350     0.000000     0.000000     0.000000
   16    -1.000000   120.000000    -0.577350     0.577350     0.577350     0.000000     0.000000     0.000000
   17     1.000000   120.000000    -0.577350     0.577350    -0.577350     0.000000     0.000000     0.000000
   18    -1.000000   120.000000    -0.577350     0.577350    -0.577350     0.000000     0.000000     0.000000
   19     1.000000    90.000000     0.000000     0.000000     1.000000     0.000000     0.000000     0.000000
   20    -1.000000    90.000000     0.000000     0.000000     1.000000     0.000000     0.000000     0.000000
   21     1.000000    90.000000    -1.000000     0.000000     0.000000     0.000000     0.000000     0.000000
   22    -1.000000    90.000000    -1.000000     0.000000     0.000000     0.000000     0.000000     0.000000
   23     1.000000   180.000000     0.707107     0.000000     0.707107     0.000000     0.000000     0.000000
   24    -1.000000   180.000000     0.707107     0.000000     0.707107     0.000000     0.000000     0.000000
   25     1.000000   120.000000     0.577350    -0.577350     0.577350     0.000000     0.000000     0.000000
   26    -1.000000   120.000000     0.577350    -0.577350     0.577350     0.000000     0.000000     0.000000
   27     1.000000   120.000000    -0.577350    -0.577350     0.577350     0.000000     0.000000     0.000000
   28    -1.000000   120.000000    -0.577350    -0.577350     0.577350     0.000000     0.000000     0.000000
   29     1.000000   180.000000     1.000000     0.000000     0.000000     0.000000     0.000000     0.000000
   30    -1.000000   180.000000     1.000000     0.000000     0.000000     0.000000     0.000000     0.000000
   31     1.000000    90.000000     0.000000    -1.000000     0.000000     0.000000     0.000000     0.000000
   32    -1.000000    90.000000     0.000000    -1.000000     0.000000     0.000000     0.000000     0.000000
   33     1.000000   180.000000     0.707107     0.707107     0.000000     0.000000     0.000000     0.000000
   34    -1.000000   180.000000     0.707107     0.707107     0.000000     0.000000     0.000000     0.000000
   35     1.000000    90.000000     1.000000     0.000000     0.000000     0.000000     0.000000     0.000000
   36    -1.000000    90.000000     1.000000     0.000000     0.000000     0.000000     0.000000     0.000000
   37     1.000000   120.000000     0.577350    -0.577350    -0.577350     0.000000     0.000000     0.000000
   38    -1.000000   120.000000     0.577350    -0.577350    -0.577350     0.000000     0.000000     0.000000
   39     1.000000   180.000000     0.000000     1.000000     0.000000     0.000000     0.000000     0.000000
   40    -1.000000   180.000000     0.000000     1.000000     0.000000     0.000000     0.000000     0.000000
   41     1.000000   120.000000     0.577350     0.577350    -0.577350     0.000000     0.000000     0.000000
   42    -1.000000   120.000000     0.577350     0.577350    -0.577350     0.000000     0.000000     0.000000
   43     1.000000   180.000000     0.000000    -0.707107     0.707107     0.000000     0.000000     0.000000
   44    -1.000000   180.000000     0.000000    -0.707107     0.707107     0.000000     0.000000     0.000000
   45     1.000000   180.000000     0.707107    -0.707107     0.000000     0.000000     0.000000     0.000000
   46    -1.000000   180.000000     0.707107    -0.707107     0.000000     0.000000     0.000000     0.000000
   47     1.000000   180.000000     0.707107     0.000000    -0.707107     0.000000     0.000000     0.000000
   48    -1.000000   180.000000     0.707107     0.000000    -0.707107     0.000000     0.000000     0.000000
 
 Subroutine IBZKPT returns following result:
 ===========================================
 
 Found     35 irreducible k-points:
 
 Following reciprocal coordinates:
            Coordinates               Weight
  0.000000  0.000000  0.000000      1.000000
  0.111111  0.000000  0.000000      6.000000
  0.222222  0.000000  0.000000      6.000000
  0.333333  0.000000  0.000000      6.000000
  0.444444  0.000000  0.000000      6.000000
  0.111111  0.111111  0.000000     12.000000
  0.222222  0.111111  0.000000     24.000000
  0.333333  0.111111  0.000000     24.000000
  0.444444  0.111111  0.000000     24.000000
  0.222222  0.222222  0.000000     12.000000
  0.333333  0.222222  0.000000     24.000000
  0.444444  0.222222  0.000000     24.000000
  0.333333  0.333333  0.000000     12.000000
  0.444444  0.333333  0.000000     24.000000
  0.444444  0.444444  0.000000     12.000000
  0.111111  0.111111  0.111111      8.000000
  0.222222  0.111111  0.111111     24.000000
  0.333333  0.111111  0.111111     24.000000
  0.444444  0.111111  0.111111     24.000000
  0.222222  0.222222  0.111111     24.000000
  0.333333  0.222222  0.111111     48.000000
  0.444444  0.222222  0.111111     48.000000
  0.333333  0.333333  0.111111     24.000000
  0.444444  0.333333  0.111111     48.000000
  0.444444  0.444444  0.111111     24.000000
  0.222222  0.222222  0.222222      8.000000
  0.333333  0.222222  0.222222     24.000000
  0.444444  0.222222  0.222222     24.000000
  0.333333  0.333333  0.222222     24.000000
  0.444444  0.333333  0.222222     48.000000
  0.444444  0.444444  0.222222     24.000000
  0.333333  0.333333  0.333333      8.000000
  0.444444  0.333333  0.333333     24.000000
  0.444444  0.444444  0.333333     24.000000
  0.444444  0.444444  0.444444      8.000000
 
 Following cartesian coordinates:
            Coordinates               Weight
  0.000000  0.000000  0.000000      1.000000
  0.028855  0.000000  0.000000      6.000000
  0.057710  0.000000  0.000000      6.000000
  0.086565  0.000000  0.000000      6.000000
  0.115420  0.000000  0.000000      6.000000
  0.028855  0.028855  0.000000     12.000000
  0.057710  0.028855  0.000000     24.000000
  0.086565  0.028855  0.000000     24.000000
  0.115420  0.028855  0.000000     24.000000
  0.057710  0.057710  0.000000     12.000000
  0.086565  0.057710  0.000000     24.000000
  0.115420  0.057710  0.000000     24.000000
  0.086565  0.086565  0.000000     12.000000
  0.115420  0.086565  0.000000     24.000000
  0.115420  0.115420  0.000000     12.000000
  0.028855  0.028855  0.028855      8.000000
  0.057710  0.028855  0.028855     24.000000
  0.086565  0.028855  0.028855     24.000000
  0.115420  0.028855  0.028855     24.000000
  0.057710  0.057710  0.028855     24.000000
  0.086565  0.057710  0.028855     48.000000
  0.115420  0.057710  0.028855     48.000000
  0.086565  0.086565  0.028855     24.000000
  0.115420  0.086565  0.028855     48.000000
  0.115420  0.115420  0.028855     24.000000
  0.057710  0.057710  0.057710      8.000000
  0.086565  0.057710  0.057710     24.000000
  0.115420  0.057710  0.057710     24.000000
  0.086565  0.086565  0.057710     24.000000
  0.115420  0.086565  0.057710     48.000000
  0.115420  0.115420  0.057710     24.000000
  0.086565  0.086565  0.086565      8.000000
  0.115420  0.086565  0.086565     24.000000
  0.115420  0.115420  0.086565     24.000000
  0.115420  0.115420  0.115420      8.000000
 


--------------------------------------------------------------------------------------------------------




 Dimension of arrays:
   k-points           NKPTS =     35   k-points in BZ     NKDIM =     35   number of bands    NBANDS=     48
   number of dos      NEDOS =    301   number of ions     NIONS =      4
   non local maximal  LDIM  =      6   non local SUM 2l+1 LMDIM =     18
   total plane-waves  NPLWV =   8000
   max r-space proj   IRMAX =      1   max aug-charges    IRDMAX=   4258
   dimension x,y,z NGX =    20 NGY =   20 NGZ =   20
   dimension x,y,z NGXF=    40 NGYF=   40 NGZF=   40
   support grid    NGXF=    40 NGYF=   40 NGZF=   40
   ions per type =               4
 NGX,Y,Z   is equivalent  to a cutoff of   8.63,  8.63,  8.63 a.u.
 NGXF,Y,Z  is equivalent  to a cutoff of  17.27, 17.27, 17.27 a.u.


 I would recommend the setting:
   dimension x,y,z NGX =    19 NGY =   19 NGZ =   19
 SYSTEM =  unknown system                          
 POSCAR =  Cu                                      

 Startparameter for this run:
   NWRITE =      2    write-flag & timer
   PREC   = normal    normal or accurate (medium, high low for compatibility)
   ISTART =      0    job   : 0-new  1-cont  2-samecut
   ICHARG =      2    charge: 1-file 2-atom 10-const
   ISPIN  =      1    spin polarized calculation?
   LNONCOLLINEAR =      F non collinear calculations
   LSORBIT =      F    spin-orbit coupling
   INIWAV =      1    electr: 0-lowe 1-rand  2-diag
   LASPH  =      F    aspherical Exc in radial PAW
   METAGGA=      F    non-selfconsistent MetaGGA calc.

 Electronic Relaxation 1
   ENCUT  =  400.0 eV  29.40 Ry    5.42 a.u.   6.28  6.28  6.28*2*pi/ulx,y,z
   ENINI  =  400.0     initial cutoff
   ENAUG  =  587.0 eV  augmentation charge cutoff
   NELM   =     60;   NELMIN=  2; NELMDL= -5     # of ELM steps 
   EDIFF  = 0.1E-03   stopping-criterion for ELM
   LREAL  =      F    real-space projection
   NLSPLINE    = F    spline interpolate recip. space projectors
   LCOMPAT=      F    compatible to vasp.4.4
   GGA_COMPAT  = T    GGA compatible to vasp.4.4-vasp.4.6
   LMAXPAW     = -100 max onsite density
   LMAXMIX     =    2 max onsite mixed and CHGCAR
   VOSKOWN=      0    Vosko Wilk Nusair interpolation
   ROPT   =    0.00000
 Ionic relaxation
   EDIFFG = 0.1E-02   stopping-criterion for IOM
   NSW    =      0    number of steps for IOM
   NBLOCK =      1;   KBLOCK =      1    inner block; outer block 
   IBRION =     -1    ionic relax: 0-MD 1-quasi-New 2-CG
   NFREE  =      0    steps in history (QN), initial steepest desc. (CG)
   ISIF   =      2    stress and relaxation
   IWAVPR =     10    prediction:  0-non 1-charg 2-wave 3-comb
   ISYM   =      2    0-nonsym 1-usesym 2-fastsym
   LCORR  =      T    Harris-Foulkes like correction to forces

   POTIM  = 0.5000    time-step for ionic-motion
   TEIN   =    0.0    initial temperature
   TEBEG  =    0.0;   TEEND  =   0.0 temperature during run
   SMASS  =  -3.00    Nose mass-parameter (am)
   estimated Nose-frequenzy (Omega)   =  0.10E-29 period in steps =****** mass=  -0.339E-27a.u.
   SCALEE = 1.0000    scale energy and forces
   NPACO  =    256;   APACO  = 16.0  distance and # of slots for P.C.
   PSTRESS=    0.0 pullay stress

  Mass of Ions in am
   POMASS =  63.55
  Ionic Valenz
   ZVAL   =  11.00
  Atomic Wigner-Seitz radii
   RWIGS  =  -1.00
  virtual crystal weights 
   VCA    =   1.00
   NELECT =      44.0000    total number of electrons
   NUPDOWN=      -1.0000    fix difference up-down

 DOS related values:
   EMIN   =  10.00;   EMAX   =-10.00  energy-range for DOS
   EFERMI =   0.00
   ISMEAR =     1;   SIGMA  =   0.10  broadening in eV -4-tet -1-fermi 0-gaus

 Electronic relaxation 2 (details)
   IALGO  =     38    algorithm
   LDIAG  =      T    sub-space diagonalisation (order eigenvalues)
   LSUBROT=      F    optimize rotation matrix (better conditioning)
   TURBO    =      0    0=normal 1=particle mesh
   IRESTART =      0    0=no restart 2=restart with 2 vectors
   NREBOOT  =      0    no. of reboots
   NMIN     =      0    reboot dimension
   EREF     =   0.00    reference energy to select bands
   IMIX   =      4    mixing-type and parameters
     AMIX     =   0.40;   BMIX     =  1.00
     AMIX_MAG =   1.60;   BMIX_MAG =  1.00
     AMIN     =   0.10
     WC   =   100.;   INIMIX=   1;  MIXPRE=   1;  MAXMIX= -45

 Intra band minimization:
   WEIMIN = 0.0000     energy-eigenvalue tresh-hold
   EBREAK =  0.52E-06  absolut break condition
   DEPER  =   0.30     relativ break condition  

   TIME   =   0.40     timestep for ELM

  volume/ion in A,a.u.               =      14.27        96.33
  Fermi-wavevector in a.u.,A,eV,Ry     =   1.500916  2.836320 30.650520  2.252750
  Thomas-Fermi vector in A             =   2.612355
 
 Write flags
   LWAVE  =      F    write WAVECAR
   LCHARG =      F    write CHGCAR
   LVTOT  =      F    write LOCPOT, total local potential
   LVHAR  =      F    write LOCPOT, Hartree potential only
   LELF   =      F    write electronic localiz. function (ELF)
   LORBIT =      0    0 simple, 1 ext, 2 COOP (PROOUT)


 Dipole corrections
   LMONO  =      F    monopole corrections only (constant potential shift)
   LDIPOL =      F    correct potential (dipole corrections)
   IDIPOL =      0    1-x, 2-y, 3-z, 4-all directions 
   EPSILON=  1.0000000 bulk dielectric constant

 Exchange correlation treatment:
   GGA     =    --    GGA type
   LEXCH   =     8    internal setting for exchange type
   VOSKOWN=      0    Vosko Wilk Nusair interpolation
   LHFCALC =     F    Hartree Fock is set to
   LHFONE  =     F    Hartree Fock one center treatment
   AEXX    =    0.0000 exact exchange contribution

 Linear response parameters
   LEPSILON=     F    determine dielectric tensor
   LRPA    =     F    only Hartree local field effects (RPA)
   LNABLA  =     F    use nabla operator in PAW spheres
   LVEL    =     F    velocity operator in full k-point grid
   LINTERFAST=   F  fast interpolation
   KINTER  =     0    interpolate to denser k-point grid
   CSHIFT  =0.1000    complex shift for real part using Kramers Kronig
   OMEGAMAX=  -1.0    maximum frequency
   DEG_THRESHOLD= 0.2000000E-02 threshold for treating states as degnerate
   RTIME   =    0.100 relaxation time in fs

 Orbital magnetization related:
   ORBITALMAG=     F  switch on orbital magnetization
   LCHIMAG   =     F  perturbation theory with respect to B field
   DQ        =  0.001000  dq finite difference perturbation B field



--------------------------------------------------------------------------------------------------------


 Static calculation
 charge density and potential will be updated during run
 non-spin polarized calculation
 Variant of blocked Davidson
 Davidson routine will perform the subspace rotation
 perform sub-space diagonalisation
    after iterative eigenvector-optimisation
 modified Broyden-mixing scheme, WC =      100.0
 initial mixing is a Kerker type mixing with AMIX =  0.4000 and BMIX =      1.0000
 Hartree-type preconditioning will be used
 using additional bands           26
 reciprocal scheme for non local part
 use partial core corrections
 calculate Harris-corrections to forces 
   (improved forces if not selfconsistent)
 use gradient corrections 
 use of overlap-Matrix (Vanderbilt PP)
 Methfessel and Paxton  Order N= 1 SIGMA  =   0.10


--------------------------------------------------------------------------------------------------------


  energy-cutoff  :      400.00
  volume of cell :       57.10
      direct lattice vectors                 reciprocal lattice vectors
     3.850666667  0.000000000  0.000000000     0.259695291  0.000000000  0.000000000
     0.000000000  3.850666667  0.000000000     0.000000000  0.259695291  0.000000000
     0.000000000  0.000000000  3.850666667     0.000000000  0.000000000  0.259695291

  length of vectors
     3.850666667  3.850666667  3.850666667     0.259695291  0.259695291  0.259695291


 
 k-points in units of 2pi/SCALE and weight: KPOINTS created by Atomic Simulation Env
   0.00000000  0.00000000  0.00000000       0.001
   0.02885503  0.00000000  0.00000000       0.008
   0.05771006  0.00000000  0.00000000       0.008
   0.08656510  0.00000000  0.00000000       0.008
   0.11542013  0.00000000  0.00000000       0.008
   0.02885503  0.02885503  0.00000000       0.016
   0.05771006  0.02885503  0.00000000       0.033
   0.08656510  0.02885503  0.00000000       0.033
   0.11542013  0.02885503  0.00000000       0.033
   0.05771006  0.05771006  0.00000000       0.016
   0.08656510  0.05771006  0.00000000       0.033
   0.11542013  0.05771006  0.00000000       0.033
   0.08656510  0.08656510  0.00000000       0.016
   0.11542013  0.08656510  0.00000000       0.033
   0.11542013  0.11542013  0.00000000       0.016
   0.02885503  0.02885503  0.02885503       0.011
   0.05771006  0.02885503  0.02885503       0.033
   0.08656510  0.02885503  0.02885503       0.033
   0.11542013  0.02885503  0.02885503       0.033
   0.05771006  0.05771006  0.02885503       0.033
   0.08656510  0.05771006  0.02885503       0.066
   0.11542013  0.05771006  0.02885503       0.066
   0.08656510  0.08656510  0.02885503       0.033
   0.11542013  0.08656510  0.02885503       0.066
   0.11542013  0.11542013  0.02885503       0.033
   0.05771006  0.05771006  0.05771006       0.011
   0.08656510  0.05771006  0.05771006       0.033
   0.11542013  0.05771006  0.05771006       0.033
   0.08656510  0.08656510  0.05771006       0.033
   0.11542013  0.08656510  0.05771006       0.066
   0.11542013  0.11542013  0.05771006       0.033
   0.08656510  0.08656510  0.08656510       0.011
   0.11542013  0.08656510  0.08656510       0.033
   0.11542013  0.11542013  0.08656510       0.033
   0.11542013  0.11542013  0.11542013       0.011
 
 k-points in reciprocal lattice and weights: KPOINTS created by Atomic Simulation Env
   0.00000000  0.00000000  0.00000000       0.001
   0.11111111  0.00000000  0.00000000       0.008
   0.22222222  0.00000000  0.00000000       0.008
   0.33333333  0.00000000  0.00000000       0.008
   0.44444444  0.00000000  0.00000000       0.008
   0.11111111  0.11111111  0.00000000       0.016
   0.22222222  0.11111111  0.00000000       0.033
   0.33333333  0.11111111  0.00000000       0.033
   0.44444444  0.11111111  0.00000000       0.033
   0.22222222  0.22222222  0.00000000       0.016
   0.33333333  0.22222222  0.00000000       0.033
   0.44444444  0.22222222  0.00000000       0.033
   0.33333333  0.33333333  0.00000000       0.016
   0.44444444  0.33333333  0.00000000       0.033
   0.44444444  0.44444444  0.00000000       0.016
   0.11111111  0.11111111  0.11111111       0.011
   0.22222222  0.11111111  0.11111111       0.033
   0.33333333  0.11111111  0.11111111       0.033
   0.44444444  0.11111111  0.11111111       0.033
   0.22222222  0.22222222  0.11111111       0.033
   0.33333333  0.22222222  0.11111111       0.066
   0.44444444  0.22222222  0.11111111       0.066
   0.33333333  0.33333333  0.11111111       0.033
   0.44444444  0.33333333  0.11111111       0.066
   0.44444444  0.44444444  0.11111111       0.033
   0.22222222  0.22222222  0.22222222       0.011
   0.33333333  0.22222222  0.22222222       0.033
   0.44444444  0.22222222  0.22222222       0.033
   0.33333333  0.33333333  0.22222222       0.033
   0.44444444  0.33333333  0.22222222       0.066
   0.44444444  0.44444444  0.22222222       0.033
   0.33333333  0.33333333  0.33333333       0.011
   0.44444444  0.33333333  0.33333333       0.033
   0.44444444  0.44444444  0.33333333       0.033
   0.44444444  0.44444444  0.44444444       0.011
 
 position of ions in fractional coordinates (direct lattice) 
   0.00000000  0.00000000  0.00000000
   0.00000000  0.50000000  0.50000000
   0.50000000  0.00000000  0.50000000
   0.50000000  0.50000000  0.00000000
 
 position of ions in cartesian coordinates  (Angst):
   0.00000000  0.00000000  0.00000000
   0.00000000  1.92533333  1.92533333
   1.92533333  0.00000000  1.92533333
   1.92533333  1.92533333  0.00000000
 


--------------------------------------------------------------------------------------------------------


 k-point  1 :   0.0000 0.0000 0.0000  plane waves:    1021
 k-point  2 :   0.1111 0.0000 0.0000  plane waves:    1025
 k-point  3 :   0.2222 0.0000 0.0000  plane waves:    1037
 k-point  4 :   0.3333 0.0000 0.0000  plane waves:    1032
 k-point  5 :   0.4444 0.0000 0.0000  plane waves:    1040
 k-point  6 :   0.1111 0.1111 0.0000  plane waves:    1025
 k-point  7 :   0.2222 0.1111 0.0000  plane waves:    1032
 k-point  8 :   0.3333 0.1111 0.0000  plane waves:    1040
 k-point  9 :   0.4444 0.1111 0.0000  plane waves:    1041
 k-point 10 :   0.2222 0.2222 0.0000  plane waves:    1037
 k-point 11 :   0.3333 0.2222 0.0000  plane waves:    1045
 k-point 12 :   0.4444 0.2222 0.0000  plane waves:    1040
 k-point 13 :   0.3333 0.3333 0.0000  plane waves:    1045
 k-point 14 :   0.4444 0.3333 0.0000  plane waves:    1041
 k-point 15 :   0.4444 0.4444 0.0000  plane waves:    1040
 k-point 16 :   0.1111 0.1111 0.1111  plane waves:    1039
 k-point 17 :   0.2222 0.1111 0.1111  plane waves:    1040
 k-point 18 :   0.3333 0.1111 0.1111  plane waves:    1041
 k-point 19 :   0.4444 0.1111 0.1111  plane waves:    1046
 k-point 20 :   0.2222 0.2222 0.1111  plane waves:    1036
 k-point 21 :   0.3333 0.2222 0.1111  plane waves:    1033
 k-point 22 :   0.4444 0.2222 0.1111  plane waves:    1040
 k-point 23 :   0.3333 0.3333 0.1111  plane waves:    1037
 k-point 24 :   0.4444 0.3333 0.1111  plane waves:    1035
 k-point 25 :   0.4444 0.4444 0.1111  plane waves:    1032
 k-point 26 :   0.2222 0.2222 0.2222  plane waves:    1039
 k-point 27 :   0.3333 0.2222 0.2222  plane waves:    1033
 k-point 28 :   0.4444 0.2222 0.2222  plane waves:    1036
 k-point 29 :   0.3333 0.3333 0.2222  plane waves:    1038
 k-point 30 :   0.4444 0.3333 0.2222  plane waves:    1034
 k-point 31 :   0.4444 0.4444 0.2222  plane waves:    1028
 k-point 32 :   0.3333 0.3333 0.3333  plane waves:    1033
 k-point 33 :   0.4444 0.3333 0.3333  plane waves:    1029
 k-point 34 :   0.4444 0.4444 0.3333  plane waves:    1032
 k-point 35 :   0.4444 0.4444 0.4444  plane waves:    1046

 maximum and minimum number of plane-waves per node :      1046     1021

 maximum number of plane-waves:      1046
 maximum index in each direction: 
   IXMAX=    6   IYMAX=    6   IZMAX=    6
   IXMIN=   -6   IYMIN=   -6   IZMIN=   -6

 WARNING: aliasing errors must be expected set NGX to  26 to avoid them
 WARNING: aliasing errors must be expected set NGY to  26 to avoid them
 WARNING: aliasing errors must be expected set NGZ to  26 to avoid them
 aliasing errors are usually negligible using standard VASP settings
 and one can safely disregard these warnings

 serial   3D FFT for wavefunctions
 parallel 3D FFT for charge:
    minimum data exchange during FFTs selected (reduces bandwidth)


 total amount of memory used by VASP on root node    37346. kBytes
========================================================================

   base      :      30000. kBytes
   nonl-proj :       5389. kBytes
   fftplans  :        147. kBytes
   grid      :        485. kBytes
   one-center:         62. kBytes
   wavefun   :       1263. kBytes
 
     INWAV:  cpu time    0.0000: real time    0.0001
 Broyden mixing: mesh for mixing (old mesh)
   NGX = 13   NGY = 13   NGZ = 13
  (NGX  = 40   NGY  = 40   NGZ  = 40)
  gives a total of   2197 points

 initial charge density was supplied:
 charge density of overlapping atoms calculated
 number of electron      44.0000000 magnetization 
 keeping initial charge density in first step


--------------------------------------------------------------------------------------------------------


 Maximum index for augmentation-charges          293 (set IRDMAX)


--------------------------------------------------------------------------------------------------------


 First call to EWALD:  gamma=   0.460
 Maximum number of real-space cells 3x 3x 3
 Maximum number of reciprocal cells 3x 3x 3

 FEWALD executed in parallel
    FEWALD:  cpu time    0.0016: real time    0.0016


----------------------------------------- Iteration    1(   1)  ---------------------------------------


    POTLOK:  cpu time    0.0039: real time    0.0039
    SETDIJ:  cpu time    0.0032: real time    0.0032
     EDDAV:  cpu time    0.5703: real time    0.5720
       DOS:  cpu time    0.0013: real time    0.0013
    --------------------------------------------
      LOOP:  cpu time    0.5806: real time    0.5889

 eigenvalue-minimisations  :  3624
 total energy-change (2. order) : 0.1736032E+03  (-0.1659813E+04)
 number of electron      44.0000000 magnetization 
 augmentation part       44.0000000 magnetization 

 Free energy of the ion-electron system (eV)
  ---------------------------------------------------
  alpha Z        PSCENC =       204.93891352
  Ewald energy   TEWEN  =     -4149.17539280
  -Hartree energ DENC   =     -1597.79700139
  -exchange      EXHF   =         0.00000000
  -V(xc)+E(xc)   XCENC  =       181.22454333
  PAW double counting   =      4912.82663951    -5336.19386850
  entropy T*S    EENTRO =        -0.00232591
  eigenvalues    EBANDS =       393.95109670
  atomic energy  EATOM  =      5563.83056080
  Solvation  Ediel_sol  =         0.00000000
  ---------------------------------------------------
  free energy    TOTEN  =       173.60316526 eV

  energy without entropy =      173.60549117  energy(sigma->0) =      173.60394056


--------------------------------------------------------------------------------------------------------




----------------------------------------- Iteration    1(   2)  ---------------------------------------


     EDDAV:  cpu time    0.4870: real time    0.4890
       DOS:  cpu time    0.0007: real time    0.0007
    --------------------------------------------
      LOOP:  cpu time    0.4890: real time    0.4923

 eigenvalue-minimisations  :  3528
 total energy-change (2. order) :-0.1850737E+03  (-0.1669856E+03)
 number of electron      44.0000000 magnetization 
 augmentation part       44.0000000 magnetization 

 Free energy of the ion-electron system (eV)
  ---------------------------------------------------
  alpha Z        PSCENC =       204.93891352
  Ewald energy   TEWEN  =     -4149.17539280
  -Hartree energ DENC   =     -1597.79700139
  -exchange      EXHF   =         0.00000000
  -V(xc)+E(xc)   XCENC  =       181.22454333
  PAW double counting   =      4912.82663951    -5336.19386850
  entropy T*S    EENTRO =        -0.00186416
  eigenvalues    EBANDS =       208.87695909
  atomic energy  EATOM  =      5563.83056080
  Solvation  Ediel_sol  =         0.00000000
  ---------------------------------------------------
  free energy    TOTEN  =       -11.47051061 eV

  energy without entropy =      -11.46864644  energy(sigma->0) =      -11.46988922


--------------------------------------------------------------------------------------------------------




----------------------------------------- Iteration    1(   3)  ---------------------------------------


     EDDAV:  cpu time    0.7753: real time    0.7776
       DOS:  cpu time    0.0010: real time    0.0010
    --------------------------------------------
      LOOP:  cpu time    0.7772: real time    0.7811

 eigenvalue-minimisations  :  4560
 total energy-change (2. order) :-0.6038001E+01  (-0.5951067E+01)
 number of electron      44.0000000 magnetization 
 augmentation part       44.0000000 magnetization 

 Free energy of the ion-electron system (eV)
  ---------------------------------------------------
  alpha Z        PSCENC =       204.93891352
  Ewald energy   TEWEN  =     -4149.17539280
  -Hartree energ DENC   =     -1597.79700139
  -exchange      EXHF   =         0.00000000
  -V(xc)+E(xc)   XCENC  =       181.22454333
  PAW double counting   =      4912.82663951    -5336.19386850
  entropy T*S    EENTRO =        -0.00118235
  eigenvalues    EBANDS =       202.83827589
  atomic energy  EATOM  =      5563.83056080
  Solvation  Ediel_sol  =         0.00000000
  ---------------------------------------------------
  free energy    TOTEN  =       -17.50851199 eV

  energy without entropy =      -17.50732964  energy(sigma->0) =      -17.50811787


--------------------------------------------------------------------------------------------------------




----------------------------------------- Iteration    1(   4)  ---------------------------------------


     EDDAV:  cpu time    0.5797: real time    0.5814
       DOS:  cpu time    0.0018: real time    0.0018
    --------------------------------------------
      LOOP:  cpu time    0.5824: real time    0.5854

 eigenvalue-minimisations  :  3768
 total energy-change (2. order) :-0.4949435E-01  (-0.4949232E-01)
 number of electron      44.0000000 magnetization 
 augmentation part       44.0000000 magnetization 

 Free energy of the ion-electron system (eV)
  ---------------------------------------------------
  alpha Z        PSCENC =       204.93891352
  Ewald energy   TEWEN  =     -4149.17539280
  -Hartree energ DENC   =     -1597.79700139
  -exchange      EXHF   =         0.00000000
  -V(xc)+E(xc)   XCENC  =       181.22454333
  PAW double counting   =      4912.82663951    -5336.19386850
  entropy T*S    EENTRO =        -0.00119082
  eigenvalues    EBANDS =       202.78879001
  atomic energy  EATOM  =      5563.83056080
  Solvation  Ediel_sol  =         0.00000000
  ---------------------------------------------------
  free energy    TOTEN  =       -17.55800634 eV

  energy without entropy =      -17.55681552  energy(sigma->0) =      -17.55760940


--------------------------------------------------------------------------------------------------------




----------------------------------------- Iteration    1(   5)  ---------------------------------------


     EDDAV:  cpu time    0.7578: real time    0.7584
       DOS:  cpu time    0.0009: real time    0.0009
    CHARGE:  cpu time    0.0138: real time    0.0143
    MIXING:  cpu time    0.0005: real time    0.0007
    --------------------------------------------
      LOOP:  cpu time    0.7740: real time    0.7766

 eigenvalue-minimisations  :  4656
 total energy-change (2. order) :-0.7686279E-03  (-0.7686250E-03)
 number of electron      43.9999049 magnetization 
 augmentation part       26.1013750 magnetization 

 Broyden mixing:
  rms(total) = 0.14462E+01    rms(broyden)= 0.14461E+01
  rms(prec ) = 0.33216E+01
  weight for this iteration     100.00

 Free energy of the ion-electron system (eV)
  ---------------------------------------------------
  alpha Z        PSCENC =       204.93891352
  Ewald energy   TEWEN  =     -4149.17539280
  -Hartree energ DENC   =     -1597.79700139
  -exchange      EXHF   =         0.00000000
  -V(xc)+E(xc)   XCENC  =       181.22454333
  PAW double counting   =      4912.82663951    -5336.19386850
  entropy T*S    EENTRO =        -0.00119098
  eigenvalues    EBANDS =       202.78802154
  atomic energy  EATOM  =      5563.83056080
  Solvation  Ediel_sol  =         0.00000000
  ---------------------------------------------------
  free energy    TOTEN  =       -17.55877497 eV

  energy without entropy =      -17.55758399  energy(sigma->0) =      -17.55837797


--------------------------------------------------------------------------------------------------------




----------------------------------------- Iteration    1(   6)  ---------------------------------------


    POTLOK:  cpu time    0.0060: real time    0.0060
    SETDIJ:  cpu time    0.0022: real time    0.0022
     EDDAV:  cpu time    0.6267: real time    0.6269
       DOS:  cpu time    0.0012: real time    0.0012
    CHARGE:  cpu time    0.0099: real time    0.0104
    MIXING:  cpu time    0.0005: real time    0.0005
    --------------------------------------------
      LOOP:  cpu time    0.6478: real time    0.6495

 eigenvalue-minimisations  :  4248
 total energy-change (2. order) : 0.1174903E+01  (-0.3901133E+01)
 number of electron      43.9998942 magnetization 
 augmentation part       29.6304994 magnetization 

 Broyden mixing:
  rms(total) = 0.95207E+00    rms(broyden)= 0.95188E+00
  rms(prec ) = 0.19956E+01
  weight for this iteration     100.00

 eigenvalues of (default mixing * dielectric matrix)
  average eigenvalue GAMMA=   0.6026
  0.6026

 Free energy of the ion-electron system (eV)
  ---------------------------------------------------
  alpha Z        PSCENC =       204.93891352
  Ewald energy   TEWEN  =     -4149.17539280
  -Hartree energ DENC   =     -1483.91363020
  -exchange      EXHF   =         0.00000000
  -V(xc)+E(xc)   XCENC  =       175.70557079
  PAW double counting   =      4881.82907441    -5281.46795287
  entropy T*S    EENTRO =        -0.00038900
  eigenvalues    EBANDS =        71.86937308
  atomic energy  EATOM  =      5563.83056080
  Solvation  Ediel_sol  =         0.00000000
  ---------------------------------------------------
  free energy    TOTEN  =       -16.38387227 eV

  energy without entropy =      -16.38348327  energy(sigma->0) =      -16.38374260


--------------------------------------------------------------------------------------------------------




----------------------------------------- Iteration    1(   7)  ---------------------------------------


    POTLOK:  cpu time    0.0037: real time    0.0037
    SETDIJ:  cpu time    0.0022: real time    0.0022
     EDDAV:  cpu time    0.6181: real time    0.6185
       DOS:  cpu time    0.0022: real time    0.0022
    CHARGE:  cpu time    0.0130: real time    0.0134
    MIXING:  cpu time    0.0003: real time    0.0003
    --------------------------------------------
      LOOP:  cpu time    0.6403: real time    0.6429

 eigenvalue-minimisations  :  4224
 total energy-change (2. order) : 0.1952909E+01  (-0.7035552E+00)
 number of electron      43.9998988 magnetization 
 augmentation part       28.1862441 magnetization 

 Broyden mixing:
  rms(total) = 0.77475E-01    rms(broyden)= 0.77323E-01
  rms(prec ) = 0.18627E+00
  weight for this iteration     100.00

 eigenvalues of (default mixing * dielectric matrix)
  average eigenvalue GAMMA=   1.3217
  2.0387  0.6048

 Free energy of the ion-electron system (eV)
  ---------------------------------------------------
  alpha Z        PSCENC =       204.93891352
  Ewald energy   TEWEN  =     -4149.17539280
  -Hartree energ DENC   =     -1524.80284449
  -exchange      EXHF   =         0.00000000
  -V(xc)+E(xc)   XCENC  =       177.79375168
  PAW double counting   =      4961.67801828    -5380.38357575
  entropy T*S    EENTRO =        -0.00206547
  eigenvalues    EBANDS =       131.69167059
  atomic energy  EATOM  =      5563.83056080
  Solvation  Ediel_sol  =         0.00000000
  ---------------------------------------------------
  free energy    TOTEN  =       -14.43096364 eV

  energy without entropy =      -14.42889817  energy(sigma->0) =      -14.43027515


--------------------------------------------------------------------------------------------------------




----------------------------------------- Iteration    1(   8)  ---------------------------------------


    POTLOK:  cpu time    0.0042: real time    0.0042
    SETDIJ:  cpu time    0.0021: real time    0.0021
     EDDAV:  cpu time    0.8168: real time    0.8173
       DOS:  cpu time    0.0007: real time    0.0007
    CHARGE:  cpu time    0.0111: real time    0.0111
    MIXING:  cpu time    0.0007: real time    0.0007
    --------------------------------------------
      LOOP:  cpu time    0.8368: real time    0.8390

 eigenvalue-minimisations  :  5232
 total energy-change (2. order) : 0.1576126E-01  (-0.6806005E-02)
 number of electron      43.9998991 magnetization 
 augmentation part       28.0779937 magnetization 

 Broyden mixing:
  rms(total) = 0.84676E-01    rms(broyden)= 0.84661E-01
  rms(prec ) = 0.19840E+00
  weight for this iteration     100.00

 eigenvalues of (default mixing * dielectric matrix)
  average eigenvalue GAMMA=   1.3982
  0.6271  0.9725  2.5950

 Free energy of the ion-electron system (eV)
  ---------------------------------------------------
  alpha Z        PSCENC =       204.93891352
  Ewald energy   TEWEN  =     -4149.17539280
  -Hartree energ DENC   =     -1518.11677619
  -exchange      EXHF   =         0.00000000
  -V(xc)+E(xc)   XCENC  =       177.58061575
  PAW double counting   =      5043.69585788    -5470.99676100
  entropy T*S    EENTRO =        -0.00217941
  eigenvalues    EBANDS =       133.82995907
  atomic energy  EATOM  =      5563.83056080
  Solvation  Ediel_sol  =         0.00000000
  ---------------------------------------------------
  free energy    TOTEN  =       -14.41520238 eV

  energy without entropy =      -14.41302297  energy(sigma->0) =      -14.41447591


--------------------------------------------------------------------------------------------------------




----------------------------------------- Iteration    1(   9)  ---------------------------------------


    POTLOK:  cpu time    0.0057: real time    0.0057
    SETDIJ:  cpu time    0.0020: real time    0.0020
     EDDAV:  cpu time    0.6731: real time    0.6736
       DOS:  cpu time    0.0007: real time    0.0007
    CHARGE:  cpu time    0.0093: real time    0.0093
    MIXING:  cpu time    0.0003: real time    0.0003
    --------------------------------------------
      LOOP:  cpu time    0.6921: real time    0.6942

 eigenvalue-minimisations  :  4416
 total energy-change (2. order) : 0.1240051E-01  (-0.5154877E-02)
 number of electron      43.9998987 magnetization 
 augmentation part       28.2073616 magnetization 

 Broyden mixing:
  rms(total) = 0.77821E-02    rms(broyden)= 0.77674E-02
  rms(prec ) = 0.16992E-01
  weight for this iteration     100.00

 eigenvalues of (default mixing * dielectric matrix)
  average eigenvalue GAMMA=   1.5700
  0.6301  0.9215  2.6237  2.1047

 Free energy of the ion-electron system (eV)
  ---------------------------------------------------
  alpha Z        PSCENC =       204.93891352
  Ewald energy   TEWEN  =     -4149.17539280
  -Hartree energ DENC   =     -1511.82147149
  -exchange      EXHF   =         0.00000000
  -V(xc)+E(xc)   XCENC  =       177.30204904
  PAW double counting   =      5059.31543653    -5487.35912965
  entropy T*S    EENTRO =        -0.00191029
  eigenvalues    EBANDS =       128.56814247
  atomic energy  EATOM  =      5563.83056080
  Solvation  Ediel_sol  =         0.00000000
  ---------------------------------------------------
  free energy    TOTEN  =       -14.40280187 eV

  energy without entropy =      -14.40089159  energy(sigma->0) =      -14.40216511


--------------------------------------------------------------------------------------------------------




----------------------------------------- Iteration    1(  10)  ---------------------------------------


    POTLOK:  cpu time    0.0039: real time    0.0039
    SETDIJ:  cpu time    0.0020: real time    0.0020
     EDDAV:  cpu time    0.7263: real time    0.7267
       DOS:  cpu time    0.0013: real time    0.0013
    --------------------------------------------
      LOOP:  cpu time    0.7344: real time    0.7364

 eigenvalue-minimisations  :  4608
 total energy-change (2. order) : 0.1962287E-04  (-0.4408214E-04)
 number of electron      43.9998987 magnetization 
 augmentation part       28.2073616 magnetization 

 Free energy of the ion-electron system (eV)
  ---------------------------------------------------
  alpha Z        PSCENC =       204.93891352
  Ewald energy   TEWEN  =     -4149.17539280
  -Hartree energ DENC   =     -1512.31192372
  -exchange      EXHF   =         0.00000000
  -V(xc)+E(xc)   XCENC  =       177.32474666
  PAW double counting   =      5057.22652961    -5485.11613555
  entropy T*S    EENTRO =        -0.00193892
  eigenvalues    EBANDS =       128.88185815
  atomic energy  EATOM  =      5563.83056080
  Solvation  Ediel_sol  =         0.00000000
  ---------------------------------------------------
  free energy    TOTEN  =       -14.40278225 eV

  energy without entropy =      -14.40084332  energy(sigma->0) =      -14.40213594


--------------------------------------------------------------------------------------------------------




 average (electrostatic) potential at core
  the test charge radii are     0.9430
  (the norm of the test charge is              1.0000)
       1 -65.4334       2 -65.4334       3 -65.4334       4 -65.4334
 
 
 
 E-fermi :   5.3708     XC(G=0): -11.6644     alpha+bet :-11.1071


 k-point     1 :       0.0000    0.0000    0.0000
  band No.  band energies     occupation 
      1      -2.5468      2.00000
      2       1.5649      2.00000
      3       1.5649      2.00000
      4       1.5649      2.00000
      5       1.9095      2.00000
      6       1.9095      2.00000
      7       1.9095      2.00000
      8       2.9428      2.00000
      9       2.9428      2.00000
     10       2.9428      2.00000
     11       3.5590      2.00000
     12       3.5590      2.00000
     13       3.9701      2.00000
     14       3.9701      2.00000
     15       3.9701      2.00000
     16       4.0861      2.00000
     17       4.0861      2.00000
     18       4.0861      2.00000
     19       4.0861      2.00000
     20       4.0861      2.00000
     21       4.0861      2.00000
     22       7.0959     -0.00000
     23       7.0959     -0.00000
     24       7.0959     -0.00000
     25      11.3345      0.00000
     26      11.3345      0.00000
     27      11.3345      0.00000
     28      17.1482      0.00000
     29      17.1482      0.00000
     30      17.1482      0.00000
     31      17.1482      0.00000
     32      17.1482      0.00000
     33      17.1482      0.00000
     34      21.2204      0.00000
     35      21.2204      0.00000
     36      21.2204      0.00000
     37      22.8508      0.00000
     38      22.8508      0.00000
     39      22.8508      0.00000
     40      26.5239      0.00000
     41      27.7615      0.00000
     42      27.7615      0.00000
     43      27.7615      0.00000
     44      30.2381      0.00000
     45      30.2381      0.00000
     46      30.2381      0.00000
     47      33.8481      0.00000
     48      37.4639      0.00000

 k-point     2 :       0.1111    0.0000    0.0000
  band No.  band energies     occupation 
      1      -2.4158      2.00000
      2       1.5569      2.00000
      3       1.6199      2.00000
      4       1.6199      2.00000
      5       1.9395      2.00000
      6       1.9415      2.00000
      7       1.9415      2.00000
      8       2.9105      2.00000
      9       2.9695      2.00000
     10       2.9695      2.00000
     11       3.5294      2.00000
     12       3.5711      2.00000
     13       3.9160      2.00000
     14       3.9160      2.00000
     15       3.9324      2.00000
     16       3.9324      2.00000
     17       3.9575      2.00000
     18       4.0413      2.00000
     19       4.0413      2.00000
     20       4.0861      2.00000
     21       4.0861      2.00000
     22       6.2385     -0.00000
     23       7.3877     -0.00000
     24       7.3877     -0.00000
     25      11.3924      0.00000
     26      11.3924      0.00000
     27      12.4668      0.00000
     28      16.3168      0.00000
     29      16.3168      0.00000
     30      16.5384      0.00000
     31      16.5384      0.00000
     32      17.3330      0.00000
     33      17.3330      0.00000
     34      21.2872      0.00000
     35      22.2275      0.00000
     36      22.2275      0.00000
     37      22.9060      0.00000
     38      23.7424      0.00000
     39      23.7424      0.00000
     40      25.9328      0.00000
     41      26.5300      0.00000
     42      26.5300      0.00000
     43      27.2944      0.00000
     44      31.1040      0.00000
     45      31.5934      0.00000
     46      31.5934      0.00000
     47      33.6110      0.00000
     48      35.8497      0.00000

 k-point     3 :       0.2222    0.0000    0.0000
  band No.  band energies     occupation 
      1      -2.0267      2.00000
      2       1.4817      2.00000
      3       1.7707      2.00000
      4       1.7707      2.00000
      5       2.0263      2.00000
      6       2.0386      2.00000
      7       2.0386      2.00000
      8       2.8178      2.00000
      9       3.0486      2.00000
     10       3.0486      2.00000
     11       3.4479      2.00000
     12       3.5380      2.00000
     13       3.5380      2.00000
     14       3.6059      2.00000
     15       3.8256      2.00000
     16       3.8256      2.00000
     17       3.9170      2.00000
     18       3.9170      2.00000
     19       3.9211      2.00000
     20       4.0862      2.00000
     21       4.0862      2.00000
     22       4.8106      2.00000
     23       8.1289      0.00000
     24       8.1289      0.00000
     25      11.5742      0.00000
     26      11.5742      0.00000
     27      14.7643      0.00000
     28      14.7850      0.00000
     29      14.7850      0.00000
     30      15.3400      0.00000
     31      15.3400      0.00000
     32      17.8754      0.00000
     33      17.8754      0.00000
     34      21.4903      0.00000
     35      23.0807      0.00000
     36      24.2879      0.00000
     37      24.2879      0.00000
     38      24.6842      0.00000
     39      24.6842      0.00000
     40      24.8711      0.00000
     41      25.7738      0.00000
     42      25.7738      0.00000
     43      26.2946      0.00000
     44      30.7169      0.00000
     45      32.9850      0.00000
     46      33.7928      0.00000
     47      33.7928      0.00000
     48      36.8946      0.00000

 k-point     4 :       0.3333    0.0000    0.0000
  band No.  band energies     occupation 
      1      -1.3948      2.00000
      2       1.1456      2.00000
      3       1.9700      2.00000
      4       1.9700      2.00000
      5       2.1605      2.00000
      6       2.2040      2.00000
      7       2.2040      2.00000
      8       2.6771      2.00000
      9       3.1234      2.00000
     10       3.1234      2.00000
     11       3.1763      2.00000
     12       3.1763      2.00000
     13       3.3356      2.00000
     14       3.6599      2.00000
     15       3.6767      2.00000
     16       3.6767      2.00000
     17       3.7208      2.00000
     18       3.7394      2.00000
     19       3.7394      2.00000
     20       3.8659      2.00000
     21       4.0864      2.00000
     22       4.0864      2.00000
     23       9.1447      0.00000
     24       9.1447      0.00000
     25      11.9032      0.00000
     26      11.9032      0.00000
     27      13.2043      0.00000
     28      13.2043      0.00000
     29      14.1603      0.00000
     30      14.1603      0.00000
     31      17.4908      0.00000
     32      18.7443      0.00000
     33      18.7443      0.00000
     34      21.8377      0.00000
     35      22.9103      0.00000
     36      22.9103      0.00000
     37      23.4010      0.00000
     38      23.8612      0.00000
     39      25.1949      0.00000
     40      26.7531      0.00000
     41      26.7531      0.00000
     42      27.3342      0.00000
     43      28.2762      0.00000
     44      28.2762      0.00000
     45      35.3446      0.00000
     46      35.6544      0.00000
     47      35.6544      0.00000
     48      36.0765      0.00000

 k-point     5 :       0.4444    0.0000    0.0000
  band No.  band energies     occupation 
      1      -0.5580      2.00000
      2       0.3792      2.00000
      3       2.1255      2.00000
      4       2.1255      2.00000
      5       2.3269      2.00000
      6       2.4404      2.00000
      7       2.4404      2.00000
      8       2.5063      2.00000
      9       2.7491      2.00000
     10       2.7491      2.00000
     11       3.2399      2.00000
     12       3.2762      2.00000
     13       3.3446      2.00000
     14       3.3446      2.00000
     15       3.5390      2.00000
     16       3.5390      2.00000
     17       3.5539      2.00000
     18       3.5539      2.00000
     19       3.7267      2.00000
     20       3.7981      2.00000
     21       4.0865      2.00000
     22       4.0865      2.00000
     23      10.3517      0.00000
     24      10.3517      0.00000
     25      11.7131      0.00000
     26      11.7131      0.00000
     27      12.4031      0.00000
     28      12.4031      0.00000
     29      13.1983      0.00000
     30      13.1983      0.00000
     31      19.8997      0.00000
     32      19.8997      0.00000
     33      20.4655      0.00000
     34      21.3012      0.00000
     35      21.3012      0.00000
     36      22.3409      0.00000
     37      23.0128      0.00000
     38      23.4772      0.00000
     39      23.9130      0.00000
     40      24.7942      0.00000
     41      29.4898      0.00000
     42      29.4898      0.00000
     43      30.7162      0.00000
     44      30.7162      0.00000
     45      32.4636      0.00000
     46      32.4636      0.00000
     47      35.8439      0.00000
     48      35.8439      0.00000

 k-point     6 :       0.1111    0.1111    0.0000
  band No.  band energies     occupation 
      1      -2.2855      2.00000
      2       1.6149      2.00000
      3       1.6149      2.00000
      4       1.6722      2.00000
      5       1.9706      2.00000
      6       1.9706      2.00000
      7       1.9719      2.00000
      8       2.8936      2.00000
      9       2.9819      2.00000
     10       2.9914      2.00000
     11       3.5219      2.00000
     12       3.5660      2.00000
     13       3.7993      2.00000
     14       3.8308      2.00000
     15       3.8308      2.00000
     16       3.8972      2.00000
     17       3.9465      2.00000
     18       3.9465      2.00000
     19       4.0412      2.00000
     20       4.0412      2.00000
     21       4.0569      2.00000
     22       6.5171     -0.00000
     23       6.5171     -0.00000
     24       7.6555     -0.00000
     25      11.4524      0.00000
     26      12.5506      0.00000
     27      12.5506      0.00000
     28      14.7491      0.00000
     29      16.4858      0.00000
     30      16.4858      0.00000
     31      16.7073      0.00000
     32      16.7073      0.00000
     33      17.5076      0.00000
     34      21.9597      0.00000
     35      22.3114      0.00000
     36      22.3114      0.00000
     37      23.8093      0.00000
     38      23.8093      0.00000
     39      24.5333      0.00000
     40      25.0664      0.00000
     41      25.1184      0.00000
     42      27.3796      0.00000
     43      28.1087      0.00000
     44      30.3893      0.00000
     45      31.3366      0.00000
     46      33.2445      0.00000
     47      34.4596      0.00000
     48      34.5520      0.00000

 k-point     7 :       0.2222    0.1111    0.0000
  band No.  band energies     occupation 
      1      -1.8991      2.00000
      2       1.5487      2.00000
      3       1.7738      2.00000
      4       1.8154      2.00000
      5       2.0542      2.00000
      6       2.0634      2.00000
      7       2.0645      2.00000
      8       2.8123      2.00000
      9       3.0530      2.00000
     10       3.0542      2.00000
     11       3.4506      2.00000
     12       3.4556      2.00000
     13       3.4777      2.00000
     14       3.6025      2.00000
     15       3.6432      2.00000
     16       3.7979      2.00000
     17       3.8353      2.00000
     18       3.9133      2.00000
     19       3.9164      2.00000
     20       4.0407      2.00000
     21       4.0415      2.00000
     22       5.1301      2.00347
     23       7.1848     -0.00000
     24       8.3570      0.00000
     25      11.6411      0.00000
     26      12.8095      0.00000
     27      13.0861      0.00000
     28      14.8633      0.00000
     29      14.9441      0.00000
     30      15.4882      0.00000
     31      16.9792      0.00000
     32      17.0942      0.00000
     33      17.2022      0.00000
     34      22.5670      0.00000
     35      22.9110      0.00000
     36      23.1336      0.00000
     37      23.3863      0.00000
     38      24.0195      0.00000
     39      24.3855      0.00000
     40      25.8460      0.00000
     41      26.7370      0.00000
     42      27.3321      0.00000
     43      27.6386      0.00000
     44      30.5422      0.00000
     45      31.6515      0.00000
     46      33.0887      0.00000
     47      35.3647      0.00000
     48      35.8117      0.00000

 k-point     8 :       0.3333    0.1111    0.0000
  band No.  band energies     occupation 
      1      -1.2722      2.00000
      2       1.2285      2.00000
      3       1.9864      2.00000
      4       2.0086      2.00000
      5       2.1834      2.00000
      6       2.2122      2.00000
      7       2.2239      2.00000
      8       2.6792      2.00000
      9       3.0455      2.00000
     10       3.0979      2.00000
     11       3.1333      2.00000
     12       3.1779      2.00000
     13       3.3417      2.00000
     14       3.3788      2.00000
     15       3.6588      2.00000
     16       3.6698      2.00000
     17       3.6870      2.00000
     18       3.7384      2.00000
     19       3.8224      2.00000
     20       4.0382      2.00000
     21       4.0400      2.00000
     22       4.1877      2.00000
     23       8.0588     -0.00000
     24       9.3425      0.00000
     25      11.5746      0.00000
     26      11.9834      0.00000
     27      13.2549      0.00000
     28      13.3636      0.00000
     29      14.3021      0.00000
     30      15.9891      0.00000
     31      17.5930      0.00000
     32      17.7616      0.00000
     33      17.9931      0.00000
     34      21.3939      0.00000
     35      21.7655      0.00000
     36      23.0057      0.00000
     37      24.3988      0.00000
     38      25.3918      0.00000
     39      25.5578      0.00000
     40      26.3558      0.00000
     41      26.8573      0.00000
     42      27.5324      0.00000
     43      28.3062      0.00000
     44      29.9017      0.00000
     45      33.9256      0.00000
     46      34.5326      0.00000
     47      34.8381      0.00000
     48      35.7651      0.00000

 k-point     9 :       0.4444    0.1111    0.0000
  band No.  band energies     occupation 
      1      -0.4439      2.00000
      2       0.4799      2.00000
      3       2.1593      2.00000
      4       2.1688      2.00000
      5       2.3435      2.00000
      6       2.4117      2.00000
      7       2.4510      2.00000
      8       2.5159      2.00000
      9       2.6895      2.00000
     10       2.7455      2.00000
     11       3.1330      2.00000
     12       3.1338      2.00000
     13       3.3447      2.00000
     14       3.4323      2.00000
     15       3.5384      2.00000
     16       3.5477      2.00000
     17       3.5594      2.00000
     18       3.6232      2.00000
     19       3.7572      2.00000
     20       3.8732      2.00000
     21       4.0382      2.00000
     22       4.0390      2.00000
     23       9.0789      0.00000
     24      10.2442      0.00000
     25      10.5297      0.00000
     26      11.8787      0.00000
     27      12.5096      0.00000
     28      13.2395      0.00000
     29      14.0053      0.00000
     30      14.8931      0.00000
     31      18.7872      0.00000
     32      19.0394      0.00000
     33      20.0105      0.00000
     34      20.3073      0.00000
     35      20.5768      0.00000
     36      23.6437      0.00000
     37      23.7105      0.00000
     38      24.4958      0.00000
     39      24.9852      0.00000
     40      25.8416      0.00000
     41      28.0203      0.00000
     42      29.5979      0.00000
     43      30.0569      0.00000
     44      32.3739      0.00000
     45      32.5552      0.00000
     46      32.5743      0.00000
     47      35.9788      0.00000
     48      36.0193      0.00000

 k-point    10 :       0.2222    0.2222    0.0000
  band No.  band energies     occupation 
      1      -1.5213      2.00000
      2       1.7343      2.00000
      3       1.7343      2.00000
      4       1.9353      2.00000
      5       2.1386      2.00000
      6       2.1386      2.00000
      7       2.1386      2.00000
      8       2.7714      2.00000
      9       3.0713      2.00000
     10       3.0932      2.00000
     11       3.2385      2.00000
     12       3.2385      2.00000
     13       3.2898      2.00000
     14       3.4335      2.00000
     15       3.6407      2.00000
     16       3.7177      2.00000
     17       3.8185      2.00000
     18       3.8185      2.00000
     19       3.9149      2.00000
     20       3.9149      2.00000
     21       3.9706      2.00000
     22       5.7539     -0.00000
     23       5.7539     -0.00000
     24       8.9826      0.00000
     25      11.3266      0.00000
     26      11.8499      0.00000
     27      15.1520      0.00000
     28      15.1520      0.00000
     29      15.4089      0.00000
     30      15.4089      0.00000
     31      15.9329      0.00000
     32      15.9329      0.00000
     33      18.5445      0.00000
     34      21.2061      0.00000
     35      21.6706      0.00000
     36      22.4388      0.00000
     37      24.6803      0.00000
     38      24.6803      0.00000
     39      26.0695      0.00000
     40      26.0695      0.00000
     41      28.2262      0.00000
     42      29.0624      0.00000
     43      29.7072      0.00000
     44      30.0078      0.00000
     45      30.8528      0.00000
     46      31.1042      0.00000
     47      34.9260      0.00000
     48      36.7087      0.00000

 k-point    11 :       0.3333    0.2222    0.0000
  band No.  band energies     occupation 
      1      -0.9106      2.00000
      2       1.4595      2.00000
      3       1.9890      2.00000
      4       2.1006      2.00000
      5       2.2511      2.00000
      6       2.2524      2.00000
      7       2.2806      2.00000
      8       2.6744      2.00000
      9       2.8666      2.00000
     10       3.0110      2.00000
     11       3.0160      2.00000
     12       3.0789      2.00000
     13       3.1962      2.00000
     14       3.3899      2.00000
     15       3.6032      2.00000
     16       3.6793      2.00000
     17       3.7352      2.00000
     18       3.7368      2.00000
     19       3.7480      2.00000
     20       3.9131      2.00000
     21       3.9314      2.00000
     22       4.6985      2.00000
     23       6.5138     -0.00000
     24       9.7913      0.00000
     25       9.9021      0.00000
     26      12.2235      0.00000
     27      13.8282      0.00000
     28      14.6301      0.00000
     29      15.7188      0.00000
     30      16.1478      0.00000
     31      16.6056      0.00000
     32      17.9160      0.00000
     33      18.3168      0.00000
     34      19.6689      0.00000
     35      20.0989      0.00000
     36      23.8221      0.00000
     37      25.1771      0.00000
     38      26.4615      0.00000
     39      27.1705      0.00000
     40      27.3098      0.00000
     41      27.7862      0.00000
     42      28.3810      0.00000
     43      28.6793      0.00000
     44      31.6383      0.00000
     45      32.3237      0.00000
     46      32.4069      0.00000
     47      33.5630      0.00000
     48      35.3048      0.00000

 k-point    12 :       0.4444    0.2222    0.0000
  band No.  band energies     occupation 
      1      -0.1107      2.00000
      2       0.7671      2.00000
      3       2.2213      2.00000
      4       2.2870      2.00000
      5       2.3332      2.00000
      6       2.3922      2.00000
      7       2.4800      2.00000
      8       2.5399      2.00000
      9       2.5563      2.00000
     10       2.7313      2.00000
     11       2.9491      2.00000
     12       3.0202      2.00000
     13       3.3513      2.00000
     14       3.4389      2.00000
     15       3.5175      2.00000
     16       3.5392      2.00000
     17       3.5493      2.00000
     18       3.5848      2.00000
     19       3.9058      2.00000
     20       3.9126      2.00000
     21       3.9166      2.00000
     22       4.1588      2.00000
     23       7.4137     -0.00000
     24       8.4930      0.00000
     25      11.0419      0.00000
     26      12.3600      0.00000
     27      12.7947      0.00000
     28      13.5946      0.00000
     29      16.4430      0.00000
     30      17.1237      0.00000
     31      17.3620      0.00000
     32      17.5539      0.00000
     33      18.3045      0.00000
     34      18.7216      0.00000
     35      20.8922      0.00000
     36      24.0556      0.00000
     37      25.8793      0.00000
     38      26.3089      0.00000
     39      26.7764      0.00000
     40      27.0394      0.00000
     41      27.8012      0.00000
     42      28.7758      0.00000
     43      29.9220      0.00000
     44      32.7950      0.00000
     45      32.8399      0.00000
     46      32.9062      0.00000
     47      34.0255      0.00000
     48      34.5154      0.00000

 k-point    13 :       0.3333    0.3333    0.0000
  band No.  band energies     occupation 
      1      -0.3326      2.00000
      2       1.7802      2.00000
      3       1.7802      2.00000
      4       2.1771      2.00000
      5       2.3505      2.00000
      6       2.3660      2.00000
      7       2.3660      2.00000
      8       2.6390      2.00000
      9       2.7485      2.00000
     10       2.7485      2.00000
     11       2.8755      2.00000
     12       3.0344      2.00000
     13       3.2595      2.00000
     14       3.3441      2.00000
     15       3.5152      2.00000
     16       3.6071      2.00000
     17       3.6071      2.00000
     18       3.7374      2.00000
     19       3.7374      2.00000
     20       3.8331      2.00000
     21       3.9170      2.00000
     22       5.2999      1.92568
     23       5.2999      1.92568
     24       8.2621      0.00000
     25      10.7546      0.00000
     26      12.6481      0.00000
     27      14.5668      0.00000
     28      14.5668      0.00000
     29      15.2739      0.00000
     30      15.2739      0.00000
     31      18.1097      0.00000
     32      18.4466      0.00000
     33      18.4466      0.00000
     34      18.5653      0.00000
     35      20.1647      0.00000
     36      23.1478      0.00000
     37      27.6491      0.00000
     38      27.6927      0.00000
     39      27.6927      0.00000
     40      27.7918      0.00000
     41      28.4429      0.00000
     42      28.4429      0.00000
     43      29.6639      0.00000
     44      30.9294      0.00000
     45      31.6560      0.00000
     46      32.5153      0.00000
     47      32.5153      0.00000
     48      34.9792      0.00000

 k-point    14 :       0.4444    0.3333    0.0000
  band No.  band energies     occupation 
      1       0.4080      2.00000
      2       1.1891      2.00000
      3       2.0759      2.00000
      4       2.2010      2.00000
      5       2.4563      2.00000
      6       2.4668      2.00000
      7       2.5192      2.00000
      8       2.5643      2.00000
      9       2.5649      2.00000
     10       2.6979      2.00000
     11       2.8130      2.00000
     12       2.9447      2.00000
     13       3.3600      2.00000
     14       3.3815      2.00000
     15       3.4466      2.00000
     16       3.4748      2.00000
     17       3.4838      2.00000
     18       3.5495      2.00000
     19       3.7463      2.00000
     20       3.7734      2.00000
     21       4.1621      2.00000
     22       4.5588      2.00000
     23       6.0484     -0.00000
     24       7.0177     -0.00000
     25      11.8404      0.00000
     26      13.1203      0.00000
     27      13.2834      0.00000
     28      14.1555      0.00000
     29      15.5440      0.00000
     30      16.1423      0.00000
     31      16.7311      0.00000
     32      17.2410      0.00000
     33      19.1782      0.00000
     34      20.0099      0.00000
     35      21.4135      0.00000
     36      24.5502      0.00000
     37      24.8719      0.00000
     38      27.4793      0.00000
     39      28.1131      0.00000
     40      28.3783      0.00000
     41      28.4167      0.00000
     42      29.2896      0.00000
     43      30.4595      0.00000
     44      31.5544      0.00000
     45      31.8749      0.00000
     46      33.1504      0.00000
     47      33.4568      0.00000
     48      33.5909      0.00000

 k-point    15 :       0.4444    0.4444    0.0000
  band No.  band energies     occupation 
      1       1.0368      2.00000
      2       1.6406      2.00000
      3       1.6406      2.00000
      4       1.9901      2.00000
      5       2.5549      2.00000
      6       2.5549      2.00000
      7       2.5726      2.00000
      8       2.6164      2.00000
      9       2.6378      2.00000
     10       2.7222      2.00000
     11       2.7222      2.00000
     12       2.8651      2.00000
     13       3.3096      2.00000
     14       3.3660      2.00000
     15       3.3728      2.00000
     16       3.3728      2.00000
     17       3.4560      2.00000
     18       3.5828      2.00000
     19       3.5828      2.00000
     20       3.6554      2.00000
     21       4.5241      2.00000
     22       5.0993      2.00084
     23       5.0993      2.00084
     24       5.8877     -0.00000
     25      12.8782      0.00000
     26      13.9951      0.00000
     27      14.1207      0.00000
     28      14.1207      0.00000
     29      14.9466      0.00000
     30      14.9466      0.00000
     31      15.3310      0.00000
     32      15.9752      0.00000
     33      22.0978      0.00000
     34      22.0978      0.00000
     35      22.2721      0.00000
     36      24.2401      0.00000
     37      24.7919      0.00000
     38      25.7911      0.00000
     39      26.3560      0.00000
     40      26.3560      0.00000
     41      31.1888      0.00000
     42      31.1888      0.00000
     43      31.6059      0.00000
     44      32.8381      0.00000
     45      33.0672      0.00000
     46      33.4783      0.00000
     47      33.4783      0.00000
     48      34.0101      0.00000

 k-point    16 :       0.1111    0.1111    0.1111
  band No.  band energies     occupation 
      1      -2.1562      2.00000
      2       1.6690      2.00000
      3       1.6690      2.00000
      4       1.6690      2.00000
      5       2.0000      2.00000
      6       2.0000      2.00000
      7       2.0000      2.00000
      8       2.8793      2.00000
      9       3.0007      2.00000
     10       3.0007      2.00000
     11       3.5401      2.00000
     12       3.5401      2.00000
     13       3.7310      2.00000
     14       3.7310      2.00000
     15       3.7310      2.00000
     16       3.8555      2.00000
     17       3.8555      2.00000
     18       3.8555      2.00000
     19       4.0463      2.00000
     20       4.0463      2.00000
     21       4.0463      2.00000
     22       6.7626     -0.00000
     23       6.7626     -0.00000
     24       6.7626     -0.00000
     25      12.6361      0.00000
     26      12.6361      0.00000
     27      12.6361      0.00000
     28      14.9077      0.00000
     29      14.9077      0.00000
     30      14.9077      0.00000
     31      17.6871      0.00000
     32      17.6871      0.00000
     33      17.6871      0.00000
     34      22.0261      0.00000
     35      22.0261      0.00000
     36      22.0261      0.00000
     37      22.9164      0.00000
     38      25.1486      0.00000
     39      25.1486      0.00000
     40      25.1486      0.00000
     41      26.7770      0.00000
     42      26.8235      0.00000
     43      26.8235      0.00000
     44      31.7862      0.00000
     45      31.7862      0.00000
     46      32.2986      0.00000
     47      34.7282      0.00000
     48      34.7282      0.00000

 k-point    17 :       0.2222    0.1111    0.1111
  band No.  band energies     occupation 
      1      -1.7729      2.00000
      2       1.6097      2.00000
      3       1.8177      2.00000
      4       1.8177      2.00000
      5       2.0818      2.00000
      6       2.0892      2.00000
      7       2.0892      2.00000
      8       2.8086      2.00000
      9       3.0541      2.00000
     10       3.0575      2.00000
     11       3.4001      2.00000
     12       3.4001      2.00000
     13       3.4753      2.00000
     14       3.5250      2.00000
     15       3.5921      2.00000
     16       3.7456      2.00000
     17       3.7694      2.00000
     18       3.7694      2.00000
     19       4.0092      2.00000
     20       4.0295      2.00000
     21       4.0295      2.00000
     22       5.3653      1.09245
     23       7.3810     -0.00000
     24       7.3810     -0.00000
     25      12.8881      0.00000
     26      12.8881      0.00000
     27      13.2551      0.00000
     28      13.2551      0.00000
     29      14.9504      0.00000
     30      15.3821      0.00000
[...]
  band No.  band energies     occupation 
      1       0.6747      2.00000
      2       1.2782      2.00000
      3       1.8139      2.00000
      4       1.8807      2.00000
      5       2.6038      2.00000
      6       2.6300      2.00000
      7       2.7256      2.00000
      8       2.8094      2.00000
      9       2.8822      2.00000
     10       2.9366      2.00000
     11       2.9565      2.00000
     12       2.9951      2.00000
     13       3.0873      2.00000
     14       3.1697      2.00000
     15       3.2334      2.00000
     16       3.2387      2.00000
     17       3.7414      2.00000
     18       3.8953      2.00000
     19       3.9186      2.00000
     20       3.9215      2.00000
     21       4.0623      2.00000
     22       4.5824      2.00000
     23       6.2439     -0.00000
     24       7.0429     -0.00000
     25       8.9664      0.00000
     26       9.8412      0.00000
     27      12.0051      0.00000
     28      13.1415      0.00000
     29      17.4743      0.00000
     30      18.4636      0.00000
     31      19.6192      0.00000
     32      20.4751      0.00000
     33      20.4887      0.00000
     34      21.6137      0.00000
     35      21.8063      0.00000
     36      24.7876      0.00000
     37      25.0122      0.00000
     38      25.0237      0.00000
     39      25.7233      0.00000
     40      26.2829      0.00000
     41      29.7515      0.00000
     42      29.7957      0.00000
     43      30.8717      0.00000
     44      31.0159      0.00000
     45      31.0972      0.00000
     46      33.1537      0.00000
     47      33.9688      0.00000
     48      34.1584      0.00000

 k-point    31 :       0.4444    0.4444    0.2222
  band No.  band energies     occupation 
      1       1.1177      2.00000
      2       1.5058      2.00000
      3       1.5058      2.00000
      4       1.7002      2.00000
      5       2.7299      2.00000
      6       2.7971      2.00000
      7       2.7971      2.00000
      8       2.9057      2.00000
      9       2.9758      2.00000
     10       2.9928      2.00000
     11       2.9928      2.00000
     12       3.0680      2.00000
     13       3.0744      2.00000
     14       3.1331      2.00000
     15       3.1331      2.00000
     16       3.1432      2.00000
     17       3.7364      2.00000
     18       3.8369      2.00000
     19       3.8369      2.00000
     20       3.8573      2.00000
     21       4.4353      2.00000
     22       5.1265      2.00298
     23       5.1265      2.00298
     24       5.9599     -0.00000
     25       9.6655      0.00000
     26      10.7038      0.00000
     27      10.7038      0.00000
     28      11.8057      0.00000
     29      18.2857      0.00000
     30      19.3124      0.00000
     31      19.3124      0.00000
     32      20.3793      0.00000
     33      22.4869      0.00000
     34      22.4869      0.00000
     35      22.7412      0.00000
     36      24.3620      0.00000
     37      25.0451      0.00000
     38      25.6007      0.00000
     39      25.9369      0.00000
     40      25.9369      0.00000
     41      29.3900      0.00000
     42      29.5153      0.00000
     43      29.5153      0.00000
     44      30.5849      0.00000
     45      31.3650      0.00000
     46      32.2302      0.00000
     47      32.6474      0.00000
     48      32.6474      0.00000

 k-point    32 :       0.3333    0.3333    0.3333
  band No.  band energies     occupation 
      1       0.4674      2.00000
      2       1.6818      2.00000
      3       1.6818      2.00000
      4       1.6818      2.00000
      5       2.6804      2.00000
      6       2.6804      2.00000
      7       2.6804      2.00000
      8       2.9983      2.00000
      9       3.0080      2.00000
     10       3.0080      2.00000
     11       3.0433      2.00000
     12       3.0433      2.00000
     13       3.0433      2.00000
     14       3.1674      2.00000
     15       3.1674      2.00000
     16       3.1674      2.00000
     17       3.7828      2.00000
     18       3.7828      2.00000
     19       3.9958      2.00000
     20       3.9958      2.00000
     21       3.9958      2.00000
     22       5.9110     -0.00000
     23       5.9110     -0.00000
     24       5.9110     -0.00000
     25       9.6474      0.00000
     26       9.6474      0.00000
     27       9.6474      0.00000
     28      12.9275      0.00000
     29      19.4172      0.00000
     30      19.4172      0.00000
     31      19.4172      0.00000
     32      21.4510      0.00000
     33      21.4510      0.00000
     34      21.4510      0.00000
     35      23.6605      0.00000
     36      23.6605      0.00000
     37      23.6605      0.00000
     38      25.0496      0.00000
     39      25.0496      0.00000
     40      25.6749      0.00000
     41      29.3612      0.00000
     42      29.3612      0.00000
     43      31.8045      0.00000
     44      32.3712      0.00000
     45      32.3712      0.00000
     46      32.3712      0.00000
     47      32.9387      0.00000
     48      32.9387      0.00000

 k-point    33 :       0.4444    0.3333    0.3333
  band No.  band energies     occupation 
      1       0.9304      2.00000
      2       1.3475      2.00000
      3       1.6526      2.00000
      4       1.6526      2.00000
      5       2.7397      2.00000
      6       2.7397      2.00000
      7       2.8438      2.00000
      8       2.9534      2.00000
      9       3.0093      2.00000
     10       3.0649      2.00000
     11       3.1039      2.00000
     12       3.1039      2.00000
     13       3.1282      2.00000
     14       3.1645      2.00000
     15       3.2082      2.00000
     16       3.2082      2.00000
     17       3.9027      2.00000
     18       3.9659      2.00000
     19       3.9659      2.00000
     20       3.9770      2.00000
     21       3.9900      2.00000
     22       4.7377      2.00000
     23       6.2778     -0.00000
     24       6.2778     -0.00000
     25       8.7035      0.00000
     26       8.7035      0.00000
     27      10.4972      0.00000
     28      11.5929      0.00000
     29      20.1725      0.00000
     30      20.1725      0.00000
     31      21.0809      0.00000
     32      21.0809      0.00000
     33      22.2930      0.00000
     34      22.4240      0.00000
     35      23.6371      0.00000
     36      24.1054      0.00000
     37      24.6745      0.00000
     38      25.0680      0.00000
     39      25.1797      0.00000
     40      25.1797      0.00000
     41      29.2194      0.00000
     42      29.9200      0.00000
     43      29.9200      0.00000
     44      30.1172      0.00000
     45      31.1307      0.00000
     46      31.2768      0.00000
     47      32.3754      0.00000
     48      33.1839      0.00000

 k-point    34 :       0.4444    0.4444    0.3333
  band No.  band energies     occupation 
      1       1.1866      2.00000
      2       1.4238      2.00000
      3       1.4238      2.00000
      4       1.5220      2.00000
      5       2.8242      2.00000
      6       2.8586      2.00000
      7       2.8586      2.00000
      8       2.9345      2.00000
      9       2.9752      2.00000
     10       3.0131      2.00000
     11       3.0131      2.00000
     12       3.0258      2.00000
     13       3.4130      2.00000
     14       3.4130      2.00000
     15       3.4214      2.00000
     16       3.4977      2.00000
     17       3.8700      2.00000
     18       3.9469      2.00000
     19       3.9469      2.00000
     20       3.9478      2.00000
     21       4.3243      2.00000
     22       5.1627      2.01220
     23       5.1627      2.01220
     24       5.8213     -0.00000
     25       8.5924      0.00000
     26       9.3179      0.00000
     27       9.3179      0.00000
     28      10.3107      0.00000
     29      20.9442      0.00000
     30      21.8932      0.00000
     31      21.8932      0.00000
     32      22.8980      0.00000
     33      22.9643      0.00000
     34      22.9643      0.00000
     35      23.3066      0.00000
     36      24.5227      0.00000
     37      25.1356      0.00000
     38      25.3050      0.00000
     39      25.3050      0.00000
     40      25.3709      0.00000
     41      28.3032      0.00000
     42      29.0632      0.00000
     43      29.0632      0.00000
     44      29.6154      0.00000
     45      29.9282      0.00000
     46      30.9052      0.00000
     47      31.0530      0.00000
     48      31.0530      0.00000

 k-point    35 :       0.4444    0.4444    0.4444
  band No.  band energies     occupation 
      1       1.2687      2.00000
      2       1.3774      2.00000
      3       1.3774      2.00000
      4       1.3774      2.00000
      5       2.8982      2.00000
      6       2.8982      2.00000
      7       2.8982      2.00000
      8       2.9351      2.00000
      9       2.9351      2.00000
     10       2.9530      2.00000
     11       2.9530      2.00000
     12       2.9530      2.00000
     13       3.7521      2.00000
     14       3.7521      2.00000
     15       3.7521      2.00000
     16       3.9560      2.00000
     17       3.9560      2.00000
     18       3.9830      2.00000
     19       3.9830      2.00000
     20       3.9830      2.00000
     21       4.4231      2.00000
     22       5.2058      2.04156
     23       5.2058      2.04156
     24       5.2058      2.04156
     25       8.4873      0.00000
     26       8.4873      0.00000
     27       8.4873      0.00000
     28       9.1631      0.00000
     29      23.5988      0.00000
     30      23.5988      0.00000
     31      23.5988      0.00000
     32      24.0355      0.00000
     33      24.0355      0.00000
     34      24.0355      0.00000
     35      24.7547      0.00000
     36      24.7547      0.00000
     37      24.7547      0.00000
     38      24.7688      0.00000
     39      24.7688      0.00000
     40      25.1784      0.00000
     41      28.1323      0.00000
     42      28.1323      0.00000
     43      28.7963      0.00000
     44      28.7963      0.00000
     45      28.7963      0.00000
     46      29.1773      0.00000
     47      29.1773      0.00000
     48      29.1773      0.00000


--------------------------------------------------------------------------------------------------------


 soft charge-density along one line, spin component           1
         0         1         2         3         4         5         6         7         8         9
 total charge-density along one line
 
 pseudopotential strength for first ion, spin component:           1
 -4.160  -0.000   0.000  -0.000   0.000  -3.775   0.000  -0.000
 -0.000  -4.160  -0.000  -0.000   0.000   0.000  -3.775   0.000
  0.000  -0.000  -4.146  -0.000  -0.000  -0.000   0.000  -3.785
 -0.000  -0.000  -0.000  -4.160  -0.000   0.000   0.000   0.000
  0.000   0.000  -0.000  -0.000  -4.146  -0.000  -0.000   0.000
 -3.775   0.000  -0.000   0.000  -0.000   9.630  -0.000   0.000
  0.000  -3.775   0.000   0.000  -0.000  -0.000   9.630  -0.000
 -0.000   0.000  -3.785   0.000  -0.000   0.000  -0.000   9.638
  0.000   0.000   0.000  -3.775   0.000  -0.000  -0.000  -0.000
 -0.000  -0.000  -0.000   0.000  -3.785   0.000   0.000  -0.000
  0.000   0.000  -0.000   0.000   0.000   0.000   0.000  -0.000
  0.000   0.000  -0.000   0.000  -0.000   0.000   0.000  -0.000
  0.000   0.000   0.000   0.000   0.000  -0.000  -0.000  -0.000
  0.000  -0.000   0.000   0.000   0.000   0.000   0.000  -0.000
 -0.000   0.000  -0.000   0.000  -0.000   0.000   0.000   0.000
  0.000   0.000   0.000  -0.000   0.000  -0.000   0.000  -0.000
 -0.000  -0.000   0.000   0.000  -0.000   0.000  -0.000   0.000
 -0.000  -0.000  -0.000   0.000   0.000  -0.000   0.000  -0.000
 total augmentation occupancy for first ion, spin component:           1
  1.903  -0.000  -0.000  -0.000   0.000  -0.027   0.000   0.000   0.000   0.000   0.000  -0.000   0.000   0.000  -0.000  -0.000
 -0.000   1.903  -0.000  -0.000   0.000  -0.000  -0.027   0.000   0.000  -0.000   0.000   0.000  -0.000  -0.000   0.000   0.000
  0.000   0.000   1.924  -0.000  -0.000   0.000  -0.000  -0.041  -0.000   0.000  -0.000   0.000  -0.000   0.000   0.000   0.000
  0.000   0.000   0.000   1.903  -0.000  -0.000   0.000  -0.000  -0.027   0.000   0.000  -0.000  -0.000   0.000   0.000   0.000
  0.000   0.000  -0.000  -0.000   1.924  -0.000   0.000  -0.000   0.000  -0.041  -0.000  -0.000   0.000  -0.000  -0.000   0.000
 -0.027  -0.000   0.000  -0.000   0.000   0.010   0.000  -0.000   0.000   0.000   0.000   0.000   0.000  -0.000   0.000   0.000
  0.000  -0.027  -0.000   0.000  -0.000  -0.000   0.010   0.000   0.000  -0.000  -0.000   0.000  -0.000  -0.000  -0.000   0.000
 -0.000   0.000  -0.041   0.000   0.000  -0.000   0.000   0.010   0.000  -0.000   0.000  -0.000  -0.000   0.000   0.000  -0.000
  0.000   0.000   0.000  -0.027   0.000   0.000   0.000   0.000   0.010   0.000   0.000   0.000   0.000   0.000   0.000   0.000
  0.000  -0.000  -0.000  -0.000  -0.041   0.000   0.000   0.000   0.000   0.010   0.000   0.000   0.000  -0.000  -0.000  -0.000
 -0.000  -0.000   0.000   0.000  -0.000   0.000   0.000   0.000  -0.000   0.000   1.504  -0.125  -0.000   0.000   0.000   0.000
  0.000   0.000   0.000  -0.000   0.000   0.000   0.000  -0.000  -0.000  -0.000  -0.125   0.014   0.000   0.000  -0.000   0.000
  0.000  -0.000  -0.000  -0.000  -0.000   0.000   0.000  -0.000   0.000  -0.000   0.000  -0.000   0.166   0.000   0.000  -0.010
  0.000   0.000  -0.000   0.000   0.000  -0.000  -0.000  -0.000   0.000  -0.000   0.000   0.000   0.000   0.166  -0.000  -0.000
 -0.000   0.000   0.000  -0.000  -0.000  -0.000  -0.000   0.000  -0.000  -0.000   0.000  -0.000   0.000  -0.000   0.166  -0.000
 -0.000  -0.000  -0.000   0.000   0.000  -0.000   0.000   0.000   0.000   0.000   0.000   0.000  -0.010  -0.000  -0.000   0.001
 -0.000   0.000   0.000  -0.000   0.000   0.000  -0.000   0.000   0.000  -0.000   0.000  -0.000   0.000  -0.010   0.000   0.000
 -0.000   0.000   0.000  -0.000  -0.000   0.000  -0.000  -0.000   0.000  -0.000  -0.000   0.000  -0.000  -0.000  -0.010   0.000


------------------------ aborting loop because EDIFF is reached ----------------------------------------


    CHARGE:  cpu time    0.0104: real time    0.0105
    FORLOC:  cpu time    0.0002: real time    0.0002
    FORNL :  cpu time    0.0632: real time    0.0635
    STRESS:  cpu time    0.2110: real time    0.2113
    FORCOR:  cpu time    0.0044: real time    0.0045
    FORHAR:  cpu time    0.0009: real time    0.0009
    MIXING:  cpu time    0.0003: real time    0.0003
    OFIELD:  cpu time    0.0000: real time    0.0000

  FORCE on cell =-STRESS in cart. coord.  units (eV):
  Direction    XX          YY          ZZ          XY          YZ          ZX
  --------------------------------------------------------------------------------------
  Alpha Z   204.93891   204.93891   204.93891
  Ewald   -1383.05907 -1383.05907 -1383.05907     0.00000     0.00000     0.00000
  Hartree   504.19221   504.19221   504.19221    -0.00000    -0.00000    -0.00000
  E(xc)    -256.14523  -256.14523  -256.14523    -0.00000     0.00000    -0.00000
  Local     286.00337   286.00337   286.00337    -0.00000    -0.00000     0.00000
  n-local   -89.85961   -97.64460   -98.78292     0.40992     2.59593     1.17058
  augment   378.55677   378.55677   378.55677    -0.00000     0.00000    -0.00000
  Kinetic   361.97698   354.14008   348.98024    -3.14695     0.20762    -0.93245
  Fock        0.00000     0.00000     0.00000     0.00000     0.00000     0.00000
  -------------------------------------------------------------------------------------
  Total      -5.90965    -5.90965    -5.90965     0.00000     0.00000    -0.00000
  in kB    -165.83064  -165.83064  -165.83064     0.00000     0.00000    -0.00000
  external pressure =     -165.83 kB  Pullay stress =        0.00 kB


 VOLUME and BASIS-vectors are now :
 -----------------------------------------------------------------------------
  energy-cutoff  :      400.00
  volume of cell :       57.10
      direct lattice vectors                 reciprocal lattice vectors
     3.850666667  0.000000000  0.000000000     0.259695291  0.000000000  0.000000000
     0.000000000  3.850666667  0.000000000     0.000000000  0.259695291  0.000000000
     0.000000000  0.000000000  3.850666667     0.000000000  0.000000000  0.259695291

  length of vectors
     3.850666667  3.850666667  3.850666667     0.259695291  0.259695291  0.259695291


 FORCES acting on ions
    electron-ion (+dipol)            ewald-force                    non-local-force                 convergence-correction
 -----------------------------------------------------------------------------------------------
   0.344E-13 0.832E-13 0.483E-15   0.474E-15 -.475E-14 -.550E-14   -.562E-22 -.108E-22 -.132E-22   -.328E-13 0.269E-15 -.223E-13
   0.331E-13 -.264E-12 -.354E-12   0.143E-14 0.112E-13 0.479E-14   -.397E-22 -.744E-23 -.440E-22   -.732E-14 0.463E-13 0.672E-13
   -.320E-12 0.910E-13 0.149E-11   -.773E-15 -.964E-14 0.462E-14   0.993E-23 0.149E-22 -.182E-22   -.343E-13 -.147E-14 0.340E-13
   -.309E-12 0.596E-13 -.101E-11   0.179E-15 0.632E-14 -.494E-14   0.993E-23 0.000E+00 0.132E-22   -.355E-13 0.539E-13 0.266E-13
 -----------------------------------------------------------------------------------------------
   -.561E-12 -.301E-13 0.126E-12   0.131E-14 0.315E-14 -.103E-14   -.761E-22 -.331E-23 -.622E-22   -.110E-12 0.989E-13 0.106E-12
 
 
 POSITION                                       TOTAL-FORCE (eV/Angst)
 -----------------------------------------------------------------------------------
      0.00000      0.00000      0.00000         0.000000     -0.000000      0.000000
      0.00000      1.92533      1.92533        -0.000000     -0.000000     -0.000000
      1.92533      0.00000      1.92533         0.000000      0.000000     -0.000000
      1.92533      1.92533      0.00000         0.000000     -0.000000      0.000000
 -----------------------------------------------------------------------------------
    total drift:                               -0.000000      0.000000      0.000000


--------------------------------------------------------------------------------------------------------



  FREE ENERGIE OF THE ION-ELECTRON SYSTEM (eV)
  ---------------------------------------------------
  free  energy   TOTEN  =       -14.40278225 eV

  energy  without entropy=      -14.40084332  energy(sigma->0) =      -14.40213594
 


--------------------------------------------------------------------------------------------------------


    POTLOK:  cpu time    0.0060: real time    0.0060


--------------------------------------------------------------------------------------------------------


     LOOP+:  cpu time    7.0661: real time    7.1196
    4ORBIT:  cpu time    0.0000: real time    0.0000

 total amount of memory used by VASP on root node    37346. kBytes
========================================================================

   base      :      30000. kBytes
   nonl-proj :       5389. kBytes
   fftplans  :        147. kBytes
   grid      :        485. kBytes
   one-center:         62. kBytes
   wavefun   :       1263. kBytes
 
  
  
 General timing and accounting informations for this job:
 ========================================================
  
                  Total CPU time used (sec):        7.690
                            User time (sec):        7.562
                          System time (sec):        0.128
                         Elapsed time (sec):        7.888
  
                   Maximum memory used (kb):       42988.
                   Average memory used (kb):           0.
  
                          Minor page faults:        21049
                          Major page faults:            9
                 Voluntary context switches:         1613
