<?xml version="1.0" encoding="ISO-8859-1"?>
<modeling>
 <generator>
  <i name="program" type="string">vasp </i>
  <i name="version" type="string">5.4.1  </i>
  <i name="subversion" type="string">05Feb16 (build Feb 08 2018 09:21:51) complex                          parallel </i>
  <i name="platform" type="string">LinuxIFC </i>
  <i name="date" type="string">2019 11 21 </i>
  <i name="time" type="string">15:53:40 </i>
 </generator>
 <incar>
  <i type="string" name="PREC">normal</i>
  <i name="ENCUT">    400.00000000</i>
  <i type="int" name="ISMEAR">     1</i>
  <i name="SIGMA">      0.10000000</i>
  <i type="logical" name="LWAVE"> F  </i>
  <i type="logical" name="LCHARG"> F  </i>
  <v type="int" name="KPOINT_BSE">    -1     0     0     0</v>
 </incar>
 <kpoints>
  <generation param="Monkhorst-Pack">
   <v type="int" name="divisions">       9        9        9 </v>
   <v name="usershift">      0.00000000       0.00000000       0.00000000 </v>
   <v name="genvec1">      0.11111111       0.00000000       0.00000000 </v>
   <v name="genvec2">      0.00000000       0.11111111       0.00000000 </v>
   <v name="genvec3">      0.00000000       0.00000000       0.11111111 </v>
   <v name="shift">      0.00000000       0.00000000       0.00000000 </v>
  </generation>
  <varray name="kpointlist" >
   <v>       0.00000000       0.00000000       0.00000000 </v>
   <v>       0.11111111       0.00000000       0.00000000 </v>
   <v>       0.22222222       0.00000000       0.00000000 </v>
   <v>       0.33333333       0.00000000       0.00000000 </v>
   <v>       0.44444444       0.00000000       0.00000000 </v>
   <v>       0.11111111       0.11111111       0.00000000 </v>
   <v>       0.22222222       0.11111111       0.00000000 </v>
   <v>       0.33333333       0.11111111       0.00000000 </v>
   <v>       0.44444444       0.11111111       0.00000000 </v>
   <v>       0.22222222       0.22222222       0.00000000 </v>
   <v>       0.33333333       0.22222222       0.00000000 </v>
   <v>       0.44444444       0.22222222       0.00000000 </v>
   <v>       0.33333333       0.33333333       0.00000000 </v>
   <v>       0.44444444       0.33333333       0.00000000 </v>
   <v>       0.44444444       0.44444444       0.00000000 </v>
   <v>       0.11111111       0.11111111       0.11111111 </v>
   <v>       0.22222222       0.11111111       0.11111111 </v>
   <v>       0.33333333       0.11111111       0.11111111 </v>
   <v>       0.44444444       0.11111111       0.11111111 </v>
   <v>       0.22222222       0.22222222       0.11111111 </v>
   <v>       0.33333333       0.22222222       0.11111111 </v>
   <v>       0.44444444       0.22222222       0.11111111 </v>
   <v>       0.33333333       0.33333333       0.11111111 </v>
   <v>       0.44444444       0.33333333       0.11111111 </v>
   <v>       0.44444444       0.44444444       0.11111111 </v>
   <v>       0.22222222       0.22222222       0.22222222 </v>
   <v>       0.33333333       0.22222222       0.22222222 </v>
   <v>       0.44444444       0.22222222       0.22222222 </v>
   <v>       0.33333333       0.33333333       0.22222222 </v>
   <v>       0.44444444       0.33333333       0.22222222 </v>
   <v>       0.44444444       0.44444444       0.22222222 </v>
   <v>       0.33333333       0.33333333       0.33333333 </v>
   <v>       0.44444444       0.33333333       0.33333333 </v>
   <v>       0.44444444       0.44444444       0.33333333 </v>
   <v>       0.44444444       0.44444444       0.44444444 </v>
  </varray>
  <varray name="weights" >
   <v>       0.00137174 </v>
   <v>       0.00823045 </v>
   <v>       0.00823045 </v>
   <v>       0.00823045 </v>
   <v>       0.00823045 </v>
   <v>       0.01646091 </v>
   <v>       0.03292181 </v>
   <v>       0.03292181 </v>
   <v>       0.03292181 </v>
   <v>       0.01646091 </v>
   <v>       0.03292181 </v>
   <v>       0.03292181 </v>
   <v>       0.01646091 </v>
   <v>       0.03292181 </v>
   <v>       0.01646091 </v>
   <v>       0.01097394 </v>
   <v>       0.03292181 </v>
   <v>       0.03292181 </v>
   <v>       0.03292181 </v>
   <v>       0.03292181 </v>
   <v>       0.06584362 </v>
   <v>       0.06584362 </v>
   <v>       0.03292181 </v>
   <v>       0.06584362 </v>
   <v>       0.03292181 </v>
   <v>       0.01097394 </v>
   <v>       0.03292181 </v>
   <v>       0.03292181 </v>
   <v>       0.03292181 </v>
   <v>       0.06584362 </v>
   <v>       0.03292181 </v>
   <v>       0.01097394 </v>
   <v>       0.03292181 </v>
   <v>       0.03292181 </v>
   <v>       0.01097394 </v>
  </varray>
 </kpoints>
 <parameters>
  <separator name="general" >
   <i type="string" name="SYSTEM">unknown system</i>
   <i type="logical" name="LCOMPAT"> F  </i>
  </separator>
  <separator name="electronic" >
   <i type="string" name="PREC">normal</i>
   <i name="ENMAX">    400.00000000</i>
   <i name="ENAUG">    586.98000000</i>
   <i name="EDIFF">      0.00010000</i>
   <i type="int" name="IALGO">    38</i>
   <i type="int" name="IWAVPR">    10</i>
   <i type="int" name="NBANDS">    48</i>
   <i name="NELECT">     44.00000000</i>
   <i type="int" name="TURBO">     0</i>
   <i type="int" name="IRESTART">     0</i>
   <i type="int" name="NREBOOT">     0</i>
   <i type="int" name="NMIN">     0</i>
   <i name="EREF">      0.00000000</i>
   <separator name="electronic smearing" >
    <i type="int" name="ISMEAR">     1</i>
    <i name="SIGMA">      0.10000000</i>
    <i name="KSPACING">      0.50000000</i>
    <i type="logical" name="KGAMMA"> T  </i>
   </separator>
   <separator name="electronic projectors" >
    <i type="logical" name="LREAL"> F  </i>
    <v name="ROPT">      0.00000000</v>
    <i type="int" name="LMAXPAW">  -100</i>
    <i type="int" name="LMAXMIX">     2</i>
    <i type="logical" name="NLSPLINE"> F  </i>
   </separator>
   <separator name="electronic startup" >
    <i type="int" name="ISTART">     0</i>
    <i type="int" name="ICHARG">     2</i>
    <i type="int" name="INIWAV">     1</i>
   </separator>
   <separator name="electronic spin" >
    <i type="int" name="ISPIN">     1</i>
    <i type="logical" name="LNONCOLLINEAR"> F  </i>
    <v name="MAGMOM">      1.00000000      1.00000000      1.00000000      1.00000000</v>
    <i name="NUPDOWN">     -1.00000000</i>
    <i type="logical" name="LSORBIT"> F  </i>
    <v name="SAXIS">      0.00000000      0.00000000      1.00000000</v>
    <i type="logical" name="LSPIRAL"> F  </i>
    <v name="QSPIRAL">      0.00000000      0.00000000      0.00000000</v>
    <i type="logical" name="LZEROZ"> F  </i>
   </separator>
   <separator name="electronic exchange-correlation" >
    <i type="logical" name="LASPH"> F  </i>
    <i type="logical" name="LMETAGGA"> F  </i>
   </separator>
   <separator name="electronic convergence" >
    <i type="int" name="NELM">    60</i>
    <i type="int" name="NELMDL">    -5</i>
    <i type="int" name="NELMIN">     2</i>
    <i name="ENINI">    400.00000000</i>
    <separator name="electronic convergence detail" >
     <i type="logical" name="LDIAG"> T  </i>
     <i type="logical" name="LSUBROT"> F  </i>
     <i name="WEIMIN">      0.00000000</i>
     <i name="EBREAK">      0.00000052</i>
     <i name="DEPER">      0.30000000</i>
     <i type="int" name="NRMM">     4</i>
     <i name="TIME">      0.40000000</i>
    </separator>
   </separator>
   <separator name="electronic mixer" >
    <i name="AMIX">      0.40000000</i>
    <i name="BMIX">      1.00000000</i>
    <i name="AMIN">      0.10000000</i>
    <i name="AMIX_MAG">      1.60000000</i>
    <i name="BMIX_MAG">      1.00000000</i>
    <separator name="electronic mixer details" >
     <i type="int" name="IMIX">     4</i>
     <i type="logical" name="MIXFIRST"> F  </i>
     <i type="int" name="MAXMIX">   -45</i>
     <i name="WC">    100.00000000</i>
     <i type="int" name="INIMIX">     1</i>
     <i type="int" name="MIXPRE">     1</i>
     <i type="int" name="MREMOVE">     5</i>
    </separator>
   </separator>
   <separator name="electronic dipolcorrection" >
    <i type="logical" name="LDIPOL"> F  </i>
    <i type="logical" name="LMONO"> F  </i>
    <i type="int" name="IDIPOL">     0</i>
    <i name="EPSILON">      1.00000000</i>
    <v name="DIPOL">   -100.00000000   -100.00000000   -100.00000000</v>
    <i name="EFIELD">      0.00000000</i>
   </separator>
  </separator>
  <separator name="grids" >
   <i type="int" name="NGX">    20</i>
   <i type="int" name="NGY">    20</i>
   <i type="int" name="NGZ">    20</i>
   <i type="int" name="NGXF">    40</i>
   <i type="int" name="NGYF">    40</i>
   <i type="int" name="NGZF">    40</i>
   <i type="logical" name="ADDGRID"> F  </i>
  </separator>
  <separator name="ionic" >
   <i type="int" name="NSW">     0</i>
   <i type="int" name="IBRION">    -1</i>
   <i type="int" name="ISIF">     2</i>
   <i name="PSTRESS">      0.00000000</i>
   <i name="EDIFFG">      0.00100000</i>
   <i type="int" name="NFREE">     0</i>
   <i name="POTIM">      0.50000000</i>
   <i name="SMASS">     -3.00000000</i>
   <i name="SCALEE">      1.00000000</i>
  </separator>
  <separator name="ionic md" >
   <i name="TEBEG">      0.00010000</i>
   <i name="TEEND">      0.00010000</i>
   <i type="int" name="NBLOCK">     1</i>
   <i type="int" name="KBLOCK">     1</i>
   <i type="int" name="NPACO">   256</i>
   <i name="APACO">     16.00000000</i>
  </separator>
  <separator name="symmetry" >
   <i type="int" name="ISYM">     2</i>
   <i name="SYMPREC">      0.00001000</i>
  </separator>
  <separator name="dos" >
   <i type="logical" name="LORBIT"> F  </i>
   <v name="RWIGS">     -1.00000000</v>
   <i type="int" name="NEDOS">   301</i>
   <i name="EMIN">     10.00000000</i>
   <i name="EMAX">    -10.00000000</i>
   <i name="EFERMI">      0.00000000</i>
  </separator>
  <separator name="writing" >
   <i type="int" name="NWRITE">     2</i>
   <i type="logical" name="LWAVE"> F  </i>
   <i type="logical" name="LCHARG"> F  </i>
   <i type="logical" name="LPARD"> F  </i>
   <i type="logical" name="LVTOT"> F  </i>
   <i type="logical" name="LVHAR"> F  </i>
   <i type="logical" name="LELF"> F  </i>
   <i type="logical" name="LOPTICS"> F  </i>
   <v name="STM">      0.00000000      0.00000000      0.00000000      0.00000000      0.00000000      0.00000000      0.00000000</v>
  </separator>
  <separator name="performance" >
   <i type="int" name="NPAR">    24</i>
   <i type="int" name="NSIM">     4</i>
   <i type="int" name="NBLK">    -1</i>
   <i type="logical" name="LPLANE"> T  </i>
   <i type="logical" name="LSCALAPACK"> F  </i>
   <i type="logical" name="LSCAAWARE"> F  </i>
   <i type="logical" name="LSCALU"> F  </i>
   <i type="logical" name="LASYNC"> F  </i>
   <i type="logical" name="LORBITALREAL"> F  </i>
  </separator>
  <separator name="miscellaneous" >
   <i type="int" name="IDIOT">     3</i>
   <i type="logical" name="LMUSIC"> F  </i>
   <v name="POMASS">     63.54600000</v>
   <v name="DARWINR">      0.00000000</v>
   <v name="DARWINV">      1.00000000</v>
   <i type="logical" name="LCORR"> T  </i>
  </separator>
  <i type="logical" name="GGA_COMPAT"> T  </i>
  <i type="logical" name="LBERRY"> F  </i>
  <i type="int" name="ICORELEVEL">     0</i>
  <i type="logical" name="LDAU"> F  </i>
  <i type="int" name="I_CONSTRAINED_M">     0</i>
  <separator name="electronic exchange-correlation" >
   <i type="string" name="GGA">--</i>
   <i type="int" name="VOSKOWN">     0</i>
   <i type="logical" name="LHFCALC"> F  </i>
   <i type="string" name="PRECFOCK"></i>
   <i type="logical" name="LSYMGRAD"> F  </i>
   <i type="logical" name="LHFONE"> F  </i>
   <i type="logical" name="LRHFCALC"> F  </i>
   <i type="logical" name="LTHOMAS"> F  </i>
   <i type="logical" name="LMODELHF"> F  </i>
   <i name="ENCUT4O">     -1.00000000</i>
   <i type="int" name="EXXOEP">     0</i>
   <i type="int" name="FOURORBIT">     0</i>
   <i name="AEXX">      0.00000000</i>
   <i name="HFALPHA">      0.00000000</i>
   <i name="MCALPHA">      0.00000000</i>
   <i name="ALDAX">      1.00000000</i>
   <i name="AGGAX">      1.00000000</i>
   <i name="ALDAC">      1.00000000</i>
   <i name="AGGAC">      1.00000000</i>
   <i type="int" name="NKREDX">     1</i>
   <i type="int" name="NKREDY">     1</i>
   <i type="int" name="NKREDZ">     1</i>
   <i type="logical" name="SHIFTRED"> F  </i>
   <i type="logical" name="ODDONLY"> F  </i>
   <i type="logical" name="EVENONLY"> F  </i>
   <i type="int" name="LMAXFOCK">     0</i>
   <i type="int" name="NMAXFOCKAE">     0</i>
   <i type="logical" name="LFOCKAEDFT"> F  </i>
   <i name="HFSCREEN">      0.00000000</i>
   <i name="HFSCREENC">      0.00000000</i>
   <i type="int" name="NBANDSGWLOW">     0</i>
  </separator>
  <separator name="vdW DFT" >
   <i type="logical" name="LUSE_VDW"> F  </i>
   <i name="Zab_VDW">     -0.84910000</i>
   <i name="PARAM1">      0.12340000</i>
   <i name="PARAM2">      1.00000000</i>
   <i name="PARAM3">      0.00000000</i>
  </separator>
  <separator name="model GW" >
   <i type="int" name="MODEL_GW">     0</i>
   <i name="MODEL_EPS0">      8.56444127</i>
   <i name="MODEL_ALPHA">      1.00000000</i>
  </separator>
  <separator name="linear response parameters" >
   <i type="logical" name="LEPSILON"> F  </i>
   <i type="logical" name="LRPA"> F  </i>
   <i type="logical" name="LNABLA"> F  </i>
   <i type="logical" name="LVEL"> F  </i>
   <i type="int" name="KINTER">     0</i>
   <i name="CSHIFT">      0.10000000</i>
   <i name="OMEGAMAX">     -1.00000000</i>
   <i name="DEG_THRESHOLD">      0.00200000</i>
  </separator>
  <separator name="orbital magnetization" >
   <i type="logical" name="NUCIND"> F  </i>
   <v name="MAGPOS">      0.00000000      0.00000000      0.00000000</v>
   <i type="logical" name="LNICSALL"> T  </i>
   <i type="logical" name="ORBITALMAG"> F  </i>
   <i type="logical" name="LMAGBLOCH"> F  </i>
   <i type="logical" name="LCHIMAG"> F  </i>
   <i type="logical" name="LGAUGE"> T  </i>
   <i type="int" name="MAGATOM">     0</i>
   <v name="MAGDIPOL">      0.00000000      0.00000000      0.00000000</v>
   <v name="AVECCONST">      0.00000000      0.00000000      0.00000000</v>
  </separator>
  <separator name="response functions" >
   <i type="logical" name="LADDER"> F  </i>
   <i type="logical" name="LFXC"> F  </i>
   <i type="logical" name="LHARTREE"> T  </i>
   <i type="int" name="IBSE">     0</i>
   <v type="int" name="KPOINT">    -1     0     0     0</v>
   <i type="logical" name="LTCTE"> F  </i>
   <i type="logical" name="LTETE"> F  </i>
   <i type="logical" name="LTRIPLET"> F  </i>
   <i type="logical" name="LFXCEPS"> F  </i>
   <i type="logical" name="LFXHEG"> F  </i>
   <i type="int" name="NATURALO">     0</i>
   <i type="logical" name="L2ORDER"> F  </i>
   <i type="logical" name="LUSEW"> F  </i>
   <i name="ENCUTGW">     -2.00000000</i>
   <i name="ENCUTGWSOFT">     -2.00000000</i>
   <i name="ENCUTLF">     -1.00000000</i>
   <i type="int" name="LMAXMP2">    -1</i>
   <i name="SCISSOR">      0.00000000</i>
   <i type="int" name="NOMEGA">     0</i>
   <i type="int" name="NOMEGAR">     0</i>
   <i type="int" name="NBANDSGW">    -1</i>
   <i type="int" name="NBANDSO">    -1</i>
   <i type="int" name="NBANDSV">    -1</i>
   <i type="int" name="NELM">     1</i>
   <i type="int" name="NELMHF">     1</i>
   <i type="int" name="DIM">     3</i>
   <i type="int" name="ANTIRES">     0</i>
   <i name="OMEGAMAX">    -30.00000000</i>
   <i name="OMEGAMIN">    -30.00000000</i>
   <i name="OMEGATL">   -200.00000000</i>
   <i type="int" name="OMEGAGRID">     0</i>
   <i name="CSHIFT">     -0.10000000</i>
   <i type="logical" name="SELFENERGY"> F  </i>
   <i type="logical" name="LSPECTRAL"> F  </i>
   <i type="logical" name="LSPECTRALGW"> F  </i>
   <i type="logical" name="LSINGLES"> F  </i>
   <i type="logical" name="LFERMIGW"> F  </i>
   <i type="logical" name="ODDONLYGW"> F  </i>
   <i type="logical" name="EVENONLYGW"> F  </i>
   <i type="int" name="NKREDLFX">     1</i>
   <i type="int" name="NKREDLFY">     1</i>
   <i type="int" name="NKREDLFZ">     1</i>
   <i type="int" name="MAXMEM">  1800</i>
   <i type="int" name="TELESCOPE">     0</i>
   <i type="int" name="TAUPAR">     1</i>
   <i type="int" name="OMEGAPAR">    -1</i>
   <i name="LAMBDA">      1.00000000</i>
  </separator>
  <separator name="External order field" >
   <i name="OFIELD_KAPPA">      0.00000000</i>
   <v name="OFIELD_K">      0.00000000      0.00000000      0.00000000</v>
   <i name="OFIELD_Q6_NEAR">      0.00000000</i>
   <i name="OFIELD_Q6_FAR">      0.00000000</i>
   <i name="OFIELD_A">      0.00000000</i>
  </separator>
 </parameters>
 <atominfo>
  <atoms>       4 </atoms>
  <types>       1 </types>
  <array name="atoms" >
   <dimension dim="1">ion</dimension>
   <field type="string">element</field>
   <field type="int">atomtype</field>
   <set>
    <rc><c>Cu</c><c>   1</c></rc>
    <rc><c>Cu</c><c>   1</c></rc>
    <rc><c>Cu</c><c>   1</c></rc>
    <rc><c>Cu</c><c>   1</c></rc>
   </set>
  </array>
  <array name="atomtypes" >
   <dimension dim="1">type</dimension>
   <field type="int">atomspertype</field>
   <field type="string">element</field>
   <field>mass</field>
   <field>valence</field>
   <field type="string">pseudopotential</field>
   <set>
    <rc><c>   4</c><c>Cu</c><c>     63.54600000</c><c>     11.00000000</c><c>  PAW_PBE Cu 22Jun2005                  </c></rc>
   </set>
  </array>
 </atominfo>
 <structure name="initialpos" >
  <crystal>
   <varray name="basis" >
    <v>       3.85066667       0.00000000       0.00000000 </v>
    <v>       0.00000000       3.85066667       0.00000000 </v>
    <v>       0.00000000       0.00000000       3.85066667 </v>
   </varray>
   <i name="volume">     57.09627513 </i>
   <varray name="rec_basis" >
    <v>       0.25969529       0.00000000       0.00000000 </v>
    <v>       0.00000000       0.25969529       0.00000000 </v>
    <v>       0.00000000       0.00000000       0.25969529 </v>
   </varray>
  </crystal>
  <varray name="positions" >
   <v>       0.00000000       0.00000000       0.00000000 </v>
   <v>       0.00000000       0.50000000       0.50000000 </v>
   <v>       0.50000000       0.00000000       0.50000000 </v>
   <v>       0.50000000       0.50000000       0.00000000 </v>
  </varray>
 </structure>
 <calculation>
  <scstep>
   <time name="dav">    0.57    0.57</time>
   <time name="total">    0.58    0.59</time>
   <energy>
    <i name="alphaZ">    204.93891352 </i>
    <i name="ewald">  -4149.17539280 </i>
    <i name="hartreedc">  -1597.79700139 </i>
    <i name="XCdc">    181.22454333 </i>
    <i name="pawpsdc">   4912.82663951 </i>
    <i name="pawaedc">  -5336.19386850 </i>
    <i name="eentropy">     -0.00232591 </i>
    <i name="bandstr">    393.95109670 </i>
    <i name="atom">   5563.83056080 </i>
    <i name="e_fr_energy">    173.60316526 </i>
    <i name="e_wo_entrp">    173.60549117 </i>
    <i name="e_0_energy">    173.60394056 </i>
   </energy>
  </scstep>
  <scstep>
   <time name="dav">    0.49    0.49</time>
   <time name="total">    0.49    0.49</time>
   <energy>
    <i name="e_fr_energy">    -11.47051061 </i>
    <i name="e_wo_entrp">    -11.46864644 </i>
    <i name="e_0_energy">    -11.46988922 </i>
   </energy>
  </scstep>
  <scstep>
   <time name="dav">    0.78    0.78</time>
   <time name="total">    0.78    0.78</time>
   <energy>
    <i name="e_fr_energy">    -17.50851199 </i>
    <i name="e_wo_entrp">    -17.50732964 </i>
    <i name="e_0_energy">    -17.50811787 </i>
   </energy>
  </scstep>
  <scstep>
   <time name="dav">    0.58    0.58</time>
   <time name="total">    0.58    0.59</time>
   <energy>
    <i name="e_fr_energy">    -17.55800634 </i>
    <i name="e_wo_entrp">    -17.55681552 </i>
    <i name="e_0_energy">    -17.55760940 </i>
   </energy>
  </scstep>
  <scstep>
   <time name="dav">    0.76    0.76</time>
   <time name="total">    0.77    0.78</time>
   <energy>
    <i name="e_fr_energy">    -17.55877497 </i>
    <i name="e_wo_entrp">    -17.55758399 </i>
    <i name="e_0_energy">    -17.55837797 </i>
   </energy>
  </scstep>
  <scstep>
   <time name="dav">    0.63    0.63</time>
   <time name="total">    0.65    0.65</time>
   <energy>
    <i name="e_fr_energy">    -16.38387227 </i>
    <i name="e_wo_entrp">    -16.38348327 </i>
    <i name="e_0_energy">    -16.38374260 </i>
   </energy>
  </scstep>
  <scstep>
   <time name="dav">    0.62    0.62</time>
   <time name="total">    0.64    0.64</time>
   <energy>
    <i name="e_fr_energy">    -14.43096364 </i>
    <i name="e_wo_entrp">    -14.42889817 </i>
    <i name="e_0_energy">    -14.43027515 </i>
   </energy>
  </scstep>
  <scstep>
   <time name="dav">    0.82    0.82</time>
   <time name="total">    0.84    0.84</time>
   <energy>
    <i name="e_fr_energy">    -14.41520238 </i>
    <i name="e_wo_entrp">    -14.41302297 </i>
    <i name="e_0_energy">    -14.41447591 </i>
   </energy>
  </scstep>
  <scstep>
   <time name="dav">    0.67    0.67</time>
   <time name="total">    0.69    0.69</time>
   <energy>
    <i name="e_fr_energy">    -14.40280187 </i>
    <i name="e_wo_entrp">    -14.40089159 </i>
    <i name="e_0_energy">    -14.40216511 </i>
   </energy>
  </scstep>
  <scstep>
   <time name="dav">    0.73    0.73</time>
   <time name="total">    0.73    0.74</time>
   <energy>
    <i name="alphaZ">    204.93891352 </i>
    <i name="ewald">  -4149.17539280 </i>
    <i name="hartreedc">  -1512.31192372 </i>
    <i name="XCdc">    177.32474666 </i>
    <i name="pawpsdc">   5057.22652961 </i>
    <i name="pawaedc">  -5485.11613555 </i>
    <i name="eentropy">     -0.00193892 </i>
    <i name="bandstr">    128.88185815 </i>
    <i name="atom">   5563.83056080 </i>
    <i name="e_fr_energy">    -14.40278225 </i>
    <i name="e_wo_entrp">    -14.40084332 </i>
    <i name="e_0_energy">    -14.40213594 </i>
   </energy>
  </scstep>
  <structure>
   <crystal>
    <varray name="basis" >
     <v>       3.85066667       0.00000000       0.00000000 </v>
     <v>       0.00000000       3.85066667       0.00000000 </v>
     <v>       0.00000000       0.00000000       3.85066667 </v>
    </varray>
    <i name="volume">     57.09627513 </i>
    <varray name="rec_basis" >
     <v>       0.25969529       0.00000000       0.00000000 </v>
     <v>       0.00000000       0.25969529       0.00000000 </v>
     <v>       0.00000000       0.00000000       0.25969529 </v>
    </varray>
   </crystal>
   <varray name="positions" >
    <v>       0.00000000       0.00000000       0.00000000 </v>
    <v>       0.00000000       0.50000000       0.50000000 </v>
    <v>       0.50000000       0.00000000       0.50000000 </v>
    <v>       0.50000000       0.50000000       0.00000000 </v>
   </varray>
  </structure>
  <varray name="forces" >
   <v>       0.00000000      -0.00000000       0.00000000 </v>
   <v>      -0.00000000      -0.00000000      -0.00000000 </v>
   <v>       0.00000000       0.00000000      -0.00000000 </v>
   <v>       0.00000000      -0.00000000       0.00000000 </v>
  </varray>
  <varray name="stress" >
   <v>    -165.83063897      -0.00000000      -0.00000000 </v>
   <v>       0.00000000    -165.83063897      -0.00000000 </v>
   <v>       0.00000000       0.00000000    -165.83063897 </v>
  </varray>
  <energy>
   <i name="e_fr_energy">    -14.40278225 </i>
   <i name="e_wo_entrp">    -14.40213594 </i>
   <i name="e_0_energy">     -0.00193892 </i>
  </energy>
  <time name="totalsc">    7.07    7.12</time>
  <eigenvalues>
   <array>
    <dimension dim="1">band</dimension>
    <dimension dim="2">kpoint</dimension>
    <dimension dim="3">spin</dimension>
    <field>eigene</field>
    <field>occ</field>
    <set>
     <set comment="spin 1">
      <set comment="kpoint 1">
       <r>   -2.5468    1.0000 </r>
       <r>    1.5649    1.0000 </r>
       <r>    1.5649    1.0000 </r>
       <r>    1.5649    1.0000 </r>
       <r>    1.9095    1.0000 </r>
       <r>    1.9095    1.0000 </r>
       <r>    1.9095    1.0000 </r>
       <r>    2.9428    1.0000 </r>
       <r>    2.9428    1.0000 </r>
       <r>    2.9428    1.0000 </r>
       <r>    3.5590    1.0000 </r>
       <r>    3.5590    1.0000 </r>
       <r>    3.9701    1.0000 </r>
       <r>    3.9701    1.0000 </r>
       <r>    3.9701    1.0000 </r>
       <r>    4.0861    1.0000 </r>
       <r>    4.0861    1.0000 </r>
       <r>    4.0861    1.0000 </r>
       <r>    4.0861    1.0000 </r>
       <r>    4.0861    1.0000 </r>
       <r>    4.0861    1.0000 </r>
       <r>    7.0959   -0.0000 </r>
       <r>    7.0959   -0.0000 </r>
       <r>    7.0959   -0.0000 </r>
       <r>   11.3345    0.0000 </r>
       <r>   11.3345    0.0000 </r>
       <r>   11.3345    0.0000 </r>
       <r>   17.1482    0.0000 </r>
       <r>   17.1482    0.0000 </r>
       <r>   17.1482    0.0000 </r>
       <r>   17.1482    0.0000 </r>
       <r>   17.1482    0.0000 </r>
       <r>   17.1482    0.0000 </r>
       <r>   21.2204    0.0000 </r>
       <r>   21.2204    0.0000 </r>
       <r>   21.2204    0.0000 </r>
       <r>   22.8508    0.0000 </r>
       <r>   22.8508    0.0000 </r>
       <r>   22.8508    0.0000 </r>
       <r>   26.5239    0.0000 </r>
       <r>   27.7615    0.0000 </r>
       <r>   27.7615    0.0000 </r>
       <r>   27.7615    0.0000 </r>
       <r>   30.2381    0.0000 </r>
       <r>   30.2381    0.0000 </r>
       <r>   30.2381    0.0000 </r>
       <r>   33.8481    0.0000 </r>
       <r>   37.4639    0.0000 </r>
      </set>
      <set comment="kpoint 2">
       <r>   -2.4158    1.0000 </r>
       <r>    1.5569    1.0000 </r>
       <r>    1.6199    1.0000 </r>
       <r>    1.6199    1.0000 </r>
       <r>    1.9395    1.0000 </r>
       <r>    1.9415    1.0000 </r>
       <r>    1.9415    1.0000 </r>
       <r>    2.9105    1.0000 </r>
       <r>    2.9695    1.0000 </r>
       <r>    2.9695    1.0000 </r>
       <r>    3.5294    1.0000 </r>
       <r>    3.5711    1.0000 </r>
       <r>    3.9160    1.0000 </r>
       <r>    3.9160    1.0000 </r>
       <r>    3.9324    1.0000 </r>
       <r>    3.9324    1.0000 </r>
       <r>    3.9575    1.0000 </r>
       <r>    4.0413    1.0000 </r>
       <r>    4.0413    1.0000 </r>
       <r>    4.0861    1.0000 </r>
       <r>    4.0861    1.0000 </r>
       <r>    6.2385   -0.0000 </r>
       <r>    7.3877   -0.0000 </r>
       <r>    7.3877   -0.0000 </r>
       <r>   11.3924    0.0000 </r>
       <r>   11.3924    0.0000 </r>
       <r>   12.4668    0.0000 </r>
       <r>   16.3168    0.0000 </r>
       <r>   16.3168    0.0000 </r>
       <r>   16.5384    0.0000 </r>
       <r>   16.5384    0.0000 </r>
       <r>   17.3330    0.0000 </r>
       <r>   17.3330    0.0000 </r>
       <r>   21.2872    0.0000 </r>
       <r>   22.2275    0.0000 </r>
       <r>   22.2275    0.0000 </r>
       <r>   22.9060    0.0000 </r>
       <r>   23.7424    0.0000 </r>
       <r>   23.7424    0.0000 </r>
       <r>   25.9328    0.0000 </r>
       <r>   26.5300    0.0000 </r>
       <r>   26.5300    0.0000 </r>
       <r>   27.2944    0.0000 </r>
       <r>   31.1040    0.0000 </r>
       <r>   31.5934    0.0000 </r>
       <r>   31.5934    0.0000 </r>
       <r>   33.6110    0.0000 </r>
       <r>   35.8497    0.0000 </r>
      </set>
      <set comment="kpoint 3">
       <r>   -2.0267    1.0000 </r>
       <r>    1.4817    1.0000 </r>
       <r>    1.7707    1.0000 </r>
       <r>    1.7707    1.0000 </r>
       <r>    2.0263    1.0000 </r>
       <r>    2.0386    1.0000 </r>
       <r>    2.0386    1.0000 </r>
       <r>    2.8178    1.0000 </r>
       <r>    3.0486    1.0000 </r>
       <r>    3.0486    1.0000 </r>
       <r>    3.4479    1.0000 </r>
       <r>    3.5380    1.0000 </r>
       <r>    3.5380    1.0000 </r>
       <r>    3.6059    1.0000 </r>
       <r>    3.8256    1.0000 </r>
       <r>    3.8256    1.0000 </r>
       <r>    3.9170    1.0000 </r>
       <r>    3.9170    1.0000 </r>
       <r>    3.9211    1.0000 </r>
       <r>    4.0862    1.0000 </r>
       <r>    4.0862    1.0000 </r>
       <r>    4.8106    1.0000 </r>
       <r>    8.1289    0.0000 </r>
       <r>    8.1289    0.0000 </r>
       <r>   11.5742    0.0000 </r>
       <r>   11.5742    0.0000 </r>
       <r>   14.7643    0.0000 </r>
       <r>   14.7850    0.0000 </r>
       <r>   14.7850    0.0000 </r>
       <r>   15.3400    0.0000 </r>
       <r>   15.3400    0.0000 </r>
       <r>   17.8754    0.0000 </r>
       <r>   17.8754    0.0000 </r>
       <r>   21.4903    0.0000 </r>
       <r>   23.0807    0.0000 </r>
       <r>   24.2879    0.0000 </r>
       <r>   24.2879    0.0000 </r>
       <r>   24.6842    0.0000 </r>
       <r>   24.6842    0.0000 </r>
       <r>   24.8711    0.0000 </r>
       <r>   25.7738    0.0000 </r>
       <r>   25.7738    0.0000 </r>
       <r>   26.2946    0.0000 </r>
       <r>   30.7169    0.0000 </r>
       <r>   32.9850    0.0000 </r>
       <r>   33.7928    0.0000 </r>
       <r>   33.7928    0.0000 </r>
       <r>   36.8946    0.0000 </r>
      </set>
      <set comment="kpoint 4">
       <r>   -1.3948    1.0000 </r>
       <r>    1.1456    1.0000 </r>
       <r>    1.9700    1.0000 </r>
       <r>    1.9700    1.0000 </r>
       <r>    2.1605    1.0000 </r>
       <r>    2.2040    1.0000 </r>
       <r>    2.2040    1.0000 </r>
       <r>    2.6771    1.0000 </r>
       <r>    3.1234    1.0000 </r>
       <r>    3.1234    1.0000 </r>
       <r>    3.1763    1.0000 </r>
       <r>    3.1763    1.0000 </r>
       <r>    3.3356    1.0000 </r>
       <r>    3.6599    1.0000 </r>
       <r>    3.6767    1.0000 </r>
       <r>    3.6767    1.0000 </r>
       <r>    3.7208    1.0000 </r>
       <r>    3.7394    1.0000 </r>
       <r>    3.7394    1.0000 </r>
       <r>    3.8659    1.0000 </r>
       <r>    4.0864    1.0000 </r>
       <r>    4.0864    1.0000 </r>
       <r>    9.1447    0.0000 </r>
       <r>    9.1447    0.0000 </r>
       <r>   11.9032    0.0000 </r>
       <r>   11.9032    0.0000 </r>
       <r>   13.2043    0.0000 </r>
       <r>   13.2043    0.0000 </r>
       <r>   14.1603    0.0000 </r>
       <r>   14.1603    0.0000 </r>
       <r>   17.4908    0.0000 </r>
       <r>   18.7443    0.0000 </r>
       <r>   18.7443    0.0000 </r>
       <r>   21.8377    0.0000 </r>
       <r>   22.9103    0.0000 </r>
       <r>   22.9103    0.0000 </r>
       <r>   23.4010    0.0000 </r>
       <r>   23.8612    0.0000 </r>
       <r>   25.1949    0.0000 </r>
       <r>   26.7531    0.0000 </r>
       <r>   26.7531    0.0000 </r>
       <r>   27.3342    0.0000 </r>
       <r>   28.2762    0.0000 </r>
       <r>   28.2762    0.0000 </r>
       <r>   35.3446    0.0000 </r>
       <r>   35.6544    0.0000 </r>
       <r>   35.6544    0.0000 </r>
       <r>   36.0765    0.0000 </r>
      </set>
      <set comment="kpoint 5">
       <r>   -0.5580    1.0000 </r>
       <r>    0.3792    1.0000 </r>
       <r>    2.1255    1.0000 </r>
       <r>    2.1255    1.0000 </r>
       <r>    2.3269    1.0000 </r>
       <r>    2.4404    1.0000 </r>
       <r>    2.4404    1.0000 </r>
       <r>    2.5063    1.0000 </r>
       <r>    2.7491    1.0000 </r>
       <r>    2.7491    1.0000 </r>
       <r>    3.2399    1.0000 </r>
       <r>    3.2762    1.0000 </r>
       <r>    3.3446    1.0000 </r>
       <r>    3.3446    1.0000 </r>
       <r>    3.5390    1.0000 </r>
       <r>    3.5390    1.0000 </r>
       <r>    3.5539    1.0000 </r>
       <r>    3.5539    1.0000 </r>
       <r>    3.7267    1.0000 </r>
       <r>    3.7981    1.0000 </r>
       <r>    4.0865    1.0000 </r>
       <r>    4.0865    1.0000 </r>
       <r>   10.3517    0.0000 </r>
       <r>   10.3517    0.0000 </r>
       <r>   11.7131    0.0000 </r>
       <r>   11.7131    0.0000 </r>
       <r>   12.4031    0.0000 </r>
       <r>   12.4031    0.0000 </r>
       <r>   13.1983    0.0000 </r>
       <r>   13.1983    0.0000 </r>
       <r>   19.8997    0.0000 </r>
       <r>   19.8997    0.0000 </r>
       <r>   20.4655    0.0000 </r>
       <r>   21.3012    0.0000 </r>
       <r>   21.3012    0.0000 </r>
       <r>   22.3409    0.0000 </r>
       <r>   23.0128    0.0000 </r>
       <r>   23.4772    0.0000 </r>
       <r>   23.9130    0.0000 </r>
       <r>   24.7942    0.0000 </r>
       <r>   29.4898    0.0000 </r>
       <r>   29.4898    0.0000 </r>
       <r>   30.7162    0.0000 </r>
       <r>   30.7162    0.0000 </r>
       <r>   32.4636    0.0000 </r>
       <r>   32.4636    0.0000 </r>
       <r>   35.8439    0.0000 </r>
       <r>   35.8439    0.0000 </r>
      </set>
      <set comment="kpoint 6">
       <r>   -2.2855    1.0000 </r>
       <r>    1.6149    1.0000 </r>
       <r>    1.6149    1.0000 </r>
       <r>    1.6722    1.0000 </r>
       <r>    1.9706    1.0000 </r>
       <r>    1.9706    1.0000 </r>
       <r>    1.9719    1.0000 </r>
       <r>    2.8936    1.0000 </r>
       <r>    2.9819    1.0000 </r>
       <r>    2.9914    1.0000 </r>
       <r>    3.5219    1.0000 </r>
       <r>    3.5660    1.0000 </r>
       <r>    3.7993    1.0000 </r>
       <r>    3.8308    1.0000 </r>
       <r>    3.8308    1.0000 </r>
       <r>    3.8972    1.0000 </r>
       <r>    3.9465    1.0000 </r>
       <r>    3.9465    1.0000 </r>
       <r>    4.0412    1.0000 </r>
       <r>    4.0412    1.0000 </r>
       <r>    4.0569    1.0000 </r>
       <r>    6.5171   -0.0000 </r>
       <r>    6.5171   -0.0000 </r>
       <r>    7.6555   -0.0000 </r>
       <r>   11.4524    0.0000 </r>
       <r>   12.5506    0.0000 </r>
       <r>   12.5506    0.0000 </r>
       <r>   14.7491    0.0000 </r>
       <r>   16.4858    0.0000 </r>
       <r>   16.4858    0.0000 </r>
       <r>   16.7073    0.0000 </r>
       <r>   16.7073    0.0000 </r>
       <r>   17.5076    0.0000 </r>
       <r>   21.9597    0.0000 </r>
       <r>   22.3114    0.0000 </r>
       <r>   22.3114    0.0000 </r>
       <r>   23.8093    0.0000 </r>
       <r>   23.8093    0.0000 </r>
       <r>   24.5333    0.0000 </r>
       <r>   25.0664    0.0000 </r>
       <r>   25.1184    0.0000 </r>
       <r>   27.3796    0.0000 </r>
       <r>   28.1087    0.0000 </r>
       <r>   30.3893    0.0000 </r>
       <r>   31.3366    0.0000 </r>
       <r>   33.2445    0.0000 </r>
       <r>   34.4596    0.0000 </r>
       <r>   34.5520    0.0000 </r>
      </set>
      <set comment="kpoint 7">
       <r>   -1.8991    1.0000 </r>
       <r>    1.5487    1.0000 </r>
       <r>    1.7738    1.0000 </r>
       <r>    1.8154    1.0000 </r>
       <r>    2.0542    1.0000 </r>
       <r>    2.0634    1.0000 </r>
       <r>    2.0645    1.0000 </r>
       <r>    2.8123    1.0000 </r>
       <r>    3.0530    1.0000 </r>
       <r>    3.0542    1.0000 </r>
       <r>    3.4506    1.0000 </r>
       <r>    3.4556    1.0000 </r>
       <r>    3.4777    1.0000 </r>
       <r>    3.6025    1.0000 </r>
       <r>    3.6432    1.0000 </r>
       <r>    3.7979    1.0000 </r>
       <r>    3.8353    1.0000 </r>
       <r>    3.9133    1.0000 </r>
       <r>    3.9164    1.0000 </r>
       <r>    4.0407    1.0000 </r>
       <r>    4.0415    1.0000 </r>
       <r>    5.1301    1.0017 </r>
       <r>    7.1848   -0.0000 </r>
       <r>    8.3570    0.0000 </r>
       <r>   11.6411    0.0000 </r>
       <r>   12.8095    0.0000 </r>
       <r>   13.0861    0.0000 </r>
       <r>   14.8633    0.0000 </r>
       <r>   14.9441    0.0000 </r>
       <r>   15.4882    0.0000 </r>
       <r>   16.9792    0.0000 </r>
       <r>   17.0942    0.0000 </r>
       <r>   17.2022    0.0000 </r>
       <r>   22.5670    0.0000 </r>
       <r>   22.9110    0.0000 </r>
       <r>   23.1336    0.0000 </r>
       <r>   23.3863    0.0000 </r>
       <r>   24.0195    0.0000 </r>
       <r>   24.3855    0.0000 </r>
       <r>   25.8460    0.0000 </r>
       <r>   26.7370    0.0000 </r>
       <r>   27.3321    0.0000 </r>
       <r>   27.6386    0.0000 </r>
       <r>   30.5422    0.0000 </r>
       <r>   31.6515    0.0000 </r>
       <r>   33.0887    0.0000 </r>
       <r>   35.3647    0.0000 </r>
       <r>   35.8117    0.0000 </r>
      </set>
      <set comment="kpoint 8">
       <r>   -1.2722    1.0000 </r>
       <r>    1.2285    1.0000 </r>
       <r>    1.9864    1.0000 </r>
       <r>    2.0086    1.0000 </r>
       <r>    2.1834    1.0000 </r>
       <r>    2.2122    1.0000 </r>
       <r>    2.2239    1.0000 </r>
       <r>    2.6792    1.0000 </r>
       <r>    3.0455    1.0000 </r>
       <r>    3.0979    1.0000 </r>
       <r>    3.1333    1.0000 </r>
       <r>    3.1779    1.0000 </r>
       <r>    3.3417    1.0000 </r>
       <r>    3.3788    1.0000 </r>
       <r>    3.6588    1.0000 </r>
       <r>    3.6698    1.0000 </r>
       <r>    3.6870    1.0000 </r>
       <r>    3.7384    1.0000 </r>
       <r>    3.8224    1.0000 </r>
       <r>    4.0382    1.0000 </r>
       <r>    4.0400    1.0000 </r>
       <r>    4.1877    1.0000 </r>
       <r>    8.0588   -0.0000 </r>
       <r>    9.3425    0.0000 </r>
       <r>   11.5746    0.0000 </r>
       <r>   11.9834    0.0000 </r>
       <r>   13.2549    0.0000 </r>
       <r>   13.3636    0.0000 </r>
       <r>   14.3021    0.0000 </r>
       <r>   15.9891    0.0000 </r>
       <r>   17.5930    0.0000 </r>
       <r>   17.7616    0.0000 </r>
       <r>   17.9931    0.0000 </r>
       <r>   21.3939    0.0000 </r>
       <r>   21.7655    0.0000 </r>
       <r>   23.0057    0.0000 </r>
       <r>   24.3988    0.0000 </r>
       <r>   25.3918    0.0000 </r>
       <r>   25.5578    0.0000 </r>
       <r>   26.3558    0.0000 </r>
       <r>   26.8573    0.0000 </r>
       <r>   27.5324    0.0000 </r>
       <r>   28.3062    0.0000 </r>
       <r>   29.9017    0.0000 </r>
       <r>   33.9256    0.0000 </r>
       <r>   34.5326    0.0000 </r>
       <r>   34.8381    0.0000 </r>
       <r>   35.7651    0.0000 </r>
      </set>
      <set comment="kpoint 9">
       <r>   -0.4439    1.0000 </r>
       <r>    0.4799    1.0000 </r>
       <r>    2.1593    1.0000 </r>
       <r>    2.1688    1.0000 </r>
       <r>    2.3435    1.0000 </r>
       <r>    2.4117    1.0000 </r>
       <r>    2.4510    1.0000 </r>
       <r>    2.5159    1.0000 </r>
       <r>    2.6895    1.0000 </r>
       <r>    2.7455    1.0000 </r>
       <r>    3.1330    1.0000 </r>
       <r>    3.1338    1.0000 </r>
       <r>    3.3447    1.0000 </r>
       <r>    3.4323    1.0000 </r>
       <r>    3.5384    1.0000 </r>
       <r>    3.5477    1.0000 </r>
       <r>    3.5594    1.0000 </r>
       <r>    3.6232    1.0000 </r>
       <r>    3.7572    1.0000 </r>
       <r>    3.8732    1.0000 </r>
       <r>    4.0382    1.0000 </r>
       <r>    4.0390    1.0000 </r>
       <r>    9.0789    0.0000 </r>
       <r>   10.2442    0.0000 </r>
       <r>   10.5297    0.0000 </r>
       <r>   11.8787    0.0000 </r>
       <r>   12.5096    0.0000 </r>
       <r>   13.2395    0.0000 </r>
       <r>   14.0053    0.0000 </r>
       <r>   14.8931    0.0000 </r>
       <r>   18.7872    0.0000 </r>
       <r>   19.0394    0.0000 </r>
       <r>   20.0105    0.0000 </r>
       <r>   20.3073    0.0000 </r>
       <r>   20.5768    0.0000 </r>
       <r>   23.6437    0.0000 </r>
       <r>   23.7105    0.0000 </r>
       <r>   24.4958    0.0000 </r>
       <r>   24.9852    0.0000 </r>
       <r>   25.8416    0.0000 </r>
       <r>   28.0203    0.0000 </r>
       <r>   29.5979    0.0000 </r>
       <r>   30.0569    0.0000 </r>
       <r>   32.3739    0.0000 </r>
       <r>   32.5552    0.0000 </r>
       <r>   32.5743    0.0000 </r>
       <r>   35.9788    0.0000 </r>
       <r>   36.0193    0.0000 </r>
      </set>
      <set comment="kpoint 10">
       <r>   -1.5213    1.0000 </r>
       <r>    1.7343    1.0000 </r>
       <r>    1.7343    1.0000 </r>
       <r>    1.9353    1.0000 </r>
       <r>    2.1386    1.0000 </r>
       <r>    2.1386    1.0000 </r>
       <r>    2.1386    1.0000 </r>
       <r>    2.7714    1.0000 </r>
       <r>    3.0713    1.0000 </r>
       <r>    3.0932    1.0000 </r>
       <r>    3.2385    1.0000 </r>
       <r>    3.2385    1.0000 </r>
       <r>    3.2898    1.0000 </r>
       <r>    3.4335    1.0000 </r>
       <r>    3.6407    1.0000 </r>
       <r>    3.7177    1.0000 </r>
       <r>    3.8185    1.0000 </r>
       <r>    3.8185    1.0000 </r>
       <r>    3.9149    1.0000 </r>
       <r>    3.9149    1.0000 </r>
       <r>    3.9706    1.0000 </r>
       <r>    5.7539   -0.0000 </r>
       <r>    5.7539   -0.0000 </r>
       <r>    8.9826    0.0000 </r>
       <r>   11.3266    0.0000 </r>
       <r>   11.8499    0.0000 </r>
       <r>   15.1520    0.0000 </r>
       <r>   15.1520    0.0000 </r>
       <r>   15.4089    0.0000 </r>
       <r>   15.4089    0.0000 </r>
       <r>   15.9329    0.0000 </r>
       <r>   15.9329    0.0000 </r>
       <r>   18.5445    0.0000 </r>
       <r>   21.2061    0.0000 </r>
       <r>   21.6706    0.0000 </r>
       <r>   22.4388    0.0000 </r>
       <r>   24.6803    0.0000 </r>
       <r>   24.6803    0.0000 </r>
       <r>   26.0695    0.0000 </r>
       <r>   26.0695    0.0000 </r>
       <r>   28.2262    0.0000 </r>
       <r>   29.0624    0.0000 </r>
       <r>   29.7072    0.0000 </r>
       <r>   30.0078    0.0000 </r>
       <r>   30.8528    0.0000 </r>
       <r>   31.1042    0.0000 </r>
       <r>   34.9260    0.0000 </r>
       <r>   36.7087    0.0000 </r>
      </set>
      <set comment="kpoint 11">
       <r>   -0.9106    1.0000 </r>
       <r>    1.4595    1.0000 </r>
       <r>    1.9890    1.0000 </r>
       <r>    2.1006    1.0000 </r>
       <r>    2.2511    1.0000 </r>
       <r>    2.2524    1.0000 </r>
       <r>    2.2806    1.0000 </r>
       <r>    2.6744    1.0000 </r>
       <r>    2.8666    1.0000 </r>
       <r>    3.0110    1.0000 </r>
       <r>    3.0160    1.0000 </r>
       <r>    3.0789    1.0000 </r>
       <r>    3.1962    1.0000 </r>
       <r>    3.3899    1.0000 </r>
       <r>    3.6032    1.0000 </r>
       <r>    3.6793    1.0000 </r>
       <r>    3.7352    1.0000 </r>
       <r>    3.7368    1.0000 </r>
       <r>    3.7480    1.0000 </r>
       <r>    3.9131    1.0000 </r>
       <r>    3.9314    1.0000 </r>
       <r>    4.6985    1.0000 </r>
       <r>    6.5138   -0.0000 </r>
       <r>    9.7913    0.0000 </r>
       <r>    9.9021    0.0000 </r>
       <r>   12.2235    0.0000 </r>
       <r>   13.8282    0.0000 </r>
       <r>   14.6301    0.0000 </r>
       <r>   15.7188    0.0000 </r>
       <r>   16.1478    0.0000 </r>
       <r>   16.6056    0.0000 </r>
       <r>   17.9160    0.0000 </r>
       <r>   18.3168    0.0000 </r>
       <r>   19.6689    0.0000 </r>
       <r>   20.0989    0.0000 </r>
       <r>   23.8221    0.0000 </r>
       <r>   25.1771    0.0000 </r>
       <r>   26.4615    0.0000 </r>
       <r>   27.1705    0.0000 </r>
       <r>   27.3098    0.0000 </r>
       <r>   27.7862    0.0000 </r>
       <r>   28.3810    0.0000 </r>
       <r>   28.6793    0.0000 </r>
       <r>   31.6383    0.0000 </r>
       <r>   32.3237    0.0000 </r>
       <r>   32.4069    0.0000 </r>
       <r>   33.5630    0.0000 </r>
       <r>   35.3048    0.0000 </r>
      </set>
      <set comment="kpoint 12">
       <r>   -0.1107    1.0000 </r>
       <r>    0.7671    1.0000 </r>
       <r>    2.2213    1.0000 </r>
       <r>    2.2870    1.0000 </r>
       <r>    2.3332    1.0000 </r>
       <r>    2.3922    1.0000 </r>
       <r>    2.4800    1.0000 </r>
       <r>    2.5399    1.0000 </r>
       <r>    2.5563    1.0000 </r>
       <r>    2.7313    1.0000 </r>
       <r>    2.9491    1.0000 </r>
       <r>    3.0202    1.0000 </r>
       <r>    3.3513    1.0000 </r>
       <r>    3.4389    1.0000 </r>
       <r>    3.5175    1.0000 </r>
       <r>    3.5392    1.0000 </r>
       <r>    3.5493    1.0000 </r>
       <r>    3.5848    1.0000 </r>
       <r>    3.9058    1.0000 </r>
       <r>    3.9126    1.0000 </r>
       <r>    3.9166    1.0000 </r>
       <r>    4.1588    1.0000 </r>
       <r>    7.4137   -0.0000 </r>
       <r>    8.4930    0.0000 </r>
       <r>   11.0419    0.0000 </r>
       <r>   12.3600    0.0000 </r>
       <r>   12.7947    0.0000 </r>
       <r>   13.5946    0.0000 </r>
       <r>   16.4430    0.0000 </r>
       <r>   17.1237    0.0000 </r>
       <r>   17.3620    0.0000 </r>
       <r>   17.5539    0.0000 </r>
       <r>   18.3045    0.0000 </r>
       <r>   18.7216    0.0000 </r>
       <r>   20.8922    0.0000 </r>
       <r>   24.0556    0.0000 </r>
       <r>   25.8793    0.0000 </r>
       <r>   26.3089    0.0000 </r>
       <r>   26.7764    0.0000 </r>
       <r>   27.0394    0.0000 </r>
       <r>   27.8012    0.0000 </r>
       <r>   28.7758    0.0000 </r>
       <r>   29.9220    0.0000 </r>
       <r>   32.7950    0.0000 </r>
       <r>   32.8399    0.0000 </r>
       <r>   32.9062    0.0000 </r>
       <r>   34.0255    0.0000 </r>
       <r>   34.5154    0.0000 </r>
      </set>
      <set comment="kpoint 13">
       <r>   -0.3326    1.0000 </r>
       <r>    1.7802    1.0000 </r>
       <r>    1.7802    1.0000 </r>
       <r>    2.1771    1.0000 </r>
       <r>    2.3505    1.0000 </r>
       <r>    2.3660    1.0000 </r>
       <r>    2.3660    1.0000 </r>
       <r>    2.6390    1.0000 </r>
       <r>    2.7485    1.0000 </r>
       <r>    2.7485    1.0000 </r>
       <r>    2.8755    1.0000 </r>
       <r>    3.0344    1.0000 </r>
       <r>    3.2595    1.0000 </r>
       <r>    3.3441    1.0000 </r>
       <r>    3.5152    1.0000 </r>
       <r>    3.6071    1.0000 </r>
       <r>    3.6071    1.0000 </r>
       <r>    3.7374    1.0000 </r>
       <r>    3.7374    1.0000 </r>
       <r>    3.8331    1.0000 </r>
       <r>    3.9170    1.0000 </r>
       <r>    5.2999    0.9628 </r>
       <r>    5.2999    0.9628 </r>
       <r>    8.2621    0.0000 </r>
       <r>   10.7546    0.0000 </r>
       <r>   12.6481    0.0000 </r>
       <r>   14.5668    0.0000 </r>
       <r>   14.5668    0.0000 </r>
       <r>   15.2739    0.0000 </r>
       <r>   15.2739    0.0000 </r>
       <r>   18.1097    0.0000 </r>
       <r>   18.4466    0.0000 </r>
       <r>   18.4466    0.0000 </r>
       <r>   18.5653    0.0000 </r>
       <r>   20.1647    0.0000 </r>
       <r>   23.1478    0.0000 </r>
       <r>   27.6491    0.0000 </r>
       <r>   27.6927    0.0000 </r>
       <r>   27.6927    0.0000 </r>
       <r>   27.7918    0.0000 </r>
       <r>   28.4429    0.0000 </r>
       <r>   28.4429    0.0000 </r>
       <r>   29.6639    0.0000 </r>
       <r>   30.9294    0.0000 </r>
       <r>   31.6560    0.0000 </r>
       <r>   32.5153    0.0000 </r>
       <r>   32.5153    0.0000 </r>
       <r>   34.9792    0.0000 </r>
      </set>
      <set comment="kpoint 14">
       <r>    0.4080    1.0000 </r>
       <r>    1.1891    1.0000 </r>
       <r>    2.0759    1.0000 </r>
       <r>    2.2010    1.0000 </r>
       <r>    2.4563    1.0000 </r>
       <r>    2.4668    1.0000 </r>
       <r>    2.5192    1.0000 </r>
       <r>    2.5643    1.0000 </r>
       <r>    2.5649    1.0000 </r>
       <r>    2.6979    1.0000 </r>
       <r>    2.8130    1.0000 </r>
       <r>    2.9447    1.0000 </r>
       <r>    3.3600    1.0000 </r>
       <r>    3.3815    1.0000 </r>
       <r>    3.4466    1.0000 </r>
       <r>    3.4748    1.0000 </r>
       <r>    3.4838    1.0000 </r>
       <r>    3.5495    1.0000 </r>
       <r>    3.7463    1.0000 </r>
       <r>    3.7734    1.0000 </r>
       <r>    4.1621    1.0000 </r>
       <r>    4.5588    1.0000 </r>
       <r>    6.0484   -0.0000 </r>
       <r>    7.0177   -0.0000 </r>
       <r>   11.8404    0.0000 </r>
       <r>   13.1203    0.0000 </r>
       <r>   13.2834    0.0000 </r>
       <r>   14.1555    0.0000 </r>
       <r>   15.5440    0.0000 </r>
       <r>   16.1423    0.0000 </r>
       <r>   16.7311    0.0000 </r>
       <r>   17.2410    0.0000 </r>
       <r>   19.1782    0.0000 </r>
       <r>   20.0099    0.0000 </r>
       <r>   21.4135    0.0000 </r>
       <r>   24.5502    0.0000 </r>
       <r>   24.8719    0.0000 </r>
       <r>   27.4793    0.0000 </r>
       <r>   28.1131    0.0000 </r>
       <r>   28.3783    0.0000 </r>
       <r>   28.4167    0.0000 </r>
       <r>   29.2896    0.0000 </r>
       <r>   30.4595    0.0000 </r>
       <r>   31.5544    0.0000 </r>
       <r>   31.8749    0.0000 </r>
       <r>   33.1504    0.0000 </r>
       <r>   33.4568    0.0000 </r>
       <r>   33.5909    0.0000 </r>
      </set>
      <set comment="kpoint 15">
       <r>    1.0368    1.0000 </r>
       <r>    1.6406    1.0000 </r>
       <r>    1.6406    1.0000 </r>
       <r>    1.9901    1.0000 </r>
       <r>    2.5549    1.0000 </r>
       <r>    2.5549    1.0000 </r>
       <r>    2.5726    1.0000 </r>
       <r>    2.6164    1.0000 </r>
       <r>    2.6378    1.0000 </r>
       <r>    2.7222    1.0000 </r>
       <r>    2.7222    1.0000 </r>
       <r>    2.8651    1.0000 </r>
       <r>    3.3096    1.0000 </r>
       <r>    3.3660    1.0000 </r>
       <r>    3.3728    1.0000 </r>
       <r>    3.3728    1.0000 </r>
       <r>    3.4560    1.0000 </r>
       <r>    3.5828    1.0000 </r>
       <r>    3.5828    1.0000 </r>
       <r>    3.6554    1.0000 </r>
       <r>    4.5241    1.0000 </r>
       <r>    5.0993    1.0004 </r>
       <r>    5.0993    1.0004 </r>
       <r>    5.8877   -0.0000 </r>
       <r>   12.8782    0.0000 </r>
       <r>   13.9951    0.0000 </r>
       <r>   14.1207    0.0000 </r>
       <r>   14.1207    0.0000 </r>
       <r>   14.9466    0.0000 </r>
       <r>   14.9466    0.0000 </r>
       <r>   15.3310    0.0000 </r>
       <r>   15.9752    0.0000 </r>
       <r>   22.0978    0.0000 </r>
       <r>   22.0978    0.0000 </r>
       <r>   22.2721    0.0000 </r>
       <r>   24.2401    0.0000 </r>
       <r>   24.7919    0.0000 </r>
       <r>   25.7911    0.0000 </r>
       <r>   26.3560    0.0000 </r>
       <r>   26.3560    0.0000 </r>
       <r>   31.1888    0.0000 </r>
       <r>   31.1888    0.0000 </r>
       <r>   31.6059    0.0000 </r>
       <r>   32.8381    0.0000 </r>
       <r>   33.0672    0.0000 </r>
       <r>   33.4783    0.0000 </r>
       <r>   33.4783    0.0000 </r>
       <r>   34.0101    0.0000 </r>
      </set>
      <set comment="kpoint 16">
       <r>   -2.1562    1.0000 </r>
       <r>    1.6690    1.0000 </r>
       <r>    1.6690    1.0000 </r>
       <r>    1.6690    1.0000 </r>
       <r>    2.0000    1.0000 </r>
       <r>    2.0000    1.0000 </r>
       <r>    2.0000    1.0000 </r>
       <r>    2.8793    1.0000 </r>
       <r>    3.0007    1.0000 </r>
       <r>    3.0007    1.0000 </r>
       <r>    3.5401    1.0000 </r>
       <r>    3.5401    1.0000 </r>
       <r>    3.7310    1.0000 </r>
       <r>    3.7310    1.0000 </r>
       <r>    3.7310    1.0000 </r>
       <r>    3.8555    1.0000 </r>
       <r>    3.8555    1.0000 </r>
       <r>    3.8555    1.0000 </r>
       <r>    4.0463    1.0000 </r>
       <r>    4.0463    1.0000 </r>
       <r>    4.0463    1.0000 </r>
       <r>    6.7626   -0.0000 </r>
       <r>    6.7626   -0.0000 </r>
       <r>    6.7626   -0.0000 </r>
       <r>   12.6361    0.0000 </r>
       <r>   12.6361    0.0000 </r>
       <r>   12.6361    0.0000 </r>
       <r>   14.9077    0.0000 </r>
       <r>   14.9077    0.0000 </r>
       <r>   14.9077    0.0000 </r>
       <r>   17.6871    0.0000 </r>
       <r>   17.6871    0.0000 </r>
       <r>   17.6871    0.0000 </r>
       <r>   22.0261    0.0000 </r>
       <r>   22.0261    0.0000 </r>
       <r>   22.0261    0.0000 </r>
       <r>   22.9164    0.0000 </r>
       <r>   25.1486    0.0000 </r>
       <r>   25.1486    0.0000 </r>
       <r>   25.1486    0.0000 </r>
       <r>   26.7770    0.0000 </r>
       <r>   26.8235    0.0000 </r>
       <r>   26.8235    0.0000 </r>
       <r>   31.7862    0.0000 </r>
       <r>   31.7862    0.0000 </r>
       <r>   32.2986    0.0000 </r>
       <r>   34.7282    0.0000 </r>
       <r>   34.7282    0.0000 </r>
      </set>
      <set comment="kpoint 17">
       <r>   -1.7729    1.0000 </r>
       <r>    1.6097    1.0000 </r>
       <r>    1.8177    1.0000 </r>
       <r>    1.8177    1.0000 </r>
       <r>    2.0818    1.0000 </r>
       <r>    2.0892    1.0000 </r>
       <r>    2.0892    1.0000 </r>
       <r>    2.8086    1.0000 </r>
       <r>    3.0541    1.0000 </r>
       <r>    3.0575    1.0000 </r>
       <r>    3.4001    1.0000 </r>
       <r>    3.4001    1.0000 </r>
       <r>    3.4753    1.0000 </r>
       <r>    3.5250    1.0000 </r>
       <r>    3.5921    1.0000 </r>
       <r>    3.7456    1.0000 </r>
       <r>    3.7694    1.0000 </r>
       <r>    3.7694    1.0000 </r>
       <r>    4.0092    1.0000 </r>
       <r>    4.0295    1.0000 </r>
       <r>    4.0295    1.0000 </r>
       <r>    5.3653    0.5462 </r>
       <r>    7.3810   -0.0000 </r>
       <r>    7.3810   -0.0000 </r>
       <r>   12.8881    0.0000 </r>
       <r>   12.8881    0.0000 </r>
       <r>   13.2551    0.0000 </r>
       <r>   13.2551    0.0000 </r>
       <r>   14.9504    0.0000 </r>
       <r>   15.3821    0.0000 </r>
       <r>   17.2522    0.0000 </r>
       <r>   17.2522    0.0000 </r>
       <r>   18.2151    0.0000 </r>
       <r>   21.1930    0.0000 </r>
       <r>   22.2293    0.0000 </r>
       <r>   23.2118    0.0000 </r>
       <r>   23.2118    0.0000 </r>
       <r>   24.9589    0.0000 </r>
       <r>   25.4019    0.0000 </r>
       <r>   25.6947    0.0000 </r>
       <r>   27.4172    0.0000 </r>
       <r>   27.4172    0.0000 </r>
       <r>   28.3611    0.0000 </r>
       <r>   30.2358    0.0000 </r>
       <r>   31.9904    0.0000 </r>
       <r>   33.8344    0.0000 </r>
       <r>   33.9819    0.0000 </r>
       <r>   35.4068    0.0000 </r>
      </set>
      <set comment="kpoint 18">
       <r>   -1.1517    1.0000 </r>
       <r>    1.3031    1.0000 </r>
       <r>    2.0193    1.0000 </r>
       <r>    2.0193    1.0000 </r>
       <r>    2.2081    1.0000 </r>
       <r>    2.2318    1.0000 </r>
       <r>    2.2318    1.0000 </r>
       <r>    2.6843    1.0000 </r>
       <r>    3.0327    1.0000 </r>
       <r>    3.0327    1.0000 </r>
       <r>    3.1174    1.0000 </r>
       <r>    3.1519    1.0000 </r>
       <r>    3.2277    1.0000 </r>
       <r>    3.4312    1.0000 </r>
       <r>    3.5964    1.0000 </r>
       <r>    3.6473    1.0000 </r>
       <r>    3.6473    1.0000 </r>
       <r>    3.6698    1.0000 </r>
       <r>    3.9438    1.0000 </r>
       <r>    4.0144    1.0000 </r>
       <r>    4.0144    1.0000 </r>
       <r>    4.3531    1.0000 </r>
       <r>    8.2191    0.0000 </r>
       <r>    8.2191    0.0000 </r>
       <r>   11.7239    0.0000 </r>
       <r>   11.7239    0.0000 </r>
       <r>   13.3782    0.0000 </r>
       <r>   13.3782    0.0000 </r>
       <r>   16.0974    0.0000 </r>
       <r>   16.1281    0.0000 </r>
       <r>   16.1281    0.0000 </r>
       <r>   17.7023    0.0000 </r>
       <r>   19.0648    0.0000 </r>
       <r>   19.6360    0.0000 </r>
       <r>   22.5819    0.0000 </r>
       <r>   23.1852    0.0000 </r>
       <r>   24.6249    0.0000 </r>
       <r>   25.4720    0.0000 </r>
       <r>   25.4720    0.0000 </r>
       <r>   25.8426    0.0000 </r>
       <r>   27.1966    0.0000 </r>
       <r>   28.2667    0.0000 </r>
       <r>   29.9507    0.0000 </r>
       <r>   29.9507    0.0000 </r>
       <r>   32.8175    0.0000 </r>
       <r>   34.9448    0.0000 </r>
       <r>   34.9448    0.0000 </r>
       <r>   35.2028    0.0000 </r>
      </set>
      <set comment="kpoint 19">
       <r>   -0.3333    1.0000 </r>
       <r>    0.5743    1.0000 </r>
       <r>    2.2004    1.0000 </r>
       <r>    2.2004    1.0000 </r>
       <r>    2.3636    1.0000 </r>
       <r>    2.3921    1.0000 </r>
       <r>    2.3921    1.0000 </r>
       <r>    2.5290    1.0000 </r>
       <r>    2.7247    1.0000 </r>
       <r>    2.7247    1.0000 </r>
       <r>    3.0689    1.0000 </r>
       <r>    3.0918    1.0000 </r>
       <r>    3.2801    1.0000 </r>
       <r>    3.4340    1.0000 </r>
       <r>    3.5377    1.0000 </r>
       <r>    3.5377    1.0000 </r>
       <r>    3.5438    1.0000 </r>
       <r>    3.7626    1.0000 </r>
       <r>    3.8265    1.0000 </r>
       <r>    3.8583    1.0000 </r>
       <r>    4.0077    1.0000 </r>
       <r>    4.0077    1.0000 </r>
       <r>    9.2024    0.0000 </r>
       <r>    9.2024    0.0000 </r>
       <r>   10.4151    0.0000 </r>
       <r>   10.4151    0.0000 </r>
       <r>   14.0571    0.0000 </r>
       <r>   14.0571    0.0000 </r>
       <r>   15.0290    0.0000 </r>
       <r>   15.0290    0.0000 </r>
       <r>   17.0740    0.0000 </r>
       <r>   18.2593    0.0000 </r>
       <r>   20.2007    0.0000 </r>
       <r>   20.6762    0.0000 </r>
       <r>   21.5860    0.0000 </r>
       <r>   23.1092    0.0000 </r>
       <r>   23.5450    0.0000 </r>
       <r>   24.1159    0.0000 </r>
       <r>   26.4870    0.0000 </r>
       <r>   27.3295    0.0000 </r>
       <r>   28.0134    0.0000 </r>
       <r>   28.0134    0.0000 </r>
       <r>   31.2381    0.0000 </r>
       <r>   31.2381    0.0000 </r>
       <r>   33.2846    0.0000 </r>
       <r>   33.2846    0.0000 </r>
       <r>   35.0365    0.0000 </r>
       <r>   36.2027    0.0000 </r>
      </set>
      <set comment="kpoint 20">
       <r>   -1.3992    1.0000 </r>
       <r>    1.7752    1.0000 </r>
       <r>    1.7752    1.0000 </r>
       <r>    1.9331    1.0000 </r>
       <r>    2.1660    1.0000 </r>
       <r>    2.1660    1.0000 </r>
       <r>    2.1661    1.0000 </r>
       <r>    2.7757    1.0000 </r>
       <r>    3.0686    1.0000 </r>
       <r>    3.0806    1.0000 </r>
       <r>    3.2014    1.0000 </r>
       <r>    3.2014    1.0000 </r>
       <r>    3.2305    1.0000 </r>
       <r>    3.4777    1.0000 </r>
       <r>    3.6219    1.0000 </r>
       <r>    3.6544    1.0000 </r>
       <r>    3.6723    1.0000 </r>
       <r>    3.6723    1.0000 </r>
       <r>    3.9948    1.0000 </r>
       <r>    3.9948    1.0000 </r>
       <r>    3.9951    1.0000 </r>
       <r>    5.9145   -0.0000 </r>
       <r>    5.9145   -0.0000 </r>
       <r>    7.9074   -0.0000 </r>
       <r>   11.4808    0.0000 </r>
       <r>   13.1951    0.0000 </r>
       <r>   13.6728    0.0000 </r>
       <r>   13.6728    0.0000 </r>
       <r>   15.2829    0.0000 </r>
       <r>   15.2829    0.0000 </r>
       <r>   17.7172    0.0000 </r>
       <r>   17.7172    0.0000 </r>
       <r>   18.7097    0.0000 </r>
       <r>   19.4359    0.0000 </r>
       <r>   22.5000    0.0000 </r>
       <r>   23.4520    0.0000 </r>
       <r>   23.4520    0.0000 </r>
       <r>   23.6158    0.0000 </r>
       <r>   27.4152    0.0000 </r>
       <r>   27.6230    0.0000 </r>
       <r>   27.6760    0.0000 </r>
       <r>   27.6760    0.0000 </r>
       <r>   29.7932    0.0000 </r>
       <r>   30.8078    0.0000 </r>
       <r>   31.2242    0.0000 </r>
       <r>   32.4650    0.0000 </r>
       <r>   34.6257    0.0000 </r>
       <r>   35.4037    0.0000 </r>
      </set>
      <set comment="kpoint 21">
       <r>   -0.7970    1.0000 </r>
       <r>    1.5054    1.0000 </r>
       <r>    1.9948    1.0000 </r>
       <r>    2.0837    1.0000 </r>
       <r>    2.2801    1.0000 </r>
       <r>    2.2849    1.0000 </r>
       <r>    2.3005    1.0000 </r>
       <r>    2.6908    1.0000 </r>
       <r>    2.8843    1.0000 </r>
       <r>    2.9865    1.0000 </r>
       <r>    2.9909    1.0000 </r>
       <r>    3.0738    1.0000 </r>
       <r>    3.1437    1.0000 </r>
       <r>    3.4711    1.0000 </r>
       <r>    3.5256    1.0000 </r>
       <r>    3.5492    1.0000 </r>
       <r>    3.5855    1.0000 </r>
       <r>    3.7305    1.0000 </r>
       <r>    3.9243    1.0000 </r>
       <r>    3.9546    1.0000 </r>
       <r>    3.9550    1.0000 </r>
       <r>    4.7885    1.0000 </r>
       <r>    6.6365   -0.0000 </r>
       <r>    8.6355    0.0000 </r>
       <r>    9.9924    0.0000 </r>
       <r>   12.1591    0.0000 </r>
       <r>   13.6894    0.0000 </r>
       <r>   14.3866    0.0000 </r>
       <r>   15.7932    0.0000 </r>
       <r>   16.5453    0.0000 </r>
       <r>   17.8688    0.0000 </r>
       <r>   18.0184    0.0000 </r>
       <r>   18.4574    0.0000 </r>
       <r>   18.4645    0.0000 </r>
       <r>   22.0684    0.0000 </r>
       <r>   23.8696    0.0000 </r>
       <r>   23.8914    0.0000 </r>
       <r>   25.7119    0.0000 </r>
       <r>   26.2706    0.0000 </r>
       <r>   27.4524    0.0000 </r>
       <r>   28.1154    0.0000 </r>
       <r>   29.6496    0.0000 </r>
       <r>   30.0724    0.0000 </r>
       <r>   31.3162    0.0000 </r>
       <r>   32.3600    0.0000 </r>
       <r>   33.0484    0.0000 </r>
       <r>   33.6805    0.0000 </r>
       <r>   35.2587    0.0000 </r>
      </set>
      <set comment="kpoint 22">
       <r>   -0.0123    1.0000 </r>
       <r>    0.8398    1.0000 </r>
       <r>    2.1998    1.0000 </r>
       <r>    2.2410    1.0000 </r>
       <r>    2.3429    1.0000 </r>
       <r>    2.3943    1.0000 </r>
       <r>    2.4255    1.0000 </r>
       <r>    2.5669    1.0000 </r>
       <r>    2.6968    1.0000 </r>
       <r>    2.7760    1.0000 </r>
       <r>    2.9392    1.0000 </r>
       <r>    3.0124    1.0000 </r>
       <r>    3.2398    1.0000 </r>
       <r>    3.3713    1.0000 </r>
       <r>    3.4712    1.0000 </r>
       <r>    3.4899    1.0000 </r>
       <r>    3.5896    1.0000 </r>
       <r>    3.7886    1.0000 </r>
       <r>    3.8828    1.0000 </r>
       <r>    3.9304    1.0000 </r>
       <r>    3.9305    1.0000 </r>
       <r>    4.1564    1.0000 </r>
       <r>    7.5110   -0.0000 </r>
       <r>    8.5311    0.0000 </r>
       <r>    9.7603    0.0000 </r>
       <r>   10.8440    0.0000 </r>
       <r>   14.4139    0.0000 </r>
       <r>   15.3355    0.0000 </r>
       <r>   15.3655    0.0000 </r>
       <r>   16.5001    0.0000 </r>
       <r>   16.5622    0.0000 </r>
       <r>   17.4860    0.0000 </r>
       <r>   19.4605    0.0000 </r>
       <r>   20.6721    0.0000 </r>
       <r>   20.9928    0.0000 </r>
       <r>   24.1142    0.0000 </r>
       <r>   24.4893    0.0000 </r>
       <r>   25.3589    0.0000 </r>
       <r>   26.3327    0.0000 </r>
       <r>   27.8364    0.0000 </r>
       <r>   28.7298    0.0000 </r>
       <r>   29.4448    0.0000 </r>
       <r>   30.2294    0.0000 </r>
       <r>   31.9023    0.0000 </r>
       <r>   32.6623    0.0000 </r>
       <r>   33.7538    0.0000 </r>
       <r>   34.0524    0.0000 </r>
       <r>   34.4240    0.0000 </r>
      </set>
      <set comment="kpoint 23">
       <r>   -0.2332    1.0000 </r>
       <r>    1.7664    1.0000 </r>
       <r>    1.7664    1.0000 </r>
       <r>    2.1127    1.0000 </r>
       <r>    2.3927    1.0000 </r>
       <r>    2.4169    1.0000 </r>
       <r>    2.4169    1.0000 </r>
       <r>    2.6744    1.0000 </r>
       <r>    2.7825    1.0000 </r>
       <r>    2.7825    1.0000 </r>
       <r>    2.9025    1.0000 </r>
       <r>    3.0342    1.0000 </r>
       <r>    3.1578    1.0000 </r>
       <r>    3.4415    1.0000 </r>
       <r>    3.4623    1.0000 </r>
       <r>    3.4623    1.0000 </r>
       <r>    3.4684    1.0000 </r>
       <r>    3.8628    1.0000 </r>
       <r>    3.8628    1.0000 </r>
       <r>    3.8845    1.0000 </r>
       <r>    3.8934    1.0000 </r>
       <r>    5.3653    0.5465 </r>
       <r>    5.3653    0.5465 </r>
       <r>    8.2604    0.0000 </r>
       <r>    9.5503    0.0000 </r>
       <r>   12.8549    0.0000 </r>
       <r>   12.8549    0.0000 </r>
       <r>   14.2236    0.0000 </r>
       <r>   16.2987    0.0000 </r>
       <r>   17.1969    0.0000 </r>
       <r>   17.1969    0.0000 </r>
       <r>   18.5538    0.0000 </r>
       <r>   18.5538    0.0000 </r>
       <r>   20.3096    0.0000 </r>
       <r>   20.5740    0.0000 </r>
       <r>   23.2010    0.0000 </r>
       <r>   26.1058    0.0000 </r>
       <r>   26.1058    0.0000 </r>
       <r>   27.3368    0.0000 </r>
       <r>   27.5028    0.0000 </r>
       <r>   29.5120    0.0000 </r>
       <r>   29.9141    0.0000 </r>
       <r>   30.1541    0.0000 </r>
       <r>   30.1541    0.0000 </r>
       <r>   32.7127    0.0000 </r>
       <r>   32.7127    0.0000 </r>
       <r>   33.5232    0.0000 </r>
       <r>   34.8830    0.0000 </r>
      </set>
      <set comment="kpoint 24">
       <r>    0.4804    1.0000 </r>
       <r>    1.2161    1.0000 </r>
       <r>    1.9833    1.0000 </r>
       <r>    2.0920    1.0000 </r>
       <r>    2.4961    1.0000 </r>
       <r>    2.5335    1.0000 </r>
       <r>    2.5389    1.0000 </r>
       <r>    2.6208    1.0000 </r>
       <r>    2.6965    1.0000 </r>
       <r>    2.8006    1.0000 </r>
       <r>    2.8283    1.0000 </r>
       <r>    2.9494    1.0000 </r>
       <r>    3.2102    1.0000 </r>
       <r>    3.3205    1.0000 </r>
       <r>    3.3713    1.0000 </r>
       <r>    3.3900    1.0000 </r>
       <r>    3.5533    1.0000 </r>
       <r>    3.7181    1.0000 </r>
       <r>    3.8225    1.0000 </r>
       <r>    3.8313    1.0000 </r>
       <r>    4.1366    1.0000 </r>
       <r>    4.5583    1.0000 </r>
       <r>    6.1050   -0.0000 </r>
       <r>    7.0684   -0.0000 </r>
       <r>   10.4163    0.0000 </r>
       <r>   11.5301    0.0000 </r>
       <r>   13.7860    0.0000 </r>
       <r>   14.9364    0.0000 </r>
       <r>   14.9925    0.0000 </r>
       <r>   15.9947    0.0000 </r>
       <r>   18.1086    0.0000 </r>
       <r>   19.2400    0.0000 </r>
       <r>   19.2882    0.0000 </r>
       <r>   20.1300    0.0000 </r>
       <r>   21.5114    0.0000 </r>
       <r>   24.6146    0.0000 </r>
       <r>   24.9115    0.0000 </r>
       <r>   26.6241    0.0000 </r>
       <r>   27.1533    0.0000 </r>
       <r>   27.1726    0.0000 </r>
       <r>   29.7036    0.0000 </r>
       <r>   29.9912    0.0000 </r>
       <r>   30.0190    0.0000 </r>
       <r>   31.4919    0.0000 </r>
       <r>   32.2689    0.0000 </r>
       <r>   32.4934    0.0000 </r>
       <r>   33.8665    0.0000 </r>
       <r>   34.1780    0.0000 </r>
      </set>
      <set comment="kpoint 25">
       <r>    1.0608    1.0000 </r>
       <r>    1.5963    1.0000 </r>
       <r>    1.5963    1.0000 </r>
       <r>    1.8878    1.0000 </r>
       <r>    2.6484    1.0000 </r>
       <r>    2.6678    1.0000 </r>
       <r>    2.6731    1.0000 </r>
       <r>    2.6731    1.0000 </r>
       <r>    2.7489    1.0000 </r>
       <r>    2.7489    1.0000 </r>
       <r>    2.7772    1.0000 </r>
       <r>    2.8791    1.0000 </r>
       <r>    3.2001    1.0000 </r>
       <r>    3.2706    1.0000 </r>
       <r>    3.2706    1.0000 </r>
       <r>    3.2816    1.0000 </r>
       <r>    3.5757    1.0000 </r>
       <r>    3.6882    1.0000 </r>
       <r>    3.6882    1.0000 </r>
       <r>    3.7347    1.0000 </r>
       <r>    4.5026    1.0000 </r>
       <r>    5.1060    1.0006 </r>
       <r>    5.1060    1.0006 </r>
       <r>    5.9155   -0.0000 </r>
       <r>   11.3237    0.0000 </r>
       <r>   12.4478    0.0000 </r>
       <r>   12.4478    0.0000 </r>
       <r>   13.5845    0.0000 </r>
       <r>   15.8079    0.0000 </r>
       <r>   16.8554    0.0000 </r>
       <r>   16.8554    0.0000 </r>
       <r>   17.9439    0.0000 </r>
       <r>   22.1955    0.0000 </r>
       <r>   22.1955    0.0000 </r>
       <r>   22.3905    0.0000 </r>
       <r>   24.2698    0.0000 </r>
       <r>   24.8657    0.0000 </r>
       <r>   25.7443    0.0000 </r>
       <r>   26.2681    0.0000 </r>
       <r>   26.2681    0.0000 </r>
       <r>   30.4419    0.0000 </r>
       <r>   30.4419    0.0000 </r>
       <r>   31.0095    0.0000 </r>
       <r>   31.2709    0.0000 </r>
       <r>   33.0292    0.0000 </r>
       <r>   33.4026    0.0000 </r>
       <r>   33.7200    0.0000 </r>
       <r>   33.7200    0.0000 </r>
      </set>
      <set comment="kpoint 26">
       <r>   -1.0395    1.0000 </r>
       <r>    1.8747    1.0000 </r>
       <r>    1.8747    1.0000 </r>
       <r>    1.8747    1.0000 </r>
       <r>    2.2537    1.0000 </r>
       <r>    2.2537    1.0000 </r>
       <r>    2.2537    1.0000 </r>
       <r>    2.7739    1.0000 </r>
       <r>    3.0674    1.0000 </r>
       <r>    3.0674    1.0000 </r>
       <r>    3.0786    1.0000 </r>
       <r>    3.0786    1.0000 </r>
       <r>    3.0786    1.0000 </r>
       <r>    3.5212    1.0000 </r>
       <r>    3.5212    1.0000 </r>
       <r>    3.5212    1.0000 </r>
       <r>    3.5827    1.0000 </r>
       <r>    3.5827    1.0000 </r>
       <r>    4.0171    1.0000 </r>
       <r>    4.0171    1.0000 </r>
       <r>    4.0171    1.0000 </r>
       <r>    6.3472   -0.0000 </r>
       <r>    6.3472   -0.0000 </r>
       <r>    6.3472   -0.0000 </r>
       <r>   11.9194    0.0000 </r>
       <r>   11.9194    0.0000 </r>
       <r>   11.9194    0.0000 </r>
       <r>   15.5990    0.0000 </r>
       <r>   15.5990    0.0000 </r>
       <r>   15.5990    0.0000 </r>
       <r>   17.6538    0.0000 </r>
       <r>   19.1988    0.0000 </r>
       <r>   19.1988    0.0000 </r>
       <r>   19.1988    0.0000 </r>
       <r>   22.6895    0.0000 </r>
       <r>   22.6895    0.0000 </r>
       <r>   22.6895    0.0000 </r>
       <r>   25.7244    0.0000 </r>
       <r>   25.7244    0.0000 </r>
       <r>   26.3547    0.0000 </r>
       <r>   30.0519    0.0000 </r>
       <r>   30.0519    0.0000 </r>
       <r>   30.0519    0.0000 </r>
       <r>   31.5847    0.0000 </r>
       <r>   31.5847    0.0000 </r>
       <r>   31.9775    0.0000 </r>
       <r>   34.8825    0.0000 </r>
       <r>   34.8825    0.0000 </r>
      </set>
      <set comment="kpoint 27">
       <r>   -0.4654    1.0000 </r>
       <r>    1.6146    1.0000 </r>
       <r>    1.9823    1.0000 </r>
       <r>    1.9823    1.0000 </r>
       <r>    2.3847    1.0000 </r>
       <r>    2.3847    1.0000 </r>
       <r>    2.3903    1.0000 </r>
       <r>    2.7362    1.0000 </r>
       <r>    2.9238    1.0000 </r>
       <r>    2.9238    1.0000 </r>
       <r>    2.9321    1.0000 </r>
       <r>    3.0563    1.0000 </r>
       <r>    3.0845    1.0000 </r>
       <r>    3.3747    1.0000 </r>
       <r>    3.4281    1.0000 </r>
       <r>    3.4281    1.0000 </r>
       <r>    3.5975    1.0000 </r>
       <r>    3.7099    1.0000 </r>
       <r>    3.9830    1.0000 </r>
       <r>    3.9830    1.0000 </r>
       <r>    3.9981    1.0000 </r>
       <r>    5.0810    1.0002 </r>
       <r>    6.9702   -0.0000 </r>
       <r>    6.9702   -0.0000 </r>
       <r>   10.4143    0.0000 </r>
       <r>   10.4143    0.0000 </r>
       <r>   12.6192    0.0000 </r>
       <r>   16.0766    0.0000 </r>
       <r>   16.1350    0.0000 </r>
       <r>   16.1350    0.0000 </r>
       <r>   18.3393    0.0000 </r>
       <r>   18.8743    0.0000 </r>
       <r>   18.8743    0.0000 </r>
       <r>   19.9945    0.0000 </r>
       <r>   23.0242    0.0000 </r>
       <r>   23.9662    0.0000 </r>
       <r>   24.1041    0.0000 </r>
       <r>   24.1041    0.0000 </r>
       <r>   25.0421    0.0000 </r>
       <r>   27.1626    0.0000 </r>
       <r>   29.5332    0.0000 </r>
       <r>   30.4800    0.0000 </r>
       <r>   32.1792    0.0000 </r>
       <r>   32.3510    0.0000 </r>
       <r>   32.3570    0.0000 </r>
       <r>   32.3570    0.0000 </r>
       <r>   34.0731    0.0000 </r>
       <r>   34.0731    0.0000 </r>
      </set>
      <set comment="kpoint 28">
       <r>    0.2671    1.0000 </r>
       <r>    1.0330    1.0000 </r>
       <r>    2.0587    1.0000 </r>
       <r>    2.0587    1.0000 </r>
       <r>    2.4617    1.0000 </r>
       <r>    2.4617    1.0000 </r>
       <r>    2.5359    1.0000 </r>
       <r>    2.6546    1.0000 </r>
       <r>    2.8587    1.0000 </r>
       <r>    2.8587    1.0000 </r>
       <r>    2.9104    1.0000 </r>
       <r>    2.9882    1.0000 </r>
       <r>    3.1428    1.0000 </r>
       <r>    3.2430    1.0000 </r>
       <r>    3.3625    1.0000 </r>
       <r>    3.3625    1.0000 </r>
       <r>    3.7902    1.0000 </r>
       <r>    3.8332    1.0000 </r>
       <r>    3.9340    1.0000 </r>
       <r>    3.9453    1.0000 </r>
       <r>    3.9453    1.0000 </r>
       <r>    4.2489    1.0000 </r>
       <r>    7.6703   -0.0000 </r>
       <r>    7.6703   -0.0000 </r>
       <r>    9.2686    0.0000 </r>
       <r>    9.2686    0.0000 </r>
       <r>   13.5547    0.0000 </r>
       <r>   14.7094    0.0000 </r>
       <r>   16.8884    0.0000 </r>
       <r>   16.8884    0.0000 </r>
       <r>   17.8583    0.0000 </r>
       <r>   17.8583    0.0000 </r>
       <r>   21.0725    0.0000 </r>
       <r>   21.2920    0.0000 </r>
       <r>   22.4056    0.0000 </r>
       <r>   23.5346    0.0000 </r>
       <r>   24.0288    0.0000 </r>
       <r>   24.5909    0.0000 </r>
       <r>   26.3671    0.0000 </r>
       <r>   26.3671    0.0000 </r>
       <r>   30.6132    0.0000 </r>
       <r>   30.6132    0.0000 </r>
       <r>   31.0391    0.0000 </r>
       <r>   31.1643    0.0000 </r>
       <r>   32.2352    0.0000 </r>
       <r>   32.9986    0.0000 </r>
       <r>   34.0314    0.0000 </r>
       <r>   34.0322    0.0000 </r>
      </set>
      <set comment="kpoint 29">
       <r>    0.0501    1.0000 </r>
       <r>    1.7274    1.0000 </r>
       <r>    1.7274    1.0000 </r>
       <r>    1.9383    1.0000 </r>
       <r>    2.5127    1.0000 </r>
       <r>    2.5501    1.0000 </r>
       <r>    2.5501    1.0000 </r>
       <r>    2.7908    1.0000 </r>
       <r>    2.8798    1.0000 </r>
       <r>    2.8798    1.0000 </r>
       <r>    2.9655    1.0000 </r>
       <r>    3.0290    1.0000 </r>
       <r>    3.0598    1.0000 </r>
       <r>    3.2907    1.0000 </r>
       <r>    3.2907    1.0000 </r>
       <r>    3.3025    1.0000 </r>
       <r>    3.6313    1.0000 </r>
       <r>    3.8312    1.0000 </r>
       <r>    3.9595    1.0000 </r>
       <r>    3.9715    1.0000 </r>
       <r>    3.9715    1.0000 </r>
       <r>    5.5697   -0.0083 </r>
       <r>    5.5697   -0.0083 </r>
       <r>    7.3474   -0.0000 </r>
       <r>    9.1007    0.0000 </r>
       <r>   11.0924    0.0000 </r>
       <r>   11.0924    0.0000 </r>
       <r>   14.4988    0.0000 </r>
       <r>   16.6917    0.0000 </r>
       <r>   18.8749    0.0000 </r>
       <r>   18.8749    0.0000 </r>
       <r>   19.5537    0.0000 </r>
       <r>   19.5537    0.0000 </r>
       <r>   20.7413    0.0000 </r>
       <r>   22.9310    0.0000 </r>
       <r>   23.3664    0.0000 </r>
       <r>   24.4732    0.0000 </r>
       <r>   24.4732    0.0000 </r>
       <r>   26.4529    0.0000 </r>
       <r>   26.5349    0.0000 </r>
       <r>   28.9728    0.0000 </r>
       <r>   30.2385    0.0000 </r>
       <r>   31.8268    0.0000 </r>
       <r>   31.8268    0.0000 </r>
       <r>   33.3265    0.0000 </r>
       <r>   33.6139    0.0000 </r>
       <r>   33.6139    0.0000 </r>
       <r>   33.8141    0.0000 </r>
      </set>
      <set comment="kpoint 30">
       <r>    0.6747    1.0000 </r>
       <r>    1.2782    1.0000 </r>
       <r>    1.8139    1.0000 </r>
       <r>    1.8807    1.0000 </r>
       <r>    2.6038    1.0000 </r>
       <r>    2.6300    1.0000 </r>
       <r>    2.7256    1.0000 </r>
       <r>    2.8094    1.0000 </r>
       <r>    2.8822    1.0000 </r>
       <r>    2.9366    1.0000 </r>
       <r>    2.9565    1.0000 </r>
       <r>    2.9951    1.0000 </r>
       <r>    3.0873    1.0000 </r>
       <r>    3.1697    1.0000 </r>
       <r>    3.2334    1.0000 </r>
       <r>    3.2387    1.0000 </r>
       <r>    3.7414    1.0000 </r>
       <r>    3.8953    1.0000 </r>
       <r>    3.9186    1.0000 </r>
       <r>    3.9215    1.0000 </r>
       <r>    4.0623    1.0000 </r>
       <r>    4.5824    1.0000 </r>
       <r>    6.2439   -0.0000 </r>
       <r>    7.0429   -0.0000 </r>
       <r>    8.9664    0.0000 </r>
       <r>    9.8412    0.0000 </r>
       <r>   12.0051    0.0000 </r>
       <r>   13.1415    0.0000 </r>
       <r>   17.4743    0.0000 </r>
       <r>   18.4636    0.0000 </r>
       <r>   19.6192    0.0000 </r>
       <r>   20.4751    0.0000 </r>
       <r>   20.4887    0.0000 </r>
       <r>   21.6137    0.0000 </r>
       <r>   21.8063    0.0000 </r>
       <r>   24.7876    0.0000 </r>
       <r>   25.0122    0.0000 </r>
       <r>   25.0237    0.0000 </r>
       <r>   25.7233    0.0000 </r>
       <r>   26.2829    0.0000 </r>
       <r>   29.7515    0.0000 </r>
       <r>   29.7957    0.0000 </r>
       <r>   30.8717    0.0000 </r>
       <r>   31.0159    0.0000 </r>
       <r>   31.0972    0.0000 </r>
       <r>   33.1537    0.0000 </r>
       <r>   33.9688    0.0000 </r>
       <r>   34.1584    0.0000 </r>
      </set>
      <set comment="kpoint 31">
       <r>    1.1177    1.0000 </r>
       <r>    1.5058    1.0000 </r>
       <r>    1.5058    1.0000 </r>
       <r>    1.7002    1.0000 </r>
       <r>    2.7299    1.0000 </r>
       <r>    2.7971    1.0000 </r>
       <r>    2.7971    1.0000 </r>
       <r>    2.9057    1.0000 </r>
       <r>    2.9758    1.0000 </r>
       <r>    2.9928    1.0000 </r>
       <r>    2.9928    1.0000 </r>
       <r>    3.0680    1.0000 </r>
       <r>    3.0744    1.0000 </r>
       <r>    3.1331    1.0000 </r>
       <r>    3.1331    1.0000 </r>
       <r>    3.1432    1.0000 </r>
       <r>    3.7364    1.0000 </r>
       <r>    3.8369    1.0000 </r>
       <r>    3.8369    1.0000 </r>
       <r>    3.8573    1.0000 </r>
       <r>    4.4353    1.0000 </r>
       <r>    5.1265    1.0015 </r>
       <r>    5.1265    1.0015 </r>
       <r>    5.9599   -0.0000 </r>
       <r>    9.6655    0.0000 </r>
       <r>   10.7038    0.0000 </r>
       <r>   10.7038    0.0000 </r>
       <r>   11.8057    0.0000 </r>
       <r>   18.2857    0.0000 </r>
       <r>   19.3124    0.0000 </r>
       <r>   19.3124    0.0000 </r>
       <r>   20.3793    0.0000 </r>
       <r>   22.4869    0.0000 </r>
       <r>   22.4869    0.0000 </r>
       <r>   22.7412    0.0000 </r>
       <r>   24.3620    0.0000 </r>
       <r>   25.0451    0.0000 </r>
       <r>   25.6007    0.0000 </r>
       <r>   25.9369    0.0000 </r>
       <r>   25.9369    0.0000 </r>
       <r>   29.3900    0.0000 </r>
       <r>   29.5153    0.0000 </r>
       <r>   29.5153    0.0000 </r>
       <r>   30.5849    0.0000 </r>
       <r>   31.3650    0.0000 </r>
       <r>   32.2302    0.0000 </r>
       <r>   32.6474    0.0000 </r>
       <r>   32.6474    0.0000 </r>
      </set>
      <set comment="kpoint 32">
       <r>    0.4674    1.0000 </r>
       <r>    1.6818    1.0000 </r>
       <r>    1.6818    1.0000 </r>
       <r>    1.6818    1.0000 </r>
       <r>    2.6804    1.0000 </r>
       <r>    2.6804    1.0000 </r>
       <r>    2.6804    1.0000 </r>
       <r>    2.9983    1.0000 </r>
       <r>    3.0080    1.0000 </r>
       <r>    3.0080    1.0000 </r>
       <r>    3.0433    1.0000 </r>
       <r>    3.0433    1.0000 </r>
       <r>    3.0433    1.0000 </r>
       <r>    3.1674    1.0000 </r>
       <r>    3.1674    1.0000 </r>
       <r>    3.1674    1.0000 </r>
       <r>    3.7828    1.0000 </r>
       <r>    3.7828    1.0000 </r>
       <r>    3.9958    1.0000 </r>
       <r>    3.9958    1.0000 </r>
       <r>    3.9958    1.0000 </r>
       <r>    5.9110   -0.0000 </r>
       <r>    5.9110   -0.0000 </r>
       <r>    5.9110   -0.0000 </r>
       <r>    9.6474    0.0000 </r>
       <r>    9.6474    0.0000 </r>
       <r>    9.6474    0.0000 </r>
       <r>   12.9275    0.0000 </r>
       <r>   19.4172    0.0000 </r>
       <r>   19.4172    0.0000 </r>
       <r>   19.4172    0.0000 </r>
       <r>   21.4510    0.0000 </r>
       <r>   21.4510    0.0000 </r>
       <r>   21.4510    0.0000 </r>
       <r>   23.6605    0.0000 </r>
       <r>   23.6605    0.0000 </r>
[...]
       <r>   29.9200    0.0000 </r>
       <r>   29.9200    0.0000 </r>
       <r>   30.1172    0.0000 </r>
       <r>   31.1307    0.0000 </r>
       <r>   31.2768    0.0000 </r>
       <r>   32.3754    0.0000 </r>
       <r>   33.1839    0.0000 </r>
      </set>
      <set comment="kpoint 34">
       <r>    1.1866    1.0000 </r>
       <r>    1.4238    1.0000 </r>
       <r>    1.4238    1.0000 </r>
       <r>    1.5220    1.0000 </r>
       <r>    2.8242    1.0000 </r>
       <r>    2.8586    1.0000 </r>
       <r>    2.8586    1.0000 </r>
       <r>    2.9345    1.0000 </r>
       <r>    2.9752    1.0000 </r>
       <r>    3.0131    1.0000 </r>
       <r>    3.0131    1.0000 </r>
       <r>    3.0258    1.0000 </r>
       <r>    3.4130    1.0000 </r>
       <r>    3.4130    1.0000 </r>
       <r>    3.4214    1.0000 </r>
       <r>    3.4977    1.0000 </r>
       <r>    3.8700    1.0000 </r>
       <r>    3.9469    1.0000 </r>
       <r>    3.9469    1.0000 </r>
       <r>    3.9478    1.0000 </r>
       <r>    4.3243    1.0000 </r>
       <r>    5.1627    1.0061 </r>
       <r>    5.1627    1.0061 </r>
       <r>    5.8213   -0.0000 </r>
       <r>    8.5924    0.0000 </r>
       <r>    9.3179    0.0000 </r>
       <r>    9.3179    0.0000 </r>
       <r>   10.3107    0.0000 </r>
       <r>   20.9442    0.0000 </r>
       <r>   21.8932    0.0000 </r>
       <r>   21.8932    0.0000 </r>
       <r>   22.8980    0.0000 </r>
       <r>   22.9643    0.0000 </r>
       <r>   22.9643    0.0000 </r>
       <r>   23.3066    0.0000 </r>
       <r>   24.5227    0.0000 </r>
       <r>   25.1356    0.0000 </r>
       <r>   25.3050    0.0000 </r>
       <r>   25.3050    0.0000 </r>
       <r>   25.3709    0.0000 </r>
       <r>   28.3032    0.0000 </r>
       <r>   29.0632    0.0000 </r>
       <r>   29.0632    0.0000 </r>
       <r>   29.6154    0.0000 </r>
       <r>   29.9282    0.0000 </r>
       <r>   30.9052    0.0000 </r>
       <r>   31.0530    0.0000 </r>
       <r>   31.0530    0.0000 </r>
      </set>
      <set comment="kpoint 35">
       <r>    1.2687    1.0000 </r>
       <r>    1.3774    1.0000 </r>
       <r>    1.3774    1.0000 </r>
       <r>    1.3774    1.0000 </r>
       <r>    2.8982    1.0000 </r>
       <r>    2.8982    1.0000 </r>
       <r>    2.8982    1.0000 </r>
       <r>    2.9351    1.0000 </r>
       <r>    2.9351    1.0000 </r>
       <r>    2.9530    1.0000 </r>
       <r>    2.9530    1.0000 </r>
       <r>    2.9530    1.0000 </r>
       <r>    3.7521    1.0000 </r>
       <r>    3.7521    1.0000 </r>
       <r>    3.7521    1.0000 </r>
       <r>    3.9560    1.0000 </r>
       <r>    3.9560    1.0000 </r>
       <r>    3.9830    1.0000 </r>
       <r>    3.9830    1.0000 </r>
       <r>    3.9830    1.0000 </r>
       <r>    4.4231    1.0000 </r>
       <r>    5.2058    1.0208 </r>
       <r>    5.2058    1.0208 </r>
       <r>    5.2058    1.0208 </r>
       <r>    8.4873    0.0000 </r>
       <r>    8.4873    0.0000 </r>
       <r>    8.4873    0.0000 </r>
       <r>    9.1631    0.0000 </r>
       <r>   23.5988    0.0000 </r>
       <r>   23.5988    0.0000 </r>
       <r>   23.5988    0.0000 </r>
       <r>   24.0355    0.0000 </r>
       <r>   24.0355    0.0000 </r>
       <r>   24.0355    0.0000 </r>
       <r>   24.7547    0.0000 </r>
       <r>   24.7547    0.0000 </r>
       <r>   24.7547    0.0000 </r>
       <r>   24.7688    0.0000 </r>
       <r>   24.7688    0.0000 </r>
       <r>   25.1784    0.0000 </r>
       <r>   28.1323    0.0000 </r>
       <r>   28.1323    0.0000 </r>
       <r>   28.7963    0.0000 </r>
       <r>   28.7963    0.0000 </r>
       <r>   28.7963    0.0000 </r>
       <r>   29.1773    0.0000 </r>
       <r>   29.1773    0.0000 </r>
       <r>   29.1773    0.0000 </r>
      </set>
     </set>
    </set>
   </array>
  </eigenvalues>
  <separator name="orbital magnetization" >
   <v name="MAGDIPOLOUT">      0.00000000      0.00000000      0.00000000</v>
  </separator>
  <dos>
   <i name="efermi">      5.37078440 </i>
   <total>
    <array>
     <dimension dim="1">gridpoints</dimension>
     <dimension dim="2">spin</dimension>
     <field>energy</field>
     <field>total</field>
     <field>integrated</field>
     <set>
      <set comment="spin 1">
       <r>    -4.5473     0.0000     0.0000 </r>
       <r>    -4.4006     0.0000     0.0000 </r>
       <r>    -4.2539     0.0000     0.0000 </r>
       <r>    -4.1072     0.0000     0.0000 </r>
       <r>    -3.9605     0.0000     0.0000 </r>
       <r>    -3.8138     0.0000     0.0000 </r>
       <r>    -3.6671     0.0000     0.0000 </r>
       <r>    -3.5204     0.0000     0.0000 </r>
       <r>    -3.3737    -0.0000    -0.0000 </r>
       <r>    -3.2270    -0.0000    -0.0000 </r>
       <r>    -3.0803    -0.0000    -0.0000 </r>
       <r>    -2.9336    -0.0000    -0.0000 </r>
       <r>    -2.7869    -0.0000    -0.0000 </r>
       <r>    -2.6402    -0.0007    -0.0001 </r>
       <r>    -2.4935     0.0177     0.0025 </r>
       <r>    -2.3468     0.1243     0.0207 </r>
       <r>    -2.2001     0.2380     0.0556 </r>
       <r>    -2.0533     0.1505     0.0777 </r>
       <r>    -1.9066     0.2724     0.1177 </r>
       <r>    -1.7599     0.5508     0.1985 </r>
       <r>    -1.6132     0.1663     0.2229 </r>
       <r>    -1.4665     0.2182     0.2549 </r>
       <r>    -1.3198     0.6121     0.3447 </r>
       <r>    -1.1731     0.5517     0.4256 </r>
       <r>    -1.0264     0.3861     0.4823 </r>
       <r>    -0.8797     0.4025     0.5413 </r>
       <r>    -0.7330     0.9522     0.6810 </r>
       <r>    -0.5863     0.0568     0.6894 </r>
       <r>    -0.4396     0.6474     0.7843 </r>
       <r>    -0.2929     0.9541     0.9243 </r>
       <r>    -0.1462     0.6004     1.0124 </r>
       <r>     0.0005     0.9943     1.1583 </r>
       <r>     0.1472     0.7405     1.2669 </r>
       <r>     0.2940     0.2740     1.3071 </r>
       <r>     0.4407     0.8976     1.4388 </r>
       <r>     0.5874     1.6345     1.6785 </r>
       <r>     0.7341     1.0445     1.8318 </r>
       <r>     0.8808     1.2243     2.0114 </r>
       <r>     1.0275     0.9373     2.1489 </r>
       <r>     1.1742     1.7650     2.4078 </r>
       <r>     1.3209     3.1177     2.8652 </r>
       <r>     1.4676     2.4565     3.2256 </r>
       <r>     1.6143     4.6037     3.9010 </r>
       <r>     1.7610     6.1009     4.7960 </r>
       <r>     1.9077     5.8893     5.6600 </r>
       <r>     2.0544     9.6064     7.0694 </r>
       <r>     2.2011    11.2309     8.7170 </r>
       <r>     2.3478    11.2560    10.3683 </r>
       <r>     2.4945    11.1378    12.0023 </r>
       <r>     2.6412    12.0565    13.7711 </r>
       <r>     2.7880    17.3211    16.3122 </r>
       <r>     2.9347    17.6448    18.9008 </r>
       <r>     3.0814    24.6027    22.5101 </r>
       <r>     3.2281    18.2105    25.1817 </r>
       <r>     3.3748    13.5794    27.1739 </r>
       <r>     3.5215    19.7890    30.0771 </r>
       <r>     3.6682    18.5780    32.8026 </r>
       <r>     3.8149    17.7428    35.4056 </r>
       <r>     3.9616    25.4518    39.1395 </r>
       <r>     4.1083    17.8869    41.7636 </r>
       <r>     4.2550     3.1612    42.2274 </r>
       <r>     4.4017     1.0288    42.3783 </r>
       <r>     4.5484     1.8727    42.6530 </r>
       <r>     4.6951     1.9615    42.9408 </r>
       <r>     4.8418     1.4503    43.1536 </r>
       <r>     4.9885    -0.0007    43.1535 </r>
       <r>     5.1353     2.5289    43.5245 </r>
       <r>     5.2820     2.3040    43.8625 </r>
       <r>     5.4287     1.4561    44.0761 </r>
       <r>     5.5754     0.5909    44.1628 </r>
       <r>     5.7221     0.5040    44.2367 </r>
       <r>     5.8688     1.0960    44.3975 </r>
       <r>     6.0155     2.2798    44.7320 </r>
       <r>     6.1622     1.1458    44.9001 </r>
       <r>     6.3089     1.8083    45.1654 </r>
       <r>     6.4556     0.7331    45.2729 </r>
       <r>     6.6023     1.0047    45.4203 </r>
       <r>     6.7490     0.8994    45.5523 </r>
       <r>     6.8957     0.2275    45.5857 </r>
       <r>     7.0424     1.8989    45.8642 </r>
       <r>     7.1891     1.6063    46.0999 </r>
       <r>     7.3358     0.5152    46.1755 </r>
       <r>     7.4825     1.9163    46.4566 </r>
       <r>     7.6293     0.9102    46.5901 </r>
       <r>     7.7760     0.8782    46.7190 </r>
       <r>     7.9227     0.2465    46.7551 </r>
       <r>     8.0694     0.4431    46.8201 </r>
       <r>     8.2161     0.9433    46.9585 </r>
       <r>     8.3628     1.2821    47.1466 </r>
       <r>     8.5095     1.0623    47.3024 </r>
       <r>     8.6562     2.1429    47.6168 </r>
       <r>     8.8029     1.0609    47.7725 </r>
       <r>     8.9496     0.3264    47.8204 </r>
       <r>     9.0963     1.3035    48.0116 </r>
       <r>     9.2430     1.7744    48.2719 </r>
       <r>     9.3897     2.0478    48.5723 </r>
       <r>     9.5364     0.2100    48.6031 </r>
       <r>     9.6831     0.9370    48.7406 </r>
       <r>     9.8298     1.8560    49.0129 </r>
       <r>     9.9766     1.4575    49.2267 </r>
       <r>    10.1233     0.5504    49.3075 </r>
       <r>    10.2700     0.3110    49.3531 </r>
       <r>    10.4167     2.1760    49.6723 </r>
       <r>    10.5634     2.1338    49.9854 </r>
       <r>    10.7101     0.5923    50.0723 </r>
       <r>    10.8568     1.1782    50.2451 </r>
       <r>    11.0035     0.4329    50.3086 </r>
       <r>    11.1502     1.1651    50.4795 </r>
       <r>    11.2969     0.2636    50.5182 </r>
       <r>    11.4436     0.9114    50.6519 </r>
       <r>    11.5903     2.0371    50.9508 </r>
       <r>    11.7370     1.6836    51.1978 </r>
       <r>    11.8837     1.7879    51.4601 </r>
       <r>    12.0304     1.8832    51.7363 </r>
       <r>    12.1771     0.9846    51.8808 </r>
       <r>    12.3238     0.7691    51.9936 </r>
       <r>    12.4706     1.3338    52.1893 </r>
       <r>    12.6173     1.5856    52.4219 </r>
       <r>    12.7640     0.8650    52.5488 </r>
       <r>    12.9107     2.3917    52.8997 </r>
       <r>    13.0574     0.6422    52.9939 </r>
       <r>    13.2041     2.3530    53.3391 </r>
       <r>    13.3508     2.9187    53.7673 </r>
       <r>    13.4975     0.9326    53.9041 </r>
       <r>    13.6442     1.5477    54.1312 </r>
       <r>    13.7909     2.1751    54.4503 </r>
       <r>    13.9376     0.7506    54.5604 </r>
       <r>    14.0843     1.3760    54.7622 </r>
       <r>    14.2310     1.5222    54.9856 </r>
       <r>    14.3777     1.2085    55.1629 </r>
       <r>    14.5244     1.6735    55.4084 </r>
       <r>    14.6711     0.9254    55.5441 </r>
       <r>    14.8179     0.9155    55.6784 </r>
       <r>    14.9646     3.2022    56.1482 </r>
       <r>    15.1113     2.3904    56.4989 </r>
       <r>    15.2580     0.7328    56.6064 </r>
       <r>    15.4047     3.4905    57.1185 </r>
       <r>    15.5514     1.3507    57.3167 </r>
       <r>    15.6981     0.7206    57.4224 </r>
       <r>    15.8448     1.4175    57.6303 </r>
       <r>    15.9915     1.3678    57.8310 </r>
       <r>    16.1382     3.1017    58.2860 </r>
       <r>    16.2849     1.6706    58.5311 </r>
       <r>    16.4316     0.5993    58.6190 </r>
       <r>    16.5783     3.1054    59.0746 </r>
       <r>    16.7250     1.7802    59.3358 </r>
       <r>    16.8717     1.4132    59.5431 </r>
       <r>    17.0184     1.3160    59.7361 </r>
       <r>    17.1651     1.6651    59.9804 </r>
       <r>    17.3119     2.5659    60.3569 </r>
       <r>    17.4586     1.2513    60.5404 </r>
       <r>    17.6053     2.2035    60.8637 </r>
       <r>    17.7520     1.9730    61.1532 </r>
       <r>    17.8987     2.3788    61.5021 </r>
       <r>    18.0454     2.3092    61.8409 </r>
       <r>    18.1921     1.4348    62.0514 </r>
       <r>    18.3388     1.9424    62.3364 </r>
       <r>    18.4855     2.9467    62.7687 </r>
       <r>    18.6322     2.1796    63.0884 </r>
       <r>    18.7789     1.1585    63.2584 </r>
       <r>    18.9256     1.9632    63.5464 </r>
       <r>    19.0723     0.7885    63.6621 </r>
       <r>    19.2190     1.3330    63.8576 </r>
       <r>    19.3657     2.5719    64.2350 </r>
       <r>    19.5124     1.8323    64.5038 </r>
       <r>    19.6592     2.1470    64.8188 </r>
       <r>    19.8059     0.5537    64.9000 </r>
       <r>    19.9526     0.3083    64.9452 </r>
       <r>    20.0993     1.7419    65.2007 </r>
       <r>    20.2460     2.4100    65.5543 </r>
       <r>    20.3927     1.1667    65.7255 </r>
       <r>    20.5394     2.0819    66.0309 </r>
       <r>    20.6861     1.8127    66.2968 </r>
       <r>    20.8328     0.9319    66.4335 </r>
       <r>    20.9795     1.0793    66.5919 </r>
       <r>    21.1262     1.8808    66.8678 </r>
       <r>    21.2729     1.0811    67.0264 </r>
       <r>    21.4196     1.2588    67.2111 </r>
       <r>    21.5663     1.8837    67.4874 </r>
       <r>    21.7130     1.3882    67.6911 </r>
       <r>    21.8597     1.4973    67.9108 </r>
       <r>    22.0064     1.2609    68.0957 </r>
       <r>    22.1532     1.7015    68.3454 </r>
       <r>    22.2999     2.0259    68.6426 </r>
       <r>    22.4466     2.0999    68.9506 </r>
       <r>    22.5933     2.1100    69.2602 </r>
       <r>    22.7400     0.8683    69.3876 </r>
       <r>    22.8867     0.8768    69.5162 </r>
       <r>    23.0334     2.8672    69.9368 </r>
       <r>    23.1801     2.0284    70.2344 </r>
       <r>    23.3268     1.8130    70.5004 </r>
       <r>    23.4735     1.6817    70.7471 </r>
       <r>    23.6202     2.1466    71.0620 </r>
       <r>    23.7669     2.0150    71.3577 </r>
       <r>    23.9136     2.3964    71.7092 </r>
       <r>    24.0603     2.6123    72.0925 </r>
       <r>    24.2070     2.9814    72.5299 </r>
       <r>    24.3537     1.0261    72.6804 </r>
       <r>    24.5004     2.7181    73.0791 </r>
       <r>    24.6472     3.4008    73.5781 </r>
       <r>    24.7939     2.5056    73.9457 </r>
       <r>    24.9406     2.5757    74.3235 </r>
       <r>    25.0873     4.2554    74.9478 </r>
       <r>    25.2340     2.9214    75.3764 </r>
       <r>    25.3807     2.2263    75.7030 </r>
       <r>    25.5274     2.0292    76.0007 </r>
       <r>    25.6741     1.3858    76.2040 </r>
       <r>    25.8208     3.4450    76.7094 </r>
       <r>    25.9675     2.1684    77.0275 </r>
       <r>    26.1142     1.0645    77.1837 </r>
       <r>    26.2609     1.6623    77.4276 </r>
       <r>    26.4076     4.8359    78.1370 </r>
       <r>    26.5543     1.9748    78.4267 </r>
       <r>    26.7010     1.1906    78.6014 </r>
       <r>    26.8477     1.5485    78.8286 </r>
       <r>    26.9945     0.3958    78.8866 </r>
       <r>    27.1412     1.2814    79.0746 </r>
       <r>    27.2879     2.7160    79.4731 </r>
       <r>    27.4346     3.0957    79.9272 </r>
       <r>    27.5813     2.3920    80.2782 </r>
       <r>    27.7280     2.2342    80.6059 </r>
       <r>    27.8747     1.9915    80.8981 </r>
       <r>    28.0214     0.9339    81.0351 </r>
       <r>    28.1681     2.2648    81.3674 </r>
       <r>    28.3148     1.6621    81.6112 </r>
       <r>    28.4615     2.4193    81.9662 </r>
       <r>    28.6082     0.1811    81.9927 </r>
       <r>    28.7549     1.3102    82.1849 </r>
       <r>    28.9016     0.9837    82.3293 </r>
       <r>    29.0483     0.8006    82.4467 </r>
       <r>    29.1950     1.1783    82.6196 </r>
       <r>    29.3417     0.9771    82.7629 </r>
       <r>    29.4885     1.9567    83.0500 </r>
       <r>    29.6352     2.7485    83.4532 </r>
       <r>    29.7819     3.1428    83.9143 </r>
       <r>    29.9286     3.0517    84.3620 </r>
       <r>    30.0753     4.8051    85.0669 </r>
       <r>    30.2220     2.7844    85.4754 </r>
       <r>    30.3687     1.2240    85.6550 </r>
       <r>    30.5154     1.8466    85.9259 </r>
       <r>    30.6621     1.7465    86.1821 </r>
       <r>    30.8088     0.7350    86.2899 </r>
       <r>    30.9555     1.8802    86.5657 </r>
       <r>    31.1022     3.3498    87.0572 </r>
       <r>    31.2489     3.1423    87.5182 </r>
       <r>    31.3956     2.5342    87.8900 </r>
       <r>    31.5423     1.1506    88.0588 </r>
       <r>    31.6890     1.9627    88.3467 </r>
       <r>    31.8358     1.2389    88.5285 </r>
       <r>    31.9825     1.9744    88.8181 </r>
       <r>    32.1292     0.3056    88.8630 </r>
       <r>    32.2759     1.7646    89.1218 </r>
       <r>    32.4226     4.7945    89.8252 </r>
       <r>    32.5693     2.7704    90.2316 </r>
       <r>    32.7160     2.5843    90.6108 </r>
       <r>    32.8627     1.9148    90.8917 </r>
       <r>    33.0094     1.6393    91.1322 </r>
       <r>    33.1561     2.7463    91.5351 </r>
       <r>    33.3028     1.9134    91.8158 </r>
       <r>    33.4495     1.3147    92.0087 </r>
       <r>    33.5962     2.0100    92.3035 </r>
       <r>    33.7429     2.8699    92.7246 </r>
       <r>    33.8896     2.5977    93.1057 </r>
       <r>    34.0363     3.3692    93.5999 </r>
       <r>    34.1830     3.2763    94.0806 </r>
       <r>    34.3298     0.5804    94.1657 </r>
       <r>    34.4765     1.0532    94.3203 </r>
       <r>    34.6232     1.4103    94.5271 </r>
       <r>    34.7699     0.4568    94.5942 </r>
       <r>    34.9166     1.4223    94.8028 </r>
       <r>    35.0633     1.5349    95.0280 </r>
       <r>    35.2100     0.4503    95.0941 </r>
       <r>    35.3567     1.8081    95.3593 </r>
       <r>    35.5034     1.1310    95.5252 </r>
       <r>    35.6501     0.0404    95.5312 </r>
       <r>    35.7968     0.6994    95.6338 </r>
       <r>    35.9435     0.8168    95.7536 </r>
       <r>    36.0902     0.8162    95.8733 </r>
       <r>    36.2369     0.4105    95.9336 </r>
       <r>    36.3836     0.1039    95.9488 </r>
       <r>    36.5303    -0.0097    95.9474 </r>
       <r>    36.6771     0.0582    95.9559 </r>
       <r>    36.8238     0.1815    95.9825 </r>
       <r>    36.9705     0.0980    95.9969 </r>
       <r>    37.1172     0.0026    95.9973 </r>
       <r>    37.2639    -0.0006    95.9972 </r>
       <r>    37.4106     0.0022    95.9976 </r>
       <r>    37.5573     0.0169    96.0000 </r>
       <r>    37.7040    -0.0003    96.0000 </r>
       <r>    37.8507    -0.0000    96.0000 </r>
       <r>    37.9974    -0.0000    96.0000 </r>
       <r>    38.1441    -0.0000    96.0000 </r>
       <r>    38.2908     0.0000    96.0000 </r>
       <r>    38.4375     0.0000    96.0000 </r>
       <r>    38.5842     0.0000    96.0000 </r>
       <r>    38.7309     0.0000    96.0000 </r>
       <r>    38.8776     0.0000    96.0000 </r>
       <r>    39.0243     0.0000    96.0000 </r>
       <r>    39.1711     0.0000    96.0000 </r>
       <r>    39.3178     0.0000    96.0000 </r>
       <r>    39.4645     0.0000    96.0000 </r>
      </set>
     </set>
    </array>
   </total>
  </dos>
 </calculation>
 <structure name="finalpos" >
  <crystal>
   <varray name="basis" >
    <v>       3.85066667       0.00000000       0.00000000 </v>
    <v>       0.00000000       3.85066667       0.00000000 </v>
    <v>       0.00000000       0.00000000       3.85066667 </v>
   </varray>
   <i name="volume">     57.09627513 </i>
   <varray name="rec_basis" >
    <v>       0.25969529       0.00000000       0.00000000 </v>
    <v>       0.00000000       0.25969529       0.00000000 </v>
    <v>       0.00000000       0.00000000       0.25969529 </v>
   </varray>
  </crystal>
  <varray name="positions" >
   <v>       0.00000000       0.00000000       0.00000000 </v>
   <v>       0.00000000       0.50000000       0.50000000 </v>
   <v>       0.50000000       0.00000000       0.50000000 </v>
   <v>       0.50000000       0.50000000       0.00000000 </v>
  </varray>
 </structure>
</modeling>
