   4   4   0   0
  0.1873449E+02  0.4216000E-09  0.4216000E-09  0.4216000E-09  0.5000000E-15
  1.000000000000000E-004
  CAR 
 unknown system                          
     36.56925881     -2.70683147  301      7.85650435      1.00000000
     -2.707  0.0000E+00  0.0000E+00
     -2.576  0.0000E+00  0.0000E+00
     -2.445  0.0000E+00  0.0000E+00
     -2.314  0.0000E+00  0.0000E+00
     -2.183  0.0000E+00  0.0000E+00
     -2.052  0.0000E+00  0.0000E+00
     -1.921  0.0000E+00  0.0000E+00
     -1.790 -0.8450E-34 -0.1106E-34
     -1.659 -0.9808E-25 -0.1284E-25
     -1.529 -0.3578E-17 -0.4684E-18
     -1.398 -0.3864E-11 -0.5059E-12
     -1.267 -0.1257E-06 -0.1646E-07
     -1.136 -0.1035E-03 -0.1357E-04
     -1.005 -0.4449E-03 -0.7182E-04
     -0.874  0.1714E-01  0.2173E-02
     -0.743  0.1108E+00  0.1667E-01
     -0.612  0.2374E+00  0.4775E-01
     -0.481  0.1817E+00  0.7154E-01
     -0.350  0.1418E+00  0.9011E-01
     -0.219  0.5068E+00  0.1565E+00
     -0.088  0.4861E+00  0.2201E+00
      0.042  0.5068E-01  0.2267E+00
      0.173  0.4427E+00  0.2847E+00
      0.304  0.5698E+00  0.3593E+00
      0.435  0.6753E+00  0.4477E+00
      0.566  0.3274E+00  0.4906E+00
      0.697  0.7732E+00  0.5918E+00
      0.828  0.7698E+00  0.6926E+00
      0.959  0.4115E+00  0.7465E+00
      1.090  0.6317E+00  0.8292E+00
      1.221  0.1511E+01  0.1027E+01
      1.352  0.1082E+01  0.1169E+01
      1.483  0.1761E+01  0.1399E+01
      1.614  0.2261E+01  0.1695E+01
      1.744  0.3475E+01  0.2150E+01
      1.875  0.3222E+01  0.2572E+01
      2.006  0.6420E+01  0.3413E+01
      2.137  0.6026E+01  0.4202E+01
      2.268  0.9114E+01  0.5395E+01
      2.399  0.8018E+01  0.6444E+01
      2.530  0.8181E+01  0.7516E+01
      2.661  0.6242E+01  0.8333E+01
      2.792  0.8683E+01  0.9470E+01
      2.923  0.4222E+01  0.1002E+02
      3.054  0.5983E+01  0.1081E+02
      3.185  0.8799E+01  0.1196E+02
      3.316  0.9071E+01  0.1315E+02
      3.446  0.8582E+01  0.1427E+02
      3.577  0.9410E+01  0.1550E+02
      3.708  0.1043E+02  0.1687E+02
      3.839  0.9706E+01  0.1814E+02
      3.970  0.1423E+02  0.2000E+02
      4.101  0.1512E+02  0.2198E+02
      4.232  0.1081E+02  0.2339E+02
      4.363  0.7560E+01  0.2438E+02
      4.494  0.8576E+01  0.2551E+02
      4.625  0.7638E+01  0.2651E+02
      4.756  0.8809E+01  0.2766E+02
      4.887  0.9017E+01  0.2884E+02
      5.017  0.9673E+01  0.3011E+02
      5.148  0.1163E+02  0.3163E+02
      5.279  0.7307E+01  0.3259E+02
      5.410  0.6825E+01  0.3348E+02
      5.541  0.9227E+01  0.3469E+02
      5.672  0.7085E+01  0.3562E+02
      5.803  0.8998E+01  0.3679E+02
      5.934  0.1172E+02  0.3833E+02
      6.065  0.1269E+02  0.3999E+02
      6.196  0.9268E+01  0.4120E+02
      6.327  0.6894E+01  0.4211E+02
      6.458  0.1429E+01  0.4229E+02
      6.589  0.3375E+00  0.4234E+02
      6.719  0.5095E+00  0.4240E+02
      6.850  0.8551E+00  0.4252E+02
      6.981  0.2852E+01  0.4289E+02
      7.112  0.1247E+01  0.4305E+02
      7.243  0.1023E+01  0.4319E+02
      7.374  0.3550E+00  0.4323E+02
      7.505  0.1198E+00  0.4325E+02
      7.636  0.1849E+01  0.4349E+02
      7.767  0.2943E+01  0.4388E+02
      7.898  0.1326E+01  0.4405E+02
      8.029  0.2917E+00  0.4409E+02
      8.160  0.8495E+00  0.4420E+02
      8.290  0.7618E+00  0.4430E+02
      8.421  0.1118E+01  0.4444E+02
      8.552  0.1322E+01  0.4462E+02
      8.683  0.2197E+01  0.4491E+02
      8.814  0.6409E+00  0.4499E+02
      8.945  0.1132E+01  0.4514E+02
      9.076  0.1094E+01  0.4528E+02
      9.207  0.2001E+01  0.4554E+02
      9.338  0.6830E+00  0.4563E+02
      9.469  0.7226E+00  0.4573E+02
      9.600  0.7444E+00  0.4582E+02
      9.731  0.1460E+01  0.4602E+02
      9.862  0.1636E+01  0.4623E+02
      9.992  0.1811E+01  0.4647E+02
     10.123  0.2637E+00  0.4650E+02
     10.254  0.4116E+00  0.4656E+02
     10.385  0.9776E+00  0.4668E+02
     10.516  0.1905E+01  0.4693E+02
     10.647  0.1365E+01  0.4711E+02
     10.778  0.3136E+01  0.4752E+02
     10.909  0.4790E+00  0.4758E+02
     11.040  0.1264E+01  0.4775E+02
     11.171  0.2149E+01  0.4803E+02
     11.302  0.1823E+01  0.4827E+02
     11.433  0.7363E+00  0.4837E+02
     11.563  0.5149E+00  0.4843E+02
     11.694  0.1151E+01  0.4858E+02
     11.825  0.4836E+00  0.4865E+02
     11.956  0.7093E+00  0.4874E+02
     12.087  0.2452E+01  0.4906E+02
     12.218  0.1004E+01  0.4919E+02
     12.349  0.1849E+01  0.4944E+02
     12.480  0.1719E+01  0.4966E+02
     12.611  0.1286E+00  0.4968E+02
     12.742  0.1142E+01  0.4983E+02
     12.873  0.1543E+01  0.5003E+02
     13.004  0.2315E+01  0.5033E+02
     13.135  0.2871E+01  0.5071E+02
     13.265  0.9972E+00  0.5084E+02
     13.396  0.1092E+00  0.5085E+02
     13.527  0.1035E+01  0.5099E+02
     13.658  0.1087E+01  0.5113E+02
     13.789  0.1528E+01  0.5133E+02
     13.920  0.2105E+01  0.5161E+02
     14.051  0.1556E+01  0.5181E+02
     14.182  0.1123E+01  0.5196E+02
     14.313  0.1530E+01  0.5216E+02
     14.444  0.7657E-01  0.5217E+02
     14.575  0.1502E+01  0.5236E+02
     14.706  0.1921E+01  0.5262E+02
     14.836  0.2897E+01  0.5299E+02
     14.967  0.9330E+00  0.5312E+02
     15.098  0.3143E+00  0.5316E+02
     15.229  0.1372E+01  0.5334E+02
     15.360  0.7500E+00  0.5344E+02
     15.491  0.1000E+01  0.5357E+02
     15.622  0.9146E+00  0.5369E+02
     15.753  0.1078E+01  0.5383E+02
     15.884  0.2739E+01  0.5419E+02
     16.015  0.2250E+01  0.5448E+02
     16.146  0.2611E+01  0.5482E+02
     16.277  0.1099E+01  0.5497E+02
     16.408  0.8244E+00  0.5507E+02
     16.538  0.2109E+01  0.5535E+02
     16.669  0.8902E+00  0.5547E+02
     16.800  0.9318E+00  0.5559E+02
     16.931  0.8514E+00  0.5570E+02
     17.062  0.2723E+01  0.5606E+02
     17.193  0.3014E+01  0.5645E+02
     17.324  0.1270E+01  0.5662E+02
     17.455  0.7974E+00  0.5672E+02
     17.586  0.1771E+01  0.5695E+02
     17.717  0.2351E+01  0.5726E+02
     17.848  0.1527E+01  0.5746E+02
     17.979  0.1545E+01  0.5766E+02
     18.109  0.2517E+01  0.5799E+02
     18.240  0.2316E+01  0.5830E+02
     18.371  0.2449E+01  0.5862E+02
     18.502  0.3442E+01  0.5907E+02
     18.633  0.2161E+01  0.5935E+02
     18.764  0.2585E+01  0.5969E+02
     18.895  0.1903E+01  0.5994E+02
     19.026  0.1639E+01  0.6015E+02
     19.157  0.1253E+01  0.6032E+02
     19.288  0.2136E+01  0.6060E+02
     19.419  0.2030E+01  0.6086E+02
     19.550  0.5817E+00  0.6094E+02
     19.681  0.1608E+01  0.6115E+02
     19.811  0.3287E+01  0.6158E+02
     19.942  0.9164E+00  0.6170E+02
     20.073  0.4775E+01  0.6232E+02
     20.204  0.3580E+01  0.6279E+02
     20.335  0.7308E+00  0.6289E+02
     20.466  0.1552E+01  0.6309E+02
     20.597  0.2463E+01  0.6341E+02
     20.728  0.2225E+00  0.6344E+02
     20.859  0.2053E+01  0.6371E+02
     20.990  0.1781E+01  0.6395E+02
     21.121  0.1441E+01  0.6413E+02
     21.252  0.4777E+01  0.6476E+02
     21.383  0.2658E+01  0.6511E+02
     21.513  0.8125E+00  0.6521E+02
     21.644  0.8494E+00  0.6533E+02
     21.775  0.1688E+01  0.6555E+02
     21.906  0.2742E+01  0.6591E+02
     22.037  0.1284E+01  0.6607E+02
     22.168  0.2887E+01  0.6645E+02
     22.299  0.2545E+01  0.6678E+02
     22.430  0.2974E+01  0.6717E+02
     22.561  0.3666E+01  0.6765E+02
     22.692  0.1981E+01  0.6791E+02
     22.823  0.2001E+01  0.6818E+02
     22.954  0.1311E+01  0.6835E+02
     23.084  0.2781E+01  0.6871E+02
     23.215  0.3138E+01  0.6912E+02
     23.346  0.1538E+01  0.6932E+02
     23.477  0.2055E+01  0.6959E+02
     23.608  0.1458E+01  0.6978E+02
     23.739  0.7535E+00  0.6988E+02
     23.870  0.3418E+01  0.7033E+02
     24.001  0.3626E+01  0.7080E+02
     24.132  0.3343E+01  0.7124E+02
     24.263  0.2689E+01  0.7159E+02
     24.394  0.3342E+01  0.7203E+02
     24.525  0.3866E+01  0.7254E+02
     24.656  0.3017E+01  0.7293E+02
     24.786  0.3513E+01  0.7339E+02
     24.917  0.4008E+01  0.7392E+02
     25.048  0.4876E+01  0.7456E+02
     25.179  0.3375E+01  0.7500E+02
     25.310  0.1529E+01  0.7520E+02
     25.441  0.2987E+01  0.7559E+02
     25.572  0.2719E+01  0.7594E+02
     25.703  0.1663E+01  0.7616E+02
     25.834  0.2974E+01  0.7655E+02
     25.965  0.3572E+01  0.7702E+02
     26.096  0.3846E+01  0.7752E+02
     26.227  0.2359E+01  0.7783E+02
     26.357  0.2116E+01  0.7811E+02
     26.488  0.3059E+01  0.7851E+02
     26.619  0.2160E+01  0.7879E+02
     26.750  0.3374E+01  0.7923E+02
     26.881  0.2036E+01  0.7950E+02
     27.012  0.1806E+01  0.7974E+02
     27.143  0.2350E+01  0.8004E+02
     27.274  0.9600E+00  0.8017E+02
     27.405  0.1915E+01  0.8042E+02
     27.536  0.9094E+00  0.8054E+02
     27.667  0.1667E+01  0.8076E+02
     27.798  0.6164E+00  0.8084E+02
     27.929  0.1319E+01  0.8101E+02
     28.059  0.1915E+01  0.8126E+02
     28.190  0.2029E+01  0.8153E+02
     28.321  0.4587E+01  0.8213E+02
     28.452  0.1314E+01  0.8230E+02
     28.583  0.1508E+01  0.8250E+02
     28.714  0.2196E+01  0.8278E+02
     28.845  0.1272E+01  0.8295E+02
     28.976  0.9092E+00  0.8307E+02
     29.107  0.1167E+01  0.8322E+02
     29.238  0.2217E+01  0.8351E+02
     29.369  0.8226E+00  0.8362E+02
     29.500  0.1709E+01  0.8385E+02
     29.630  0.1212E+01  0.8400E+02
     29.761  0.1552E+01  0.8421E+02
     29.892  0.3756E+01  0.8470E+02
     30.023  0.2172E+01  0.8498E+02
     30.154  0.1594E+01  0.8519E+02
     30.285  0.1690E+01  0.8541E+02
     30.416  0.1325E+01  0.8559E+02
     30.547  0.2984E+01  0.8598E+02
     30.678  0.1311E+01  0.8615E+02
     30.809  0.4211E+01  0.8670E+02
     30.940  0.3855E+01  0.8720E+02
     31.071  0.3102E+01  0.8761E+02
     31.202  0.1778E+01  0.8784E+02
     31.332  0.3738E+01  0.8833E+02
     31.463  0.4050E+01  0.8886E+02
     31.594  0.3835E+01  0.8937E+02
     31.725  0.2236E+01  0.8966E+02
     31.856  0.1810E+01  0.8990E+02
     31.987  0.4255E+01  0.9045E+02
     32.118  0.5294E+01  0.9115E+02
     32.249  0.4981E+01  0.9180E+02
     32.380  0.5035E+01  0.9246E+02
     32.511  0.2808E+01  0.9282E+02
     32.642  0.6004E+01  0.9361E+02
     32.773  0.4434E+01  0.9419E+02
     32.903  0.1465E+01  0.9438E+02
     33.034  0.1464E+01  0.9457E+02
     33.165  0.1889E+01  0.9482E+02
     33.296  0.1525E+01  0.9502E+02
     33.427  0.2733E+01  0.9538E+02
     33.558  0.1852E+01  0.9562E+02
     33.689  0.1971E+01  0.9588E+02
     33.820 -0.8236E-01  0.9587E+02
     33.951 -0.7454E-02  0.9587E+02
     34.082  0.1187E-01  0.9587E+02
     34.213  0.2408E+00  0.9590E+02
     34.344  0.2517E+00  0.9593E+02
     34.475  0.4164E+00  0.9599E+02
     34.605  0.7281E-01  0.9600E+02
     34.736 -0.3350E-02  0.9600E+02
     34.867  0.1783E-01  0.9600E+02
     34.998  0.1439E-03  0.9600E+02
     35.129 -0.1029E-03  0.9600E+02
     35.260 -0.1257E-06  0.9600E+02
     35.391 -0.3864E-11  0.9600E+02
     35.522 -0.4653E-17  0.9600E+02
     35.653  0.0000E+00  0.9600E+02
     35.784  0.0000E+00  0.9600E+02
     35.915  0.0000E+00  0.9600E+02
     36.046  0.0000E+00  0.9600E+02
     36.176  0.0000E+00  0.9600E+02
     36.307  0.0000E+00  0.9600E+02
     36.438  0.0000E+00  0.9600E+02
     36.569  0.0000E+00  0.9600E+02
