    4    4    1    1
  0.1873449E+02  0.4216000E-09  0.4216000E-09  0.4216000E-09  0.5000000E-15
  1.000000000000000E-004
  CAR 
 unknown system                          
     44     35     48
 
  0.0000000E+00  0.0000000E+00  0.0000000E+00  0.1371742E-02
    1       -0.921555   1.000000
    2        1.738306   1.000000
    3        1.738306   1.000000
    4        1.738306   1.000000
    5        2.002221   1.000000
    6        2.002221   1.000000
    7        2.002221   1.000000
    8        3.755283   1.000000
    9        3.755283   1.000000
   10        3.755283   1.000000
   11        5.037104   1.000000
   12        5.037104   1.000000
   13        6.011995   1.000000
   14        6.011995   1.000000
   15        6.011995   1.000000
   16        6.320710   1.000000
   17        6.320710   1.000000
   18        6.320710   1.000000
   19        6.320710   1.000000
   20        6.320710   1.000000
   21        6.320710   1.000000
   22        9.256883  -0.000000
   23        9.256883  -0.000000
   24        9.256883  -0.000000
   25       13.016519   0.000000
   26       13.016519   0.000000
   27       13.016519   0.000000
   28       17.707341   0.000000
   29       17.707341   0.000000
   30       17.707341   0.000000
   31       17.707341   0.000000
   32       17.707341   0.000000
   33       17.707341   0.000000
   34       22.584748   0.000000
   35       24.179664   0.000000
   36       24.179664   0.000000
   37       24.179664   0.000000
   38       26.036294   0.000000
   39       26.036294   0.000000
   40       26.036294   0.000000
   41       26.537600   0.000000
   42       26.537600   0.000000
   43       26.537600   0.000000
   44       30.655526   0.000000
   45       34.339022   0.000000
   46       34.339029   0.000000
   47       34.339174   0.000000
   48       34.783982   0.000000
 
  0.1111111E+00  0.0000000E+00  0.0000000E+00  0.8230453E-02
    1       -0.789267   1.000000
    2        1.779031   1.000000
    3        1.822976   1.000000
    4        1.822976   1.000000
    5        2.047673   1.000000
    6        2.071394   1.000000
    7        2.071394   1.000000
    8        3.692906   1.000000
    9        3.811004   1.000000
   10        3.811004   1.000000
   11        4.971319   1.000000
   12        5.064328   1.000000
   13        5.918559   1.000000
   14        5.918559   1.000000
   15        5.945948   1.000000
   16        5.945948   1.000000
   17        5.980188   1.000000
   18        6.206684   1.000000
   19        6.206684   1.000000
   20        6.320902   1.000000
   21        6.320902   1.000000
   22        8.287602  -0.000000
   23        9.729232  -0.000000
   24        9.729232  -0.000000
   25       12.909257   0.000000
   26       12.909257   0.000000
   27       14.217863   0.000000
   28       17.470193   0.000000
   29       17.470193   0.000000
   30       17.547446   0.000000
   31       17.547446   0.000000
   32       17.971043   0.000000
   33       17.971043   0.000000
   34       22.723932   0.000000
   35       24.101691   0.000000
   36       24.771862   0.000000
   37       24.771862   0.000000
   38       25.557148   0.000000
   39       25.890721   0.000000
   40       25.890721   0.000000
   41       26.440328   0.000000
   42       26.713994   0.000000
   43       26.713994   0.000000
   44       31.505881   0.000000
   45       33.128722   0.000000
   46       33.128722   0.000000
   47       34.250162   0.000000
   48       34.471356   0.000000
 
  0.2222222E+00  0.0000000E+00  0.0000000E+00  0.8230453E-02
    1       -0.400516   1.000000
    2        1.872412   1.000000
    3        2.060251   1.000000
    4        2.060251   1.000000
    5        2.180630   1.000000
    6        2.278414   1.000000
    7        2.278414   1.000000
    8        3.517531   1.000000
    9        3.976247   1.000000
   10        3.976247   1.000000
   11        4.790201   1.000000
   12        5.143395   1.000000
   13        5.195002   1.000000
   14        5.195002   1.000000
   15        5.654269   1.000000
   16        5.654269   1.000000
   17        5.889451   1.000000
   18        5.899794   1.000000
   19        5.899794   1.000000
   20        6.321370   1.000000
   21        6.321370   1.000000
   22        6.694139   1.000000
   23       10.767387   0.000000
   24       10.767387   0.000000
   25       12.650473   0.000000
   26       12.650473   0.000000
   27       16.528514   0.000000
   28       16.803811   0.000000
   29       16.803811   0.000000
   30       17.237070   0.000000
   31       17.237070   0.000000
   32       18.721050   0.000000
   33       18.721050   0.000000
   34       23.118564   0.000000
   35       23.908944   0.000000
   36       24.723076   0.000000
   37       25.335442   0.000000
   38       25.335442   0.000000
   39       26.152331   0.000000
   40       26.307197   0.000000
   41       26.307197   0.000000
   42       27.232578   0.000000
   43       27.232578   0.000000
   44       31.258307   0.000000
   45       32.084051   0.000000
   46       32.084051   0.000000
   47       33.567010   0.000000
   48       33.567351   0.000000
 
  0.3333333E+00  0.0000000E+00  0.0000000E+00  0.8230453E-02
    1        0.213555   1.000000
    2        1.904717   1.000000
    3        2.388854   1.000000
    4        2.388854   1.000000
    5        2.390540   1.000000
    6        2.621649   1.000000
    7        2.621649   1.000000
    8        3.260024   1.000000
    9        4.244498   1.000000
   10        4.244498   1.000000
   11        4.410094   1.000000
   12        4.410094   1.000000
   13        4.548278   1.000000
   14        5.266530   1.000000
   15        5.286653   1.000000
   16        5.286653   1.000000
   17        5.317393   1.000000
   18        5.479782   1.000000
   19        5.479782   1.000000
   20        5.753033   1.000000
   21        6.321894   1.000000
   22        6.321894   1.000000
   23       12.011917   0.000000
   24       12.011917   0.000000
   25       12.379602   0.000000
   26       12.379602   0.000000
   27       15.814620   0.000000
   28       15.814620   0.000000
   29       16.983812   0.000000
   30       16.983812   0.000000
   31       19.198312   0.000000
   32       19.858361   0.000000
   33       19.858361   0.000000
   34       23.702463   0.000000
   35       23.704594   0.000000
   36       24.059040   0.000000
   37       24.243163   0.000000
   38       24.243163   0.000000
   39       25.688070   0.000000
   40       28.069701   0.000000
   41       28.069701   0.000000
   42       28.225036   0.000000
   43       28.385025   0.000000
   44       28.385025   0.000000
   45       31.904716   0.000000
   46       31.904716   0.000000
   47       32.104728   0.000000
   48       32.104728   0.000000
 
  0.4444444E+00  0.0000000E+00  0.0000000E+00  0.8230453E-02
    1        0.966730   1.000000
    2        1.631332   1.000000
    3        2.659273   1.000000
    4        2.663272   1.000000
    5        2.663272   1.000000
    6        2.960542   1.000000
    7        3.097555   1.000000
    8        3.097555   1.000000
    9        3.698791   1.000000
   10        3.698791   1.000000
   11        4.367015   1.000000
   12        4.512694   1.000000
   13        4.602592   1.000000
   14        4.602592   1.000000
   15        4.982111   1.000000
   16        4.982111   1.000000
   17        5.027318   1.000000
   18        5.027318   1.000000
   19        5.421036   1.000000
   20        5.589918   1.000000
   21        6.322260   1.000000
   22        6.322260   1.000000
   23       12.216369   0.000000
   24       12.216369   0.000000
   25       13.324555   0.000000
   26       13.324555   0.000000
   27       14.620616   0.000000
   28       14.620616   0.000000
   29       16.853507   0.000000
   30       16.853507   0.000000
   31       21.262028   0.000000
   32       21.262028   0.000000
   33       22.072532   0.000000
   34       22.790652   0.000000
   35       22.790652   0.000000
   36       23.602492   0.000000
   37       23.680699   0.000000
   38       24.391436   0.000000
   39       25.080991   0.000000
   40       25.119521   0.000000
   41       29.196907   0.000000
   42       29.196907   0.000000
   43       30.538073   0.000000
   44       30.538073   0.000000
   45       30.571661   0.000000
   46       30.571661   0.000000
   47       32.516876   0.000000
   48       32.516876   0.000000
 
  0.1111111E+00  0.1111111E+00  0.0000000E+00  0.1646091E-01
    1       -0.659386   1.000000
    2        1.865218   1.000000
    3        1.865218   1.000000
    4        1.887676   1.000000
    5        2.115277   1.000000
    6        2.115277   1.000000
    7        2.154196   1.000000
    8        3.668739   1.000000
    9        3.831598   1.000000
   10        3.858006   1.000000
   11        4.955126   1.000000
   12        5.052948   1.000000
   13        5.715676   1.000000
   14        5.717143   1.000000
   15        5.717143   1.000000
   16        5.834408   1.000000
   17        5.971347   1.000000
   18        5.971347   1.000000
   19        6.206286   1.000000
   20        6.206286   1.000000
   21        6.244526   1.000000
   22        8.752125  -0.000000
   23        8.752125  -0.000000
   24       10.134713  -0.000000
   25       12.774726   0.000000
   26       14.109298   0.000000
   27       14.109298   0.000000
   28       16.648055   0.000000
   29       17.727397   0.000000
   30       17.727397   0.000000
   31       17.823778   0.000000
   32       17.823778   0.000000
   33       18.201476   0.000000
   34       22.827003   0.000000
   35       24.590980   0.000000
   36       24.710497   0.000000
   37       24.710497   0.000000
   38       24.886916   0.000000
   39       25.763108   0.000000
   40       26.562549   0.000000
   41       26.628631   0.000000
   42       26.628631   0.000000
   43       27.157237   0.000000
   44       31.085089   0.000000
   45       32.848307   0.000000
   46       33.011070   0.000000
   47       34.149341   0.000000
   48       34.361782   0.000000
 
  0.2222222E+00  0.1111111E+00  0.0000000E+00  0.3292181E-01
    1       -0.277855   1.000000
    2        1.963243   1.000000
    3        2.076874   1.000000
    4        2.107501   1.000000
    5        2.243527   1.000000
    6        2.317418   1.000000
    7        2.389829   1.000000
    8        3.519443   1.000000
    9        3.979070   1.000000
   10        3.991834   1.000000
   11        4.807888   1.000000
   12        4.981658   1.000000
   13        5.090754   1.000000
   14        5.135461   1.000000
   15        5.294311   1.000000
   16        5.593751   1.000000
   17        5.700163   1.000000
   18        5.872769   1.000000
   19        5.898142   1.000000
   20        6.205123   1.000000
   21        6.205461   1.000000
   22        7.287631   1.000000
   23        9.643325  -0.000000
   24       11.089778   0.000000
   25       12.433858   0.000000
   26       13.877689   0.000000
   27       15.863430   0.000000
   28       16.245707   0.000000
   29       17.047758   0.000000
   30       17.576023   0.000000
   31       18.402690   0.000000
   32       18.455659   0.000000
   33       18.653874   0.000000
   34       23.069350   0.000000
   35       23.479062   0.000000
   36       24.580893   0.000000
   37       25.336054   0.000000
   38       25.479719   0.000000
   39       26.247523   0.000000
   40       26.376712   0.000000
   41       26.629729   0.000000
   42       27.176113   0.000000
   43       28.286909   0.000000
   44       29.936044   0.000000
   45       32.236286   0.000000
   46       32.550954   0.000000
   47       33.535226   0.000000
   48       33.603042   0.000000
 
  0.3333333E+00  0.1111111E+00  0.0000000E+00  0.3292181E-01
    1        0.324509   1.000000
    2        2.001106   1.000000
    3        2.373067   1.000000
    4        2.445739   1.000000
    5        2.445848   1.000000
    6        2.651861   1.000000
    7        2.730263   1.000000
    8        3.277780   1.000000
    9        4.156975   1.000000
   10        4.229447   1.000000
   11        4.243122   1.000000
   12        4.368993   1.000000
   13        4.645339   1.000000
   14        4.687968   1.000000
   15        5.255500   1.000000
   16        5.289374   1.000000
   17        5.342368   1.000000
   18        5.477072   1.000000
   19        5.627608   1.000000
   20        6.198213   1.000000
   21        6.203163   1.000000
   22        6.228202   1.000000
   23       10.525600  -0.000000
   24       12.026641   0.000000
   25       12.284859   0.000000
   26       13.757896   0.000000
   27       15.168166   0.000000
   28       16.048966   0.000000
   29       17.450698   0.000000
   30       18.150307   0.000000
   31       18.354680   0.000000
   32       19.548223   0.000000
   33       20.143399   0.000000
   34       22.431627   0.000000
   35       23.082042   0.000000
   36       24.530221   0.000000
   37       24.828449   0.000000
   38       25.762094   0.000000
   39       25.974891   0.000000
   40       26.595864   0.000000
   41       28.047515   0.000000
   42       28.153894   0.000000
   43       28.290932   0.000000
   44       29.915073   0.000000
   45       31.433986   0.000000
   46       32.134784   0.000000
   47       32.175570   0.000000
   48       32.192840   0.000000
 
  0.4444444E+00  0.1111111E+00  0.0000000E+00  0.3292181E-01
    1        1.064930   1.000000
    2        1.726326   1.000000
    3        2.692289   1.000000
    4        2.704044   1.000000
    5        2.730446   1.000000
    6        2.992592   1.000000
    7        3.101366   1.000000
    8        3.113790   1.000000
    9        3.579352   1.000000
   10        3.693200   1.000000
   11        4.154125   1.000000
   12        4.214842   1.000000
   13        4.599785   1.000000
   14        4.779376   1.000000
   15        4.985536   1.000000
   16        5.024206   1.000000
   17        5.024785   1.000000
   18        5.185484   1.000000
   19        5.491982   1.000000
   20        5.749799   1.000000
   21        6.198436   1.000000
   22        6.200700   1.000000
   23       11.192008   0.000000
   24       11.637250   0.000000
   25       13.570693   0.000000
   26       13.973202   0.000000
   27       14.510646   0.000000
   28       14.854903   0.000000
   29       17.515510   0.000000
   30       17.774244   0.000000
   31       20.009037   0.000000
   32       20.864714   0.000000
   33       21.327291   0.000000
   34       22.200246   0.000000
   35       22.346800   0.000000
   36       24.438444   0.000000
   37       24.803736   0.000000
   38       24.966065   0.000000
   39       25.466988   0.000000
   40       26.000450   0.000000
   41       27.939798   0.000000
   42       29.011340   0.000000
   43       29.208313   0.000000
   44       30.615562   0.000000
   45       31.862519   0.000000
   46       31.938859   0.000000
   47       32.047397   0.000000
   48       32.713293   0.000000
 
  0.2222222E+00  0.2222222E+00  0.0000000E+00  0.1646091E-01
    1        0.081588   1.000000
    2        2.178942   1.000000
    3        2.220896   1.000000
    4        2.220896   1.000000
    5        2.431027   1.000000
    6        2.431027   1.000000
    7        2.654009   1.000000
    8        3.467429   1.000000
    9        4.037882   1.000000
   10        4.052232   1.000000
   11        4.532797   1.000000
   12        4.532797   1.000000
   13        4.749869   1.000000
   14        4.761572   1.000000
   15        5.220727   1.000000
   16        5.413445   1.000000
   17        5.667172   1.000000
   18        5.667172   1.000000
   19        5.893756   1.000000
   20        5.893756   1.000000
   21        6.023838   1.000000
   22        8.164251  -0.000060
   23        8.164251  -0.000060
   24       11.865333   0.000000
   25       11.913590   0.000000
   26       15.125764   0.000000
   27       15.600468   0.000000
   28       15.600468   0.000000
   29       17.732852   0.000000
   30       17.732852   0.000000
   31       18.642944   0.000000
   32       18.642944   0.000000
   33       19.560561   0.000000
   34       22.110186   0.000000
   35       22.815482   0.000000
   36       24.830496   0.000000
   37       25.393641   0.000000
   38       26.146915   0.000000
   39       26.146915   0.000000
   40       27.008407   0.000000
   41       27.008407   0.000000
   42       28.070121   0.000000
   43       28.106356   0.000000
   44       29.831301   0.000000
   45       32.066628   0.000000
   46       32.607121   0.000000
   47       33.319951   0.000000
   48       33.325095   0.000000
 
  0.3333333E+00  0.2222222E+00  0.0000000E+00  0.3292181E-01
    1        0.646983   1.000000
    2        2.275920   1.000000
    3        2.398152   1.000000
    4        2.591355   1.000000
    5        2.608892   1.000000
    6        2.738865   1.000000
    7        2.970434   1.000000
    8        3.306035   1.000000
    9        3.846638   1.000000
   10        4.049165   1.000000
   11        4.061491   1.000000
   12        4.228671   1.000000
   13        4.268456   1.000000
   14        4.672294   1.000000
   15        5.148367   1.000000
   16        5.358720   1.000000
   17        5.460153   1.000000
   18        5.462754   1.000000
   19        5.471070   1.000000
   20        5.888342   1.000000
   21        5.927276   1.000000
   22        7.015047   1.000000
   23        9.013935  -0.000000
   24       11.162247   0.000000
   25       13.014434   0.000000
   26       14.708544   0.000000
   27       14.977742   0.000000
   28       16.702896   0.000000
   29       17.097455   0.000000
   30       18.744886   0.000000
   31       18.814668   0.000000
   32       19.949682   0.000000
   33       20.409737   0.000000
   34       20.857867   0.000000
   35       22.171863   0.000000
   36       25.176302   0.000000
   37       25.610000   0.000000
   38       26.206998   0.000000
   39       26.312990   0.000000
   40       26.735761   0.000000
   41       27.676730   0.000000
   42       27.974879   0.000000
   43       29.083821   0.000000
   44       30.482457   0.000000
   45       31.552382   0.000000
   46       32.296097   0.000000
   47       32.389184   0.000000
   48       32.748248   0.000000
 
  0.4444444E+00  0.2222222E+00  0.0000000E+00  0.3292181E-01
    1        1.343974   1.000000
    2        1.990973   1.000000
    3        2.727426   1.000000
    4        2.833179   1.000000
    5        2.922229   1.000000
    6        3.077690   1.000000
    7        3.157724   1.000000
    8        3.175193   1.000000
    9        3.303549   1.000000
   10        3.668150   1.000000
   11        3.828074   1.000000
   12        3.938311   1.000000
   13        4.604500   1.000000
   14        4.793636   1.000000
   15        4.953644   1.000000
   16        5.020429   1.000000
   17        5.051050   1.000000
   18        5.115572   1.000000
   19        5.806858   1.000000
   20        5.885545   1.000000
   21        5.892977   1.000000
   22        6.276864   1.000000
   23        9.778883  -0.000000
   24       10.472406  -0.000000
   25       14.244476   0.000000
   26       14.529676   0.000000
   27       14.605244   0.000000
   28       15.504226   0.000000
   29       18.414496   0.000000
   30       19.167652   0.000000
   31       19.634647   0.000000
   32       19.651346   0.000000
   33       19.939893   0.000000
   34       21.149751   0.000000
   35       22.515635   0.000000
   36       24.522848   0.000000
   37       25.971909   0.000000
   38       26.375713   0.000000
   39       26.382828   0.000000
   40       26.708431   0.000000
   41       27.642784   0.000000
   42       27.924159   0.000000
   43       29.227261   0.000000
   44       30.729298   0.000000
   45       30.839683   0.000000
   46       31.850986   0.000000
   47       33.117217   0.000000
   48       33.121829   0.000000
 
  0.3333333E+00  0.3333333E+00  0.0000000E+00  0.1646091E-01
    1        1.146068   1.000000
    2        2.509431   1.000000
    3        2.676268   1.000000
    4        2.676268   1.000000
    5        2.871331   1.000000
    6        2.871331   1.000000
    7        3.240032   1.000000
    8        3.283677   1.000000
    9        3.512425   1.000000
   10        3.512425   1.000000
   11        3.963497   1.000000
   12        3.999331   1.000000
   13        4.392463   1.000000
   14        4.574704   1.000000
   15        4.961467   1.000000
   16        5.199657   1.000000
   17        5.199657   1.000000
   18        5.468557   1.000000
   19        5.468557   1.000000
   20        5.682671   1.000000
   21        5.827133   1.000000
   22        7.797469   0.915640
   23        7.797469   0.915640
   24       10.196001  -0.000000
   25       14.035068   0.000000
   26       14.600703   0.000000
   27       16.006601   0.000000
   28       16.006601   0.000000
   29       17.661675   0.000000
   30       17.661675   0.000000
   31       19.454911   0.000000
   32       20.745240   0.000000
   33       20.745240   0.000000
   34       21.133160   0.000000
   35       21.537749   0.000000
   36       24.320511   0.000000
   37       25.689992   0.000000
   38       26.381258   0.000000
   39       27.312683   0.000000
   40       27.312683   0.000000
   41       27.826302   0.000000
   42       27.826302   0.000000
   43       29.246351   0.000000
   44       30.493475   0.000000
   45       32.230899   0.000000
   46       32.230900   0.000000
   47       32.510128   0.000000
   48       32.889701   0.000000
 
  0.4444444E+00  0.3333333E+00  0.0000000E+00  0.3292181E-01
    1        1.752668   1.000000
    2        2.345940   1.000000
    3        2.717524   1.000000
    4        2.972152   1.000000
    5        3.029132   1.000000
    6        3.180927   1.000000
    7        3.209497   1.000000
    8        3.214219   1.000000
    9        3.366235   1.000000
   10        3.571613   1.000000
   11        3.600052   1.000000
   12        3.831789   1.000000
   13        4.625554   1.000000
   14        4.656854   1.000000
   15        4.817484   1.000000
   16        4.896065   1.000000
   17        4.927086   1.000000
   18        5.034233   1.000000
   19        5.483595   1.000000
   20        5.541887   1.000000
   21        6.307940   1.000000
   22        6.926299   1.000000
   23        8.558182  -0.000000
   24        9.332858  -0.000000
   25       14.763691   0.000000
   26       15.212903   0.000000
   27       15.221576   0.000000
   28       16.450475   0.000000
   29       17.055020   0.000000
   30       18.196997   0.000000
   31       18.796228   0.000000
   32       19.986722   0.000000
   33       21.228793   0.000000
   34       21.771200   0.000000
   35       22.787285   0.000000
   36       24.514187   0.000000
   37       25.052864   0.000000
   38       26.577570   0.000000
   39       27.057442   0.000000
   40       27.354409   0.000000
   41       27.542975   0.000000
   42       28.039509   0.000000
   43       29.179760   0.000000
   44       30.774523   0.000000
   45       31.446563   0.000000
   46       31.963199   0.000000
   47       33.044833   0.000000
   48       33.331675   0.000000
 
  0.4444444E+00  0.4444444E+00  0.0000000E+00  0.1646091E-01
    1        2.202989   1.000000
    2        2.613089   1.000000
    3        2.613089   1.000000
    4        2.694341   1.000000
    5        3.250658   1.000000
    6        3.256499   1.000000
    7        3.256499   1.000000
    8        3.461933   1.000000
    9        3.528436   1.000000
   10        3.528436   1.000000
   11        3.539361   1.000000
   12        3.758303   1.000000
   13        4.510201   1.000000
   14        4.637146   1.000000
   15        4.669620   1.000000
   16        4.669620   1.000000
   17        4.812646   1.000000
   18        5.099618   1.000000
   19        5.099618   1.000000
   20        5.261465   1.000000
   21        6.903237   1.000000
   22        7.620183   1.002087
   23        7.620183   1.002087
   24        8.393628  -0.000000
   25       15.237997   0.000000
   26       15.994221   0.000000
   27       15.994221   0.000000
   28       16.353861   0.000000
   29       16.980279   0.000000
   30       17.573793   0.000000
   31       17.573793   0.000000
   32       18.776853   0.000000
   33       23.263312   0.000000
   34       23.263312   0.000000
   35       23.917138   0.000000
   36       24.047364   0.000000
   37       24.401156   0.000000
   38       25.985506   0.000000
   39       25.985506   0.000000
   40       26.542224   0.000000
   41       28.099097   0.000000
   42       28.864227   0.000000
   43       28.864227   0.000000
   44       30.158288   0.000000
   45       32.612071   0.000000
   46       32.720902   0.000000
   47       32.947254   0.000000
   48       32.947261   0.000000
 
  0.1111111E+00  0.1111111E+00  0.1111111E+00  0.1097394E-01
    1       -0.532499   1.000000
    2        1.928601   1.000000
    3        1.928601   1.000000
    4        1.928601   1.000000
    5        2.198770   1.000000
    6        2.198770   1.000000
    7        2.198770   1.000000
    8        3.653109   1.000000
    9        3.871636   1.000000
   10        3.871636   1.000000
   11        4.995820   1.000000
   12        4.995820   1.000000
   13        5.550165   1.000000
   14        5.550165   1.000000
   15        5.550165   1.000000
   16        5.735483   1.000000
   17        5.735483   1.000000
   18        5.735483   1.000000
   19        6.216482   1.000000
   20        6.216482   1.000000
   21        6.216482   1.000000
   22        9.119109  -0.000000
   23        9.119109  -0.000000
   24        9.119109  -0.000000
   25       13.938750   0.000000
   26       13.938750   0.000000
   27       13.938750   0.000000
   28       17.001183   0.000000
   29       17.001183   0.000000
   30       17.001183   0.000000
   31       18.442465   0.000000
   32       18.442465   0.000000
   33       18.442465   0.000000
   34       22.820148   0.000000
   35       23.894958   0.000000
   36       24.809025   0.000000
   37       24.809025   0.000000
   38       24.809025   0.000000
   39       26.402081   0.000000
   40       26.402081   0.000000
   41       27.101276   0.000000
   42       27.101276   0.000000
   43       27.101276   0.000000
   44       30.618833   0.000000
   45       32.600117   0.000000
   46       32.600118   0.000000
   47       33.612229   0.000000
   48       34.420159   0.000000
 
  0.2222222E+00  0.1111111E+00  0.1111111E+00  0.3292181E-01
    1       -0.160355   1.000000
    2        2.023026   1.000000
    3        2.114336   1.000000
    4        2.114336   1.000000
    5        2.328902   1.000000
    6        2.435566   1.000000
    7        2.435566   1.000000
    8        3.530706   1.000000
    9        3.984567   1.000000
   10        3.991803   1.000000
   11        4.851632   1.000000
   12        4.906372   1.000000
   13        4.906372   1.000000
   14        5.091303   1.000000
   15        5.112723   1.000000
   16        5.480921   1.000000
   17        5.542694   1.000000
   18        5.542694   1.000000
   19        6.119709   1.000000
   20        6.173046   1.000000
   21        6.173046   1.000000
   22        7.642299   1.004919
   23        9.903624  -0.000000
   24        9.903624  -0.000000
   25       13.521146   0.000000
   26       13.521146   0.000000
   27       15.769654   0.000000
   28       16.415529   0.000000
   29       16.415529   0.000000
   30       18.116999   0.000000
   31       18.619636   0.000000
   32       18.619636   0.000000
   33       19.136437   0.000000
   34       22.278568   0.000000
   35       23.524038   0.000000
   36       24.621865   0.000000
   37       25.386571   0.000000
   38       25.386571   0.000000
   39       25.779976   0.000000
   40       26.896392   0.000000
   41       26.946768   0.000000
   42       28.268998   0.000000
   43       28.268998   0.000000
   44       29.555303   0.000000
   45       31.583572   0.000000
   46       32.269725   0.000000
   47       33.571968   0.000000
   48       33.571973   0.000000
 
  0.3333333E+00  0.1111111E+00  0.1111111E+00  0.3292181E-01
    1        0.425847   1.000000
    2        2.059272   1.000000
    3        2.408434   1.000000
    4        2.408434   1.000000
    5        2.529358   1.000000
    6        2.770716   1.000000
    7        2.770716   1.000000
    8        3.310195   1.000000
    9        4.120721   1.000000
   10        4.190638   1.000000
   11        4.215665   1.000000
   12        4.215665   1.000000
   13        4.483636   1.000000
   14        4.760233   1.000000
   15        5.144566   1.000000
   16        5.257179   1.000000
   17        5.257179   1.000000
   18        5.291188   1.000000
   19        5.953558   1.000000
   20        6.133392   1.000000
   21        6.133392   1.000000
   22        6.441975   1.000000
   23       10.709013   0.000000
   24       10.709013   0.000000
   25       13.095053   0.000000
   26       13.095053   0.000000
   27       16.025098   0.000000
   28       16.025098   0.000000
   29       17.380212   0.000000
   30       18.371731   0.000000
   31       18.371731   0.000000
   32       20.032560   0.000000
   33       20.209913   0.000000
   34       21.217930   0.000000
   35       23.748547   0.000000
   36       24.430902   0.000000
   37       24.589664   0.000000
   38       26.455409   0.000000
   39       26.462255   0.000000
   40       26.462255   0.000000
   41       26.746761   0.000000
   42       28.238732   0.000000
   43       29.811473   0.000000
   44       29.811473   0.000000
   45       31.468923   0.000000
   46       31.802882   0.000000
   47       32.263027   0.000000
   48       32.263027   0.000000
 
  0.4444444E+00  0.1111111E+00  0.1111111E+00  0.3292181E-01
    1        1.144935   1.000000
    2        1.789555   1.000000