       N       E                     dE             d eps       ncg     rms          rms(c)
DAV:   1     0.180251680473E+03    0.18025E+03   -0.18606E+04  3384   0.706E+02
DAV:   2    -0.114425631532E+02   -0.19169E+03   -0.18040E+03  4320   0.176E+02
DAV:   3    -0.138560179842E+02   -0.24135E+01   -0.24109E+01  4296   0.195E+01
DAV:   4    -0.138664951125E+02   -0.10477E-01   -0.10477E-01  4776   0.147E+00
DAV:   5    -0.138665982688E+02   -0.10316E-03   -0.10316E-03  4224   0.146E-01    0.140E+01
DAV:   6    -0.128929889720E+02    0.97361E+00   -0.19420E+00  4392   0.670E+00    0.936E+00
DAV:   7    -0.128402727124E+02    0.52716E-01   -0.14580E-01  4464   0.185E+00    0.471E+00
DAV:   8    -0.128344657295E+02    0.58070E-02   -0.56794E-03  4512   0.312E-01    0.441E-01
DAV:   9    -0.128344246942E+02    0.41035E-04   -0.38941E-05  3648   0.282E-02
   1 F= -.12834425E+02 E0= -.12834308E+02  d E =-.350141E-03
