 vasp.5.4.1 05Feb16 (build Feb 08 2018 09:21:51) complex                        
  
 executed on             LinuxIFC date 2019.11.21  15:55:54
 running on   24 total cores
 distrk:  each k-point on   24 cores,    1 groups
 distr:  one band on NCORES_PER_BAND=   1 cores,   24 groups


--------------------------------------------------------------------------------------------------------


 INCAR:
 POTCAR:    PAW_PBE Au 04Oct2007                  

 ----------------------------------------------------------------------------- 
|                                                                             |
|           W    W    AA    RRRRR   N    N  II  N    N   GGGG   !!!           |
|           W    W   A  A   R    R  NN   N  II  NN   N  G    G  !!!           |
|           W    W  A    A  R    R  N N  N  II  N N  N  G       !!!           |
|           W WW W  AAAAAA  RRRRR   N  N N  II  N  N N  G  GGG   !            |
|           WW  WW  A    A  R   R   N   NN  II  N   NN  G    G                |
|           W    W  A    A  R    R  N    N  II  N    N   GGGG   !!!           |
|                                                                             |
|      For optimal performance we recommend to set                            |
|        NCORE= 4 - approx SQRT( number of cores)                             |
|      NCORE specifies how many cores store one orbital (NPAR=cpu/NCORE).     |
|      This setting can  greatly improve the performance of VASP for DFT.     |
|      The default, NPAR=number of cores might be grossly inefficient         |
|      on modern multi-core architectures or massively parallel machines.     |
|      Do your own testing !!!!                                               |
|      Unfortunately you need to use the default for GW and RPA calculations. |
|      (for HF NCORE is supported but not extensively tested yet)             |
|                                                                             |
 ----------------------------------------------------------------------------- 

 POTCAR:    PAW_PBE Au 04Oct2007                  
   VRHFIN =Au: s1d10                                                            
   LEXCH  = PE                                                                  
   EATOM  =   926.0867 eV,   68.0654 Ry                                         
                                                                                
   TITEL  = PAW_PBE Au 04Oct2007                                                
   LULTRA =        F    use ultrasoft PP ?                                      
   IUNSCR =        1    unscreen: 0-lin 1-nonlin 2-no                           
   RPACOR =    2.330    partial core radius                                     
   POMASS =  196.966; ZVAL   =   11.000    mass and valenz                      
   RCORE  =    2.500    outmost cutoff radius                                   
   RWIGS  =    2.840; RWIGS  =    1.503    wigner-seitz radius (au A)           
   ENMAX  =  229.943; ENMIN  =  172.457 eV                                      
   ICORE  =        3    local potential                                         
   LCOR   =        T    correct aug charges                                     
   LPAW   =        T    paw PP                                                  
   EAUG   =  356.670                                                            
   DEXC   =    0.000                                                            
   RMAX   =    2.562    core radius for proj-oper                               
   RAUG   =    1.300    factor for augmentation sphere                          
   RDEP   =    2.598    radius for radial grids                                 
   RDEPT  =    2.193    core radius for aug-charge                              
                                                                                
   Atomic configuration                                                         
   16 entries                                                                   
     n  l   j            E        occ.                                          
     1  0  0.50    -80748.5001   2.0000                                         
     2  0  0.50    -14244.7466   2.0000                                         
     2  1  1.50    -12310.9591   6.0000                                         
     3  0  0.50     -3362.1768   2.0000                                         
     3  1  1.50     -2801.5463   6.0000                                         
     3  2  2.50     -2203.8206  10.0000                                         
     4  0  0.50      -729.8168   2.0000                                         
     4  1  1.50      -546.0527   6.0000                                         
     4  2  2.50      -325.7302  10.0000                                         
     4  3  3.50       -81.1472  14.0000                                         
     5  0  0.50      -108.3201   2.0000                                         
     5  1  1.50       -59.7479   6.0000                                         
     5  2  2.50        -6.8783  10.0000                                         
     6  0  0.50        -5.7602   1.0000                                         
     6  1  1.50        -6.8029   0.0000                                         
     5  3  2.50        -1.3606   0.0000                                         
   Description                                                                  
     l       E           TYP  RCUT    TYP  RCUT                                 
     2     -6.8782861     23  2.500                                             
     2     -8.2388687     23  2.500                                             
     0     -5.7601759     23  2.500                                             
     0     -0.8493231     23  2.500                                             
     1     -2.7211652     23  2.500                                             
     1     27.2116520     23  2.500                                             
     3     -1.3605826     23  2.500                                             
  local pseudopotential read in
  partial core-charges read in
  partial kinetic energy density read in
  atomic valenz-charges read in
  non local Contribution for L=           2  read in
    real space projection operators read in
  non local Contribution for L=           2  read in
    real space projection operators read in
  non local Contribution for L=           0  read in
    real space projection operators read in
  non local Contribution for L=           0  read in
    real space projection operators read in
  non local Contribution for L=           1  read in
    real space projection operators read in
  non local Contribution for L=           1  read in
    real space projection operators read in
    PAW grid and wavefunctions read in
 
   number of l-projection  operators is LMAX  =           6
   number of lm-projection operators is LMMAX =          18
 
  PAW_PBE Au 04Oct2007                  :
 energy of atom  1       EATOM= -926.0867
 kinetic energy error for atom=    0.0062 (will be added to EATOM!!)
 
 
 POSCAR: Au                                      
  positions in cartesian coordinates
  No initial velocities read in
 exchange correlation table for  LEXCH =        8
   RHO(1)=    0.500       N(1)  =     2000
   RHO(2)=  100.500       N(2)  =     4000
 


--------------------------------------------------------------------------------------------------------


 ion  position               nearest neighbor table
   1  0.000  0.000  0.000-   2 2.98   3 2.98   4 2.98   2 2.98   3 2.98   2 2.98   4 2.98   2 2.98
                             3 2.98   4 2.98   3 2.98   4 2.98
   2  0.000  0.500  0.500-   1 2.98   3 2.98   4 2.98   1 2.98   4 2.98   1 2.98   3 2.98   1 2.98
                             3 2.98   4 2.98   4 2.98   3 2.98
   3  0.500  0.000  0.500-   1 2.98   2 2.98   4 2.98   1 2.98   4 2.98   2 2.98   4 2.98   4 2.98
                             1 2.98   2 2.98   1 2.98   2 2.98
   4  0.500  0.500  0.000-   1 2.98   2 2.98   3 2.98   2 2.98   3 2.98   1 2.98   3 2.98   3 2.98
                             1 2.98   2 2.98   2 2.98   1 2.98
 
  LATTYP: Found a simple cubic cell.
 ALAT       =     4.2160000000
  
  Lattice vectors:
  
 A1 = (   4.2160000000,   0.0000000000,   0.0000000000)
 A2 = (   0.0000000000,   4.2160000000,   0.0000000000)
 A3 = (   0.0000000000,   0.0000000000,   4.2160000000)


Analysis of symmetry for initial positions (statically):
=====================================================================
 Subroutine PRICEL returns following result:
 
  LATTYP: Found a face centered cubic cell.
 ALAT       =     4.2160000000
  
  Lattice vectors:
  
 A1 = (   2.1080000000,   2.1080000000,   0.0000000000)
 A2 = (   2.1080000000,   0.0000000000,  -2.1080000000)
 A3 = (   0.0000000000,   2.1080000000,  -2.1080000000)
 
   4 primitive cells build up your supercell.
 

 Routine SETGRP: Setting up the symmetry group for a 
 simple cubic supercell.


 Subroutine GETGRP returns: Found 48 space group operations
 (whereof 48 operations were pure point group operations)
 out of a pool of 48 trial point group operations.


The static configuration has the point symmetry O_h .


Analysis of symmetry for dynamics (positions and initial velocities):
=====================================================================
 Subroutine PRICEL returns following result:
 
  LATTYP: Found a face centered cubic cell.
 ALAT       =     4.2160000000
  
  Lattice vectors:
  
 A1 = (   2.1080000000,   2.1080000000,   0.0000000000)
 A2 = (   2.1080000000,   0.0000000000,  -2.1080000000)
 A3 = (   0.0000000000,   2.1080000000,  -2.1080000000)
 
   4 primitive cells build up your supercell.
 

 Routine SETGRP: Setting up the symmetry group for a 
 simple cubic supercell.


 Subroutine GETGRP returns: Found 48 space group operations
 (whereof 48 operations were pure point group operations)
 out of a pool of 48 trial point group operations.


The dynamic configuration has the point symmetry O_h .


 Subroutine INISYM returns: Found 48 space group operations
 (whereof 48 operations are pure point group operations),
 and found     4 'primitive' translations

 
 
 KPOINTS: KPOINTS created by Atomic Simulation Env

Automatic generation of k-mesh.
Space group operators:
 irot       det(A)        alpha          n_x          n_y          n_z        tau_x        tau_y        tau_z
    1     1.000000     0.000000     1.000000     0.000000     0.000000     0.000000     0.000000     0.000000
    2    -1.000000     0.000000     1.000000     0.000000     0.000000     0.000000     0.000000     0.000000
    3     1.000000   120.000000    -0.577350    -0.577350    -0.577350     0.000000     0.000000     0.000000
    4    -1.000000   120.000000    -0.577350    -0.577350    -0.577350     0.000000     0.000000     0.000000
    5     1.000000   120.000000     0.577350     0.577350     0.577350     0.000000     0.000000     0.000000
    6    -1.000000   120.000000     0.577350     0.577350     0.577350     0.000000     0.000000     0.000000
    7     1.000000    90.000000     0.000000     0.000000    -1.000000     0.000000     0.000000     0.000000
    8    -1.000000    90.000000     0.000000     0.000000    -1.000000     0.000000     0.000000     0.000000
    9     1.000000   180.000000     0.000000     0.707107     0.707107     0.000000     0.000000     0.000000
   10    -1.000000   180.000000     0.000000     0.707107     0.707107     0.000000     0.000000     0.000000
   11     1.000000    90.000000     0.000000     1.000000     0.000000     0.000000     0.000000     0.000000
   12    -1.000000    90.000000     0.000000     1.000000     0.000000     0.000000     0.000000     0.000000
   13     1.000000   180.000000     0.000000     0.000000     1.000000     0.000000     0.000000     0.000000
   14    -1.000000   180.000000     0.000000     0.000000     1.000000     0.000000     0.000000     0.000000
   15     1.000000   120.000000    -0.577350     0.577350     0.577350     0.000000     0.000000     0.000000
   16    -1.000000   120.000000    -0.577350     0.577350     0.577350     0.000000     0.000000     0.000000
   17     1.000000   120.000000    -0.577350     0.577350    -0.577350     0.000000     0.000000     0.000000
   18    -1.000000   120.000000    -0.577350     0.577350    -0.577350     0.000000     0.000000     0.000000
   19     1.000000    90.000000     0.000000     0.000000     1.000000     0.000000     0.000000     0.000000
   20    -1.000000    90.000000     0.000000     0.000000     1.000000     0.000000     0.000000     0.000000
   21     1.000000    90.000000    -1.000000     0.000000     0.000000     0.000000     0.000000     0.000000
   22    -1.000000    90.000000    -1.000000     0.000000     0.000000     0.000000     0.000000     0.000000
   23     1.000000   180.000000     0.707107     0.000000     0.707107     0.000000     0.000000     0.000000
   24    -1.000000   180.000000     0.707107     0.000000     0.707107     0.000000     0.000000     0.000000
   25     1.000000   120.000000     0.577350    -0.577350     0.577350     0.000000     0.000000     0.000000
   26    -1.000000   120.000000     0.577350    -0.577350     0.577350     0.000000     0.000000     0.000000
   27     1.000000   120.000000    -0.577350    -0.577350     0.577350     0.000000     0.000000     0.000000
   28    -1.000000   120.000000    -0.577350    -0.577350     0.577350     0.000000     0.000000     0.000000
   29     1.000000   180.000000     1.000000     0.000000     0.000000     0.000000     0.000000     0.000000
   30    -1.000000   180.000000     1.000000     0.000000     0.000000     0.000000     0.000000     0.000000
   31     1.000000    90.000000     0.000000    -1.000000     0.000000     0.000000     0.000000     0.000000
   32    -1.000000    90.000000     0.000000    -1.000000     0.000000     0.000000     0.000000     0.000000
   33     1.000000   180.000000     0.707107     0.707107     0.000000     0.000000     0.000000     0.000000
   34    -1.000000   180.000000     0.707107     0.707107     0.000000     0.000000     0.000000     0.000000
   35     1.000000    90.000000     1.000000     0.000000     0.000000     0.000000     0.000000     0.000000
   36    -1.000000    90.000000     1.000000     0.000000     0.000000     0.000000     0.000000     0.000000
   37     1.000000   120.000000     0.577350    -0.577350    -0.577350     0.000000     0.000000     0.000000
   38    -1.000000   120.000000     0.577350    -0.577350    -0.577350     0.000000     0.000000     0.000000
   39     1.000000   180.000000     0.000000     1.000000     0.000000     0.000000     0.000000     0.000000
   40    -1.000000   180.000000     0.000000     1.000000     0.000000     0.000000     0.000000     0.000000
   41     1.000000   120.000000     0.577350     0.577350    -0.577350     0.000000     0.000000     0.000000
   42    -1.000000   120.000000     0.577350     0.577350    -0.577350     0.000000     0.000000     0.000000
   43     1.000000   180.000000     0.000000    -0.707107     0.707107     0.000000     0.000000     0.000000
   44    -1.000000   180.000000     0.000000    -0.707107     0.707107     0.000000     0.000000     0.000000
   45     1.000000   180.000000     0.707107    -0.707107     0.000000     0.000000     0.000000     0.000000
   46    -1.000000   180.000000     0.707107    -0.707107     0.000000     0.000000     0.000000     0.000000
   47     1.000000   180.000000     0.707107     0.000000    -0.707107     0.000000     0.000000     0.000000
   48    -1.000000   180.000000     0.707107     0.000000    -0.707107     0.000000     0.000000     0.000000
 
 Subroutine IBZKPT returns following result:
 ===========================================
 
 Found     35 irreducible k-points:
 
 Following reciprocal coordinates:
            Coordinates               Weight
  0.000000  0.000000  0.000000      1.000000
  0.111111  0.000000  0.000000      6.000000
  0.222222  0.000000  0.000000      6.000000
  0.333333  0.000000  0.000000      6.000000
  0.444444  0.000000  0.000000      6.000000
  0.111111  0.111111  0.000000     12.000000
  0.222222  0.111111  0.000000     24.000000
  0.333333  0.111111  0.000000     24.000000
  0.444444  0.111111  0.000000     24.000000
  0.222222  0.222222  0.000000     12.000000
  0.333333  0.222222  0.000000     24.000000
  0.444444  0.222222  0.000000     24.000000
  0.333333  0.333333  0.000000     12.000000
  0.444444  0.333333  0.000000     24.000000
  0.444444  0.444444  0.000000     12.000000
  0.111111  0.111111  0.111111      8.000000
  0.222222  0.111111  0.111111     24.000000
  0.333333  0.111111  0.111111     24.000000
  0.444444  0.111111  0.111111     24.000000
  0.222222  0.222222  0.111111     24.000000
  0.333333  0.222222  0.111111     48.000000
  0.444444  0.222222  0.111111     48.000000
  0.333333  0.333333  0.111111     24.000000
  0.444444  0.333333  0.111111     48.000000
  0.444444  0.444444  0.111111     24.000000
  0.222222  0.222222  0.222222      8.000000
  0.333333  0.222222  0.222222     24.000000
  0.444444  0.222222  0.222222     24.000000
  0.333333  0.333333  0.222222     24.000000
  0.444444  0.333333  0.222222     48.000000
  0.444444  0.444444  0.222222     24.000000
  0.333333  0.333333  0.333333      8.000000
  0.444444  0.333333  0.333333     24.000000
  0.444444  0.444444  0.333333     24.000000
  0.444444  0.444444  0.444444      8.000000
 
 Following cartesian coordinates:
            Coordinates               Weight
  0.000000  0.000000  0.000000      1.000000
  0.026355  0.000000  0.000000      6.000000
  0.052709  0.000000  0.000000      6.000000
  0.079064  0.000000  0.000000      6.000000
  0.105419  0.000000  0.000000      6.000000
  0.026355  0.026355  0.000000     12.000000
  0.052709  0.026355  0.000000     24.000000
  0.079064  0.026355  0.000000     24.000000
  0.105419  0.026355  0.000000     24.000000
  0.052709  0.052709  0.000000     12.000000
  0.079064  0.052709  0.000000     24.000000
  0.105419  0.052709  0.000000     24.000000
  0.079064  0.079064  0.000000     12.000000
  0.105419  0.079064  0.000000     24.000000
  0.105419  0.105419  0.000000     12.000000
  0.026355  0.026355  0.026355      8.000000
  0.052709  0.026355  0.026355     24.000000
  0.079064  0.026355  0.026355     24.000000
  0.105419  0.026355  0.026355     24.000000
  0.052709  0.052709  0.026355     24.000000
  0.079064  0.052709  0.026355     48.000000
  0.105419  0.052709  0.026355     48.000000
  0.079064  0.079064  0.026355     24.000000
  0.105419  0.079064  0.026355     48.000000
  0.105419  0.105419  0.026355     24.000000
  0.052709  0.052709  0.052709      8.000000
  0.079064  0.052709  0.052709     24.000000
  0.105419  0.052709  0.052709     24.000000
  0.079064  0.079064  0.052709     24.000000
  0.105419  0.079064  0.052709     48.000000
  0.105419  0.105419  0.052709     24.000000
  0.079064  0.079064  0.079064      8.000000
  0.105419  0.079064  0.079064     24.000000
  0.105419  0.105419  0.079064     24.000000
  0.105419  0.105419  0.105419      8.000000
 


--------------------------------------------------------------------------------------------------------




 Dimension of arrays:
   k-points           NKPTS =     35   k-points in BZ     NKDIM =     35   number of bands    NBANDS=     48
   number of dos      NEDOS =    301   number of ions     NIONS =      4
   non local maximal  LDIM  =      6   non local SUM 2l+1 LMDIM =     18
   total plane-waves  NPLWV =  13824
   max r-space proj   IRMAX =      1   max aug-charges    IRDMAX=  11479
   dimension x,y,z NGX =    24 NGY =   24 NGZ =   24
   dimension x,y,z NGXF=    48 NGYF=   48 NGZF=   48
   support grid    NGXF=    48 NGYF=   48 NGZF=   48
   ions per type =               4
 NGX,Y,Z   is equivalent  to a cutoff of   9.46,  9.46,  9.46 a.u.
 NGXF,Y,Z  is equivalent  to a cutoff of  18.93, 18.93, 18.93 a.u.


 I would recommend the setting:
   dimension x,y,z NGX =    21 NGY =   21 NGZ =   21
 SYSTEM =  unknown system                          
 POSCAR =  Au                                      

 Startparameter for this run:
   NWRITE =      2    write-flag & timer
   PREC   = normal    normal or accurate (medium, high low for compatibility)
   ISTART =      0    job   : 0-new  1-cont  2-samecut
   ICHARG =      2    charge: 1-file 2-atom 10-const
   ISPIN  =      1    spin polarized calculation?
   LNONCOLLINEAR =      F non collinear calculations
   LSORBIT =      F    spin-orbit coupling
   INIWAV =      1    electr: 0-lowe 1-rand  2-diag
   LASPH  =      F    aspherical Exc in radial PAW
   METAGGA=      F    non-selfconsistent MetaGGA calc.

 Electronic Relaxation 1
   ENCUT  =  400.0 eV  29.40 Ry    5.42 a.u.   6.88  6.88  6.88*2*pi/ulx,y,z
   ENINI  =  400.0     initial cutoff
   ENAUG  =  356.7 eV  augmentation charge cutoff
   NELM   =     60;   NELMIN=  2; NELMDL= -5     # of ELM steps 
   EDIFF  = 0.1E-03   stopping-criterion for ELM
   LREAL  =      F    real-space projection
   NLSPLINE    = F    spline interpolate recip. space projectors
   LCOMPAT=      F    compatible to vasp.4.4
   GGA_COMPAT  = T    GGA compatible to vasp.4.4-vasp.4.6
   LMAXPAW     = -100 max onsite density
   LMAXMIX     =    2 max onsite mixed and CHGCAR
   VOSKOWN=      0    Vosko Wilk Nusair interpolation
   ROPT   =    0.00000
 Ionic relaxation
   EDIFFG = 0.1E-02   stopping-criterion for IOM
   NSW    =      0    number of steps for IOM
   NBLOCK =      1;   KBLOCK =      1    inner block; outer block 
   IBRION =     -1    ionic relax: 0-MD 1-quasi-New 2-CG
   NFREE  =      0    steps in history (QN), initial steepest desc. (CG)
   ISIF   =      2    stress and relaxation
   IWAVPR =     10    prediction:  0-non 1-charg 2-wave 3-comb
   ISYM   =      2    0-nonsym 1-usesym 2-fastsym
   LCORR  =      T    Harris-Foulkes like correction to forces

   POTIM  = 0.5000    time-step for ionic-motion
   TEIN   =    0.0    initial temperature
   TEBEG  =    0.0;   TEEND  =   0.0 temperature during run
   SMASS  =  -3.00    Nose mass-parameter (am)
   estimated Nose-frequenzy (Omega)   =  0.10E-29 period in steps =****** mass=  -0.406E-27a.u.
   SCALEE = 1.0000    scale energy and forces
   NPACO  =    256;   APACO  = 16.0  distance and # of slots for P.C.
   PSTRESS=    0.0 pullay stress

  Mass of Ions in am
   POMASS = 196.97
  Ionic Valenz
   ZVAL   =  11.00
  Atomic Wigner-Seitz radii
   RWIGS  =  -1.00
  virtual crystal weights 
   VCA    =   1.00
   NELECT =      44.0000    total number of electrons
   NUPDOWN=      -1.0000    fix difference up-down

 DOS related values:
   EMIN   =  10.00;   EMAX   =-10.00  energy-range for DOS
   EFERMI =   0.00
   ISMEAR =     1;   SIGMA  =   0.10  broadening in eV -4-tet -1-fermi 0-gaus

 Electronic relaxation 2 (details)
   IALGO  =     38    algorithm
   LDIAG  =      T    sub-space diagonalisation (order eigenvalues)
   LSUBROT=      F    optimize rotation matrix (better conditioning)
   TURBO    =      0    0=normal 1=particle mesh
   IRESTART =      0    0=no restart 2=restart with 2 vectors
   NREBOOT  =      0    no. of reboots
   NMIN     =      0    reboot dimension
   EREF     =   0.00    reference energy to select bands
   IMIX   =      4    mixing-type and parameters
     AMIX     =   0.40;   BMIX     =  1.00
     AMIX_MAG =   1.60;   BMIX_MAG =  1.00
     AMIN     =   0.10
     WC   =   100.;   INIMIX=   1;  MIXPRE=   1;  MAXMIX= -45

 Intra band minimization:
   WEIMIN = 0.0000     energy-eigenvalue tresh-hold
   EBREAK =  0.52E-06  absolut break condition
   DEPER  =   0.30     relativ break condition  

   TIME   =   0.40     timestep for ELM

  volume/ion in A,a.u.               =      18.73       126.43
  Fermi-wavevector in a.u.,A,eV,Ry     =   1.370856  2.590542 25.568691  1.879246
  Thomas-Fermi vector in A             =   2.496605
 
 Write flags
   LWAVE  =      F    write WAVECAR
   LCHARG =      F    write CHGCAR
   LVTOT  =      F    write LOCPOT, total local potential
   LVHAR  =      F    write LOCPOT, Hartree potential only
   LELF   =      F    write electronic localiz. function (ELF)
   LORBIT =      0    0 simple, 1 ext, 2 COOP (PROOUT)


 Dipole corrections
   LMONO  =      F    monopole corrections only (constant potential shift)
   LDIPOL =      F    correct potential (dipole corrections)
   IDIPOL =      0    1-x, 2-y, 3-z, 4-all directions 
   EPSILON=  1.0000000 bulk dielectric constant

 Exchange correlation treatment:
   GGA     =    --    GGA type
   LEXCH   =     8    internal setting for exchange type
   VOSKOWN=      0    Vosko Wilk Nusair interpolation
   LHFCALC =     F    Hartree Fock is set to
   LHFONE  =     F    Hartree Fock one center treatment
   AEXX    =    0.0000 exact exchange contribution

 Linear response parameters
   LEPSILON=     F    determine dielectric tensor
   LRPA    =     F    only Hartree local field effects (RPA)
   LNABLA  =     F    use nabla operator in PAW spheres
   LVEL    =     F    velocity operator in full k-point grid
   LINTERFAST=   F  fast interpolation
   KINTER  =     0    interpolate to denser k-point grid
   CSHIFT  =0.1000    complex shift for real part using Kramers Kronig
   OMEGAMAX=  -1.0    maximum frequency
   DEG_THRESHOLD= 0.2000000E-02 threshold for treating states as degnerate
   RTIME   =    0.100 relaxation time in fs

 Orbital magnetization related:
   ORBITALMAG=     F  switch on orbital magnetization
   LCHIMAG   =     F  perturbation theory with respect to B field
   DQ        =  0.001000  dq finite difference perturbation B field



--------------------------------------------------------------------------------------------------------


 Static calculation
 charge density and potential will be updated during run
 non-spin polarized calculation
 Variant of blocked Davidson
 Davidson routine will perform the subspace rotation
 perform sub-space diagonalisation
    after iterative eigenvector-optimisation
 modified Broyden-mixing scheme, WC =      100.0
 initial mixing is a Kerker type mixing with AMIX =  0.4000 and BMIX =      1.0000
 Hartree-type preconditioning will be used
 using additional bands           26
 reciprocal scheme for non local part
 use partial core corrections
 calculate Harris-corrections to forces 
   (improved forces if not selfconsistent)
 use gradient corrections 
 use of overlap-Matrix (Vanderbilt PP)
 Methfessel and Paxton  Order N= 1 SIGMA  =   0.10


--------------------------------------------------------------------------------------------------------


  energy-cutoff  :      400.00
  volume of cell :       74.94
      direct lattice vectors                 reciprocal lattice vectors
     4.216000000  0.000000000  0.000000000     0.237191651  0.000000000  0.000000000
     0.000000000  4.216000000  0.000000000     0.000000000  0.237191651  0.000000000
     0.000000000  0.000000000  4.216000000     0.000000000  0.000000000  0.237191651

  length of vectors
     4.216000000  4.216000000  4.216000000     0.237191651  0.237191651  0.237191651


 
 k-points in units of 2pi/SCALE and weight: KPOINTS created by Atomic Simulation Env
   0.00000000  0.00000000  0.00000000       0.001
   0.02635463  0.00000000  0.00000000       0.008
   0.05270926  0.00000000  0.00000000       0.008
   0.07906388  0.00000000  0.00000000       0.008
   0.10541851  0.00000000  0.00000000       0.008
   0.02635463  0.02635463  0.00000000       0.016
   0.05270926  0.02635463  0.00000000       0.033
   0.07906388  0.02635463  0.00000000       0.033
   0.10541851  0.02635463  0.00000000       0.033
   0.05270926  0.05270926  0.00000000       0.016
   0.07906388  0.05270926  0.00000000       0.033
   0.10541851  0.05270926  0.00000000       0.033
   0.07906388  0.07906388  0.00000000       0.016
   0.10541851  0.07906388  0.00000000       0.033
   0.10541851  0.10541851  0.00000000       0.016
   0.02635463  0.02635463  0.02635463       0.011
   0.05270926  0.02635463  0.02635463       0.033
   0.07906388  0.02635463  0.02635463       0.033
   0.10541851  0.02635463  0.02635463       0.033
   0.05270926  0.05270926  0.02635463       0.033
   0.07906388  0.05270926  0.02635463       0.066
   0.10541851  0.05270926  0.02635463       0.066
   0.07906388  0.07906388  0.02635463       0.033
   0.10541851  0.07906388  0.02635463       0.066
   0.10541851  0.10541851  0.02635463       0.033
   0.05270926  0.05270926  0.05270926       0.011
   0.07906388  0.05270926  0.05270926       0.033
   0.10541851  0.05270926  0.05270926       0.033
   0.07906388  0.07906388  0.05270926       0.033
   0.10541851  0.07906388  0.05270926       0.066
   0.10541851  0.10541851  0.05270926       0.033
   0.07906388  0.07906388  0.07906388       0.011
   0.10541851  0.07906388  0.07906388       0.033
   0.10541851  0.10541851  0.07906388       0.033
   0.10541851  0.10541851  0.10541851       0.011
 
 k-points in reciprocal lattice and weights: KPOINTS created by Atomic Simulation Env
   0.00000000  0.00000000  0.00000000       0.001
   0.11111111  0.00000000  0.00000000       0.008
   0.22222222  0.00000000  0.00000000       0.008
   0.33333333  0.00000000  0.00000000       0.008
   0.44444444  0.00000000  0.00000000       0.008
   0.11111111  0.11111111  0.00000000       0.016
   0.22222222  0.11111111  0.00000000       0.033
   0.33333333  0.11111111  0.00000000       0.033
   0.44444444  0.11111111  0.00000000       0.033
   0.22222222  0.22222222  0.00000000       0.016
   0.33333333  0.22222222  0.00000000       0.033
   0.44444444  0.22222222  0.00000000       0.033
   0.33333333  0.33333333  0.00000000       0.016
   0.44444444  0.33333333  0.00000000       0.033
   0.44444444  0.44444444  0.00000000       0.016
   0.11111111  0.11111111  0.11111111       0.011
   0.22222222  0.11111111  0.11111111       0.033
   0.33333333  0.11111111  0.11111111       0.033
   0.44444444  0.11111111  0.11111111       0.033
   0.22222222  0.22222222  0.11111111       0.033
   0.33333333  0.22222222  0.11111111       0.066
   0.44444444  0.22222222  0.11111111       0.066
   0.33333333  0.33333333  0.11111111       0.033
   0.44444444  0.33333333  0.11111111       0.066
   0.44444444  0.44444444  0.11111111       0.033
   0.22222222  0.22222222  0.22222222       0.011
   0.33333333  0.22222222  0.22222222       0.033
   0.44444444  0.22222222  0.22222222       0.033
   0.33333333  0.33333333  0.22222222       0.033
   0.44444444  0.33333333  0.22222222       0.066
   0.44444444  0.44444444  0.22222222       0.033
   0.33333333  0.33333333  0.33333333       0.011
   0.44444444  0.33333333  0.33333333       0.033
   0.44444444  0.44444444  0.33333333       0.033
   0.44444444  0.44444444  0.44444444       0.011
 
 position of ions in fractional coordinates (direct lattice) 
   0.00000000  0.00000000  0.00000000
   0.00000000  0.50000000  0.50000000
   0.50000000  0.00000000  0.50000000
   0.50000000  0.50000000  0.00000000
 
 position of ions in cartesian coordinates  (Angst):
   0.00000000  0.00000000  0.00000000
   0.00000000  2.10800000  2.10800000
   2.10800000  0.00000000  2.10800000
   2.10800000  2.10800000  0.00000000
 


--------------------------------------------------------------------------------------------------------


 k-point  1 :   0.0000 0.0000 0.0000  plane waves:    1357
 k-point  2 :   0.1111 0.0000 0.0000  plane waves:    1353
 k-point  3 :   0.2222 0.0000 0.0000  plane waves:    1346
 k-point  4 :   0.3333 0.0000 0.0000  plane waves:    1358
 k-point  5 :   0.4444 0.0000 0.0000  plane waves:    1374
 k-point  6 :   0.1111 0.1111 0.0000  plane waves:    1359
 k-point  7 :   0.2222 0.1111 0.0000  plane waves:    1359
 k-point  8 :   0.3333 0.1111 0.0000  plane waves:    1359
 k-point  9 :   0.4444 0.1111 0.0000  plane waves:    1365
 k-point 10 :   0.2222 0.2222 0.0000  plane waves:    1352
 k-point 11 :   0.3333 0.2222 0.0000  plane waves:    1354
 k-point 12 :   0.4444 0.2222 0.0000  plane waves:    1364
 k-point 13 :   0.3333 0.3333 0.0000  plane waves:    1374
 k-point 14 :   0.4444 0.3333 0.0000  plane waves:    1355
 k-point 15 :   0.4444 0.4444 0.0000  plane waves:    1356
 k-point 16 :   0.1111 0.1111 0.1111  plane waves:    1349
 k-point 17 :   0.2222 0.1111 0.1111  plane waves:    1354
 k-point 18 :   0.3333 0.1111 0.1111  plane waves:    1366
 k-point 19 :   0.4444 0.1111 0.1111  plane waves:    1357
 k-point 20 :   0.2222 0.2222 0.1111  plane waves:    1354
 k-point 21 :   0.3333 0.2222 0.1111  plane waves:    1359
 k-point 22 :   0.4444 0.2222 0.1111  plane waves:    1362
 k-point 23 :   0.3333 0.3333 0.1111  plane waves:    1361
 k-point 24 :   0.4444 0.3333 0.1111  plane waves:    1357
 k-point 25 :   0.4444 0.4444 0.1111  plane waves:    1369
 k-point 26 :   0.2222 0.2222 0.2222  plane waves:    1364
 k-point 27 :   0.3333 0.2222 0.2222  plane waves:    1360
 k-point 28 :   0.4444 0.2222 0.2222  plane waves:    1362
 k-point 29 :   0.3333 0.3333 0.2222  plane waves:    1362
 k-point 30 :   0.4444 0.3333 0.2222  plane waves:    1371
 k-point 31 :   0.4444 0.4444 0.2222  plane waves:    1370
 k-point 32 :   0.3333 0.3333 0.3333  plane waves:    1349
 k-point 33 :   0.4444 0.3333 0.3333  plane waves:    1366
 k-point 34 :   0.4444 0.4444 0.3333  plane waves:    1377
 k-point 35 :   0.4444 0.4444 0.4444  plane waves:    1361

 maximum and minimum number of plane-waves per node :      1377     1346

 maximum number of plane-waves:      1377
 maximum index in each direction: 
   IXMAX=    6   IYMAX=    6   IZMAX=    6
   IXMIN=   -7   IYMIN=   -7   IZMIN=   -7

 WARNING: aliasing errors must be expected set NGX to  28 to avoid them
 WARNING: aliasing errors must be expected set NGY to  28 to avoid them
 WARNING: aliasing errors must be expected set NGZ to  28 to avoid them
 aliasing errors are usually negligible using standard VASP settings
 and one can safely disregard these warnings

 serial   3D FFT for wavefunctions
 parallel 3D FFT for charge:
    minimum data exchange during FFTs selected (reduces bandwidth)


 total amount of memory used by VASP on root node    39815. kBytes
========================================================================

   base      :      30000. kBytes
   nonl-proj :       7104. kBytes
   fftplans  :        221. kBytes
   grid      :        789. kBytes
   one-center:         62. kBytes
   wavefun   :       1639. kBytes
 
     INWAV:  cpu time    0.0000: real time    0.0001
 Broyden mixing: mesh for mixing (old mesh)
   NGX = 13   NGY = 13   NGZ = 13
  (NGX  = 48   NGY  = 48   NGZ  = 48)
  gives a total of   2197 points

 initial charge density was supplied:
 charge density of overlapping atoms calculated
 number of electron      44.0000000 magnetization 
 keeping initial charge density in first step


--------------------------------------------------------------------------------------------------------


 Maximum index for augmentation-charges          593 (set IRDMAX)


--------------------------------------------------------------------------------------------------------


 First call to EWALD:  gamma=   0.420
 Maximum number of real-space cells 3x 3x 3
 Maximum number of reciprocal cells 3x 3x 3

 FEWALD executed in parallel
    FEWALD:  cpu time    0.0016: real time    0.0016


----------------------------------------- Iteration    1(   1)  ---------------------------------------


    POTLOK:  cpu time    0.0117: real time    0.0119
    SETDIJ:  cpu time    0.0029: real time    0.0030
     EDDAV:  cpu time    0.5342: real time    0.5344
       DOS:  cpu time    0.0024: real time    0.0024
    --------------------------------------------
      LOOP:  cpu time    0.5531: real time    0.5542

 eigenvalue-minimisations  :  3384
 total energy-change (2. order) : 0.1802517E+03  (-0.1860565E+04)
 number of electron      44.0000000 magnetization 
 augmentation part       44.0000000 magnetization 

 Free energy of the ion-electron system (eV)
  ---------------------------------------------------
  alpha Z        PSCENC =       248.69557915
  Ewald energy   TEWEN  =     -3789.63268008
  -Hartree energ DENC   =      -545.50936542
  -exchange      EXHF   =         0.00000000
  -V(xc)+E(xc)   XCENC  =        61.36513191
  PAW double counting   =      3496.39001341    -3404.04053930
  entropy T*S    EENTRO =        -0.00116469
  eigenvalues    EBANDS =       408.66263041
  atomic energy  EATOM  =      3704.32207507
  Solvation  Ediel_sol  =         0.00000000
  ---------------------------------------------------
  free energy    TOTEN  =       180.25168047 eV

  energy without entropy =      180.25284516  energy(sigma->0) =      180.25206870


--------------------------------------------------------------------------------------------------------




----------------------------------------- Iteration    1(   2)  ---------------------------------------


     EDDAV:  cpu time    0.7204: real time    0.7221
       DOS:  cpu time    0.0019: real time    0.0019
    --------------------------------------------
      LOOP:  cpu time    0.7236: real time    0.7269

 eigenvalue-minimisations  :  4320
 total energy-change (2. order) :-0.1916942E+03  (-0.1804032E+03)
 number of electron      44.0000000 magnetization 
 augmentation part       44.0000000 magnetization 

 Free energy of the ion-electron system (eV)
  ---------------------------------------------------
  alpha Z        PSCENC =       248.69557915
  Ewald energy   TEWEN  =     -3789.63268008
  -Hartree energ DENC   =      -545.50936542
  -exchange      EXHF   =         0.00000000
  -V(xc)+E(xc)   XCENC  =        61.36513191
  PAW double counting   =      3496.39001341    -3404.04053930
  entropy T*S    EENTRO =        -0.00041524
  eigenvalues    EBANDS =       216.96763734
  atomic energy  EATOM  =      3704.32207507
  Solvation  Ediel_sol  =         0.00000000
  ---------------------------------------------------
  free energy    TOTEN  =       -11.44256315 eV

  energy without entropy =      -11.44214791  energy(sigma->0) =      -11.44242474


--------------------------------------------------------------------------------------------------------




----------------------------------------- Iteration    1(   3)  ---------------------------------------


     EDDAV:  cpu time    0.6997: real time    0.7011
       DOS:  cpu time    0.0007: real time    0.0007
    --------------------------------------------
      LOOP:  cpu time    0.7013: real time    0.7043

 eigenvalue-minimisations  :  4296
 total energy-change (2. order) :-0.2413455E+01  (-0.2410888E+01)
 number of electron      44.0000000 magnetization 
 augmentation part       44.0000000 magnetization 

 Free energy of the ion-electron system (eV)
  ---------------------------------------------------
  alpha Z        PSCENC =       248.69557915
  Ewald energy   TEWEN  =     -3789.63268008
  -Hartree energ DENC   =      -545.50936542
  -exchange      EXHF   =         0.00000000
  -V(xc)+E(xc)   XCENC  =        61.36513191
  PAW double counting   =      3496.39001341    -3404.04053930
  entropy T*S    EENTRO =        -0.00106446
  eigenvalues    EBANDS =       214.55483172
  atomic energy  EATOM  =      3704.32207507
  Solvation  Ediel_sol  =         0.00000000
  ---------------------------------------------------
  free energy    TOTEN  =       -13.85601798 eV

  energy without entropy =      -13.85495353  energy(sigma->0) =      -13.85566317


--------------------------------------------------------------------------------------------------------




----------------------------------------- Iteration    1(   4)  ---------------------------------------


     EDDAV:  cpu time    0.8210: real time    0.8223
       DOS:  cpu time    0.0008: real time    0.0008
    --------------------------------------------
      LOOP:  cpu time    0.8227: real time    0.8255

 eigenvalue-minimisations  :  4776
 total energy-change (2. order) :-0.1047713E-01  (-0.1047687E-01)
 number of electron      44.0000000 magnetization 
 augmentation part       44.0000000 magnetization 

 Free energy of the ion-electron system (eV)
  ---------------------------------------------------
  alpha Z        PSCENC =       248.69557915
  Ewald energy   TEWEN  =     -3789.63268008
  -Hartree energ DENC   =      -545.50936542
  -exchange      EXHF   =         0.00000000
  -V(xc)+E(xc)   XCENC  =        61.36513191
  PAW double counting   =      3496.39001341    -3404.04053930
  entropy T*S    EENTRO =        -0.00106560
  eigenvalues    EBANDS =       214.54435573
  atomic energy  EATOM  =      3704.32207507
  Solvation  Ediel_sol  =         0.00000000
  ---------------------------------------------------
  free energy    TOTEN  =       -13.86649511 eV

  energy without entropy =      -13.86542952  energy(sigma->0) =      -13.86613991


--------------------------------------------------------------------------------------------------------




----------------------------------------- Iteration    1(   5)  ---------------------------------------


     EDDAV:  cpu time    0.6964: real time    0.6970
       DOS:  cpu time    0.0008: real time    0.0008
    CHARGE:  cpu time    0.0152: real time    0.0152
    MIXING:  cpu time    0.0005: real time    0.0006
    --------------------------------------------
      LOOP:  cpu time    0.7139: real time    0.7161

 eigenvalue-minimisations  :  4224
 total energy-change (2. order) :-0.1031563E-03  (-0.1031564E-03)
 number of electron      43.9999912 magnetization 
 augmentation part       15.4957726 magnetization 

 Broyden mixing:
  rms(total) = 0.13982E+01    rms(broyden)= 0.13982E+01
  rms(prec ) = 0.19388E+01
  weight for this iteration     100.00

 Free energy of the ion-electron system (eV)
  ---------------------------------------------------
  alpha Z        PSCENC =       248.69557915
  Ewald energy   TEWEN  =     -3789.63268008
  -Hartree energ DENC   =      -545.50936542
  -exchange      EXHF   =         0.00000000
  -V(xc)+E(xc)   XCENC  =        61.36513191
  PAW double counting   =      3496.39001341    -3404.04053930
  entropy T*S    EENTRO =        -0.00106561
  eigenvalues    EBANDS =       214.54425259
  atomic energy  EATOM  =      3704.32207507
  Solvation  Ediel_sol  =         0.00000000
  ---------------------------------------------------
  free energy    TOTEN  =       -13.86659827 eV

  energy without entropy =      -13.86553266  energy(sigma->0) =      -13.86624306


--------------------------------------------------------------------------------------------------------




----------------------------------------- Iteration    1(   6)  ---------------------------------------


    POTLOK:  cpu time    0.0072: real time    0.0072
    SETDIJ:  cpu time    0.0027: real time    0.0027
     EDDAV:  cpu time    0.7456: real time    0.7460
       DOS:  cpu time    0.0009: real time    0.0009
    CHARGE:  cpu time    0.0129: real time    0.0129
    MIXING:  cpu time    0.0005: real time    0.0005
    --------------------------------------------
      LOOP:  cpu time    0.7707: real time    0.7728

 eigenvalue-minimisations  :  4392
 total energy-change (2. order) : 0.9736093E+00  (-0.1942021E+00)
 number of electron      43.9999910 magnetization 
 augmentation part       16.0188609 magnetization 

 Broyden mixing:
  rms(total) = 0.93596E+00    rms(broyden)= 0.93595E+00
  rms(prec ) = 0.98952E+00
  weight for this iteration     100.00

 eigenvalues of (default mixing * dielectric matrix)
  average eigenvalue GAMMA=   1.8934
  1.8934

 Free energy of the ion-electron system (eV)
  ---------------------------------------------------
  alpha Z        PSCENC =       248.69557915
  Ewald energy   TEWEN  =     -3789.63268008
  -Hartree energ DENC   =      -513.75751910
  -exchange      EXHF   =         0.00000000
  -V(xc)+E(xc)   XCENC  =        59.95816699
  PAW double counting   =      3684.07781743    -3596.06650709
  entropy T*S    EENTRO =        -0.00079355
  eigenvalues    EBANDS =       189.51087222
  atomic energy  EATOM  =      3704.32207507
  Solvation  Ediel_sol  =         0.00000000
  ---------------------------------------------------
  free energy    TOTEN  =       -12.89298897 eV

  energy without entropy =      -12.89219542  energy(sigma->0) =      -12.89272445


--------------------------------------------------------------------------------------------------------




----------------------------------------- Iteration    1(   7)  ---------------------------------------


    POTLOK:  cpu time    0.0055: real time    0.0055
    SETDIJ:  cpu time    0.0025: real time    0.0025
     EDDAV:  cpu time    0.7628: real time    0.8113
       DOS:  cpu time    0.0015: real time    0.0015
    CHARGE:  cpu time    0.0152: real time    0.0152
    MIXING:  cpu time    0.0005: real time    0.0005
    --------------------------------------------
      LOOP:  cpu time    0.7891: real time    0.8391

 eigenvalue-minimisations  :  4464
 total energy-change (2. order) : 0.5271626E-01  (-0.1457953E-01)
 number of electron      43.9999909 magnetization 
 augmentation part       16.1564615 magnetization 

 Broyden mixing:
  rms(total) = 0.47138E+00    rms(broyden)= 0.47138E+00
  rms(prec ) = 0.47468E+00
  weight for this iteration     100.00

 eigenvalues of (default mixing * dielectric matrix)
  average eigenvalue GAMMA=   1.9599
  1.2130  2.7069

 Free energy of the ion-electron system (eV)
  ---------------------------------------------------
  alpha Z        PSCENC =       248.69557915
  Ewald energy   TEWEN  =     -3789.63268008
  -Hartree energ DENC   =      -503.30719882
  -exchange      EXHF   =         0.00000000
  -V(xc)+E(xc)   XCENC  =        59.48063496
  PAW double counting   =      3862.29922348    -3777.10860104
  entropy T*S    EENTRO =        -0.00040624
  eigenvalues    EBANDS =       182.41110081
  atomic energy  EATOM  =      3704.32207507
  Solvation  Ediel_sol  =         0.00000000
  ---------------------------------------------------
  free energy    TOTEN  =       -12.84027271 eV

  energy without entropy =      -12.83986647  energy(sigma->0) =      -12.84013730


--------------------------------------------------------------------------------------------------------




----------------------------------------- Iteration    1(   8)  ---------------------------------------


    POTLOK:  cpu time    0.0055: real time    0.0055
    SETDIJ:  cpu time    0.0022: real time    0.0022
     EDDAV:  cpu time    0.7968: real time    0.7970
       DOS:  cpu time    0.0018: real time    0.0018
    CHARGE:  cpu time    0.0161: real time    0.0166
    MIXING:  cpu time    0.0003: real time    0.0003
    --------------------------------------------
      LOOP:  cpu time    0.8241: real time    0.8265

 eigenvalue-minimisations  :  4512
 total energy-change (2. order) : 0.5806983E-02  (-0.5679420E-03)
 number of electron      43.9999909 magnetization 
 augmentation part       16.1453963 magnetization 

 Broyden mixing:
  rms(total) = 0.44128E-01    rms(broyden)= 0.44127E-01
  rms(prec ) = 0.44287E-01
  weight for this iteration     100.00

 eigenvalues of (default mixing * dielectric matrix)
  average eigenvalue GAMMA=   1.5300
  2.5542  1.2175  0.8184

 Free energy of the ion-electron system (eV)
  ---------------------------------------------------
  alpha Z        PSCENC =       248.69557915
  Ewald energy   TEWEN  =     -3789.63268008
  -Hartree energ DENC   =      -501.35294000
  -exchange      EXHF   =         0.00000000
  -V(xc)+E(xc)   XCENC  =        59.37073884
  PAW double counting   =      4014.60193907    -3931.34203541
  entropy T*S    EENTRO =        -0.00035180
  eigenvalues    EBANDS =       182.50320942
  atomic energy  EATOM  =      3704.32207507
  Solvation  Ediel_sol  =         0.00000000
  ---------------------------------------------------
  free energy    TOTEN  =       -12.83446573 eV

  energy without entropy =      -12.83411393  energy(sigma->0) =      -12.83434846


--------------------------------------------------------------------------------------------------------




----------------------------------------- Iteration    1(   9)  ---------------------------------------


    POTLOK:  cpu time    0.0060: real time    0.0065
    SETDIJ:  cpu time    0.0023: real time    0.0023
     EDDAV:  cpu time    0.6726: real time    0.6740
       DOS:  cpu time    0.0008: real time    0.0008
    --------------------------------------------
      LOOP:  cpu time    0.6828: real time    0.6865

 eigenvalue-minimisations  :  3648
 total energy-change (2. order) : 0.4103534E-04  (-0.3894091E-05)
 number of electron      43.9999909 magnetization 
 augmentation part       16.1453963 magnetization 

 Free energy of the ion-electron system (eV)
  ---------------------------------------------------
  alpha Z        PSCENC =       248.69557915
  Ewald energy   TEWEN  =     -3789.63268008
  -Hartree energ DENC   =      -501.60081836
  -exchange      EXHF   =         0.00000000
  -V(xc)+E(xc)   XCENC  =        59.38242202
  PAW double counting   =      4002.79768939    -3919.32559795
  entropy T*S    EENTRO =        -0.00035014
  eigenvalues    EBANDS =       182.52725621
  atomic energy  EATOM  =      3704.32207507
  Solvation  Ediel_sol  =         0.00000000
  ---------------------------------------------------
  free energy    TOTEN  =       -12.83442469 eV

  energy without entropy =      -12.83407455  energy(sigma->0) =      -12.83430798


--------------------------------------------------------------------------------------------------------




 average (electrostatic) potential at core
  the test charge radii are     1.2098
  (the norm of the test charge is              1.0000)
       1 -65.3235       2 -65.3235       3 -65.3235       4 -65.3235
 
 
 
 E-fermi :   7.8565     XC(G=0): -12.1557     alpha+bet :-12.6745


 k-point     1 :       0.0000    0.0000    0.0000
  band No.  band energies     occupation 
      1      -0.9216      2.00000
      2       1.7383      2.00000
      3       1.7383      2.00000
      4       1.7383      2.00000
      5       2.0022      2.00000
      6       2.0022      2.00000
      7       2.0022      2.00000
      8       3.7553      2.00000
      9       3.7553      2.00000
     10       3.7553      2.00000
     11       5.0371      2.00000
     12       5.0371      2.00000
     13       6.0120      2.00000
     14       6.0120      2.00000
     15       6.0120      2.00000
     16       6.3207      2.00000
     17       6.3207      2.00000
     18       6.3207      2.00000
     19       6.3207      2.00000
     20       6.3207      2.00000
     21       6.3207      2.00000
     22       9.2569     -0.00000
     23       9.2569     -0.00000
     24       9.2569     -0.00000
     25      13.0165      0.00000
     26      13.0165      0.00000
     27      13.0165      0.00000
     28      17.7073      0.00000
     29      17.7073      0.00000
     30      17.7073      0.00000
     31      17.7073      0.00000
     32      17.7073      0.00000
     33      17.7073      0.00000
     34      22.5847      0.00000
     35      24.1797      0.00000
     36      24.1797      0.00000
     37      24.1797      0.00000
     38      26.0363      0.00000
     39      26.0363      0.00000
     40      26.0363      0.00000
     41      26.5376      0.00000
     42      26.5376      0.00000
     43      26.5376      0.00000
     44      30.6555      0.00000
     45      34.3390      0.00000
     46      34.3390      0.00000
     47      34.3392      0.00000
     48      34.7840      0.00000

 k-point     2 :       0.1111    0.0000    0.0000
  band No.  band energies     occupation 
      1      -0.7893      2.00000
      2       1.7790      2.00000
      3       1.8230      2.00000
      4       1.8230      2.00000
      5       2.0477      2.00000
      6       2.0714      2.00000
      7       2.0714      2.00000
      8       3.6929      2.00000
      9       3.8110      2.00000
     10       3.8110      2.00000
     11       4.9713      2.00000
     12       5.0643      2.00000
     13       5.9186      2.00000
     14       5.9186      2.00000
     15       5.9459      2.00000
     16       5.9459      2.00000
     17       5.9802      2.00000
     18       6.2067      2.00000
     19       6.2067      2.00000
     20       6.3209      2.00000
     21       6.3209      2.00000
     22       8.2876     -0.00000
     23       9.7292     -0.00000
     24       9.7292     -0.00000
     25      12.9093      0.00000
     26      12.9093      0.00000
     27      14.2179      0.00000
     28      17.4702      0.00000
     29      17.4702      0.00000
     30      17.5474      0.00000
     31      17.5474      0.00000
     32      17.9710      0.00000
     33      17.9710      0.00000
     34      22.7239      0.00000
     35      24.1017      0.00000
     36      24.7719      0.00000
     37      24.7719      0.00000
     38      25.5571      0.00000
     39      25.8907      0.00000
     40      25.8907      0.00000
     41      26.4403      0.00000
     42      26.7140      0.00000
     43      26.7140      0.00000
     44      31.5059      0.00000
     45      33.1287      0.00000
     46      33.1287      0.00000
     47      34.2502      0.00000
     48      34.4714      0.00000

 k-point     3 :       0.2222    0.0000    0.0000
  band No.  band energies     occupation 
      1      -0.4005      2.00000
      2       1.8724      2.00000
      3       2.0603      2.00000
      4       2.0603      2.00000
      5       2.1806      2.00000
      6       2.2784      2.00000
      7       2.2784      2.00000
      8       3.5175      2.00000
      9       3.9762      2.00000
     10       3.9762      2.00000
     11       4.7902      2.00000
     12       5.1434      2.00000
     13       5.1950      2.00000
     14       5.1950      2.00000
     15       5.6543      2.00000
     16       5.6543      2.00000
     17       5.8895      2.00000
     18       5.8998      2.00000
     19       5.8998      2.00000
     20       6.3214      2.00000
     21       6.3214      2.00000
     22       6.6941      2.00000
     23      10.7674      0.00000
     24      10.7674      0.00000
     25      12.6505      0.00000
     26      12.6505      0.00000
     27      16.5285      0.00000
     28      16.8038      0.00000
     29      16.8038      0.00000
     30      17.2371      0.00000
     31      17.2371      0.00000
     32      18.7210      0.00000
     33      18.7210      0.00000
     34      23.1186      0.00000
     35      23.9089      0.00000
     36      24.7231      0.00000
     37      25.3354      0.00000
     38      25.3354      0.00000
     39      26.1523      0.00000
     40      26.3072      0.00000
     41      26.3072      0.00000
     42      27.2326      0.00000
     43      27.2326      0.00000
     44      31.2583      0.00000
     45      32.0841      0.00000
     46      32.0841      0.00000
     47      33.5670      0.00000
     48      33.5674      0.00000

 k-point     4 :       0.3333    0.0000    0.0000
  band No.  band energies     occupation 
      1       0.2136      2.00000
      2       1.9047      2.00000
      3       2.3889      2.00000
      4       2.3889      2.00000
      5       2.3905      2.00000
      6       2.6216      2.00000
      7       2.6216      2.00000
      8       3.2600      2.00000
      9       4.2445      2.00000
     10       4.2445      2.00000
     11       4.4101      2.00000
     12       4.4101      2.00000
     13       4.5483      2.00000
     14       5.2665      2.00000
     15       5.2867      2.00000
     16       5.2867      2.00000
     17       5.3174      2.00000
     18       5.4798      2.00000
     19       5.4798      2.00000
     20       5.7530      2.00000
     21       6.3219      2.00000
     22       6.3219      2.00000
     23      12.0119      0.00000
     24      12.0119      0.00000
     25      12.3796      0.00000
     26      12.3796      0.00000
     27      15.8146      0.00000
     28      15.8146      0.00000
     29      16.9838      0.00000
     30      16.9838      0.00000
     31      19.1983      0.00000
     32      19.8584      0.00000
     33      19.8584      0.00000
     34      23.7025      0.00000
     35      23.7046      0.00000
     36      24.0590      0.00000
     37      24.2432      0.00000
     38      24.2432      0.00000
     39      25.6881      0.00000
     40      28.0697      0.00000
     41      28.0697      0.00000
     42      28.2250      0.00000
     43      28.3850      0.00000
     44      28.3850      0.00000
     45      31.9047      0.00000
     46      31.9047      0.00000
     47      32.1047      0.00000
     48      32.1047      0.00000

 k-point     5 :       0.4444    0.0000    0.0000
  band No.  band energies     occupation 
      1       0.9667      2.00000
      2       1.6313      2.00000
      3       2.6593      2.00000
      4       2.6633      2.00000
      5       2.6633      2.00000
      6       2.9605      2.00000
      7       3.0976      2.00000
      8       3.0976      2.00000
      9       3.6988      2.00000
     10       3.6988      2.00000
     11       4.3670      2.00000
     12       4.5127      2.00000
     13       4.6026      2.00000
     14       4.6026      2.00000
     15       4.9821      2.00000
     16       4.9821      2.00000
     17       5.0273      2.00000
     18       5.0273      2.00000
     19       5.4210      2.00000
     20       5.5899      2.00000
     21       6.3223      2.00000
     22       6.3223      2.00000
     23      12.2164      0.00000
     24      12.2164      0.00000
     25      13.3246      0.00000
     26      13.3246      0.00000
     27      14.6206      0.00000
     28      14.6206      0.00000
     29      16.8535      0.00000
     30      16.8535      0.00000
     31      21.2620      0.00000
     32      21.2620      0.00000
     33      22.0725      0.00000
     34      22.7907      0.00000
     35      22.7907      0.00000
     36      23.6025      0.00000
     37      23.6807      0.00000
     38      24.3914      0.00000
     39      25.0810      0.00000
     40      25.1195      0.00000
     41      29.1969      0.00000
     42      29.1969      0.00000
     43      30.5381      0.00000
     44      30.5381      0.00000
     45      30.5717      0.00000
     46      30.5717      0.00000
     47      32.5169      0.00000
     48      32.5169      0.00000

 k-point     6 :       0.1111    0.1111    0.0000
  band No.  band energies     occupation 
      1      -0.6594      2.00000
      2       1.8652      2.00000
      3       1.8652      2.00000
      4       1.8877      2.00000
      5       2.1153      2.00000
      6       2.1153      2.00000
      7       2.1542      2.00000
      8       3.6687      2.00000
      9       3.8316      2.00000
     10       3.8580      2.00000
     11       4.9551      2.00000
     12       5.0529      2.00000
     13       5.7157      2.00000
     14       5.7171      2.00000
     15       5.7171      2.00000
     16       5.8344      2.00000
     17       5.9713      2.00000
     18       5.9713      2.00000
     19       6.2063      2.00000
     20       6.2063      2.00000
     21       6.2445      2.00000
     22       8.7521     -0.00000
     23       8.7521     -0.00000
     24      10.1347     -0.00000
     25      12.7747      0.00000
     26      14.1093      0.00000
     27      14.1093      0.00000
     28      16.6481      0.00000
     29      17.7274      0.00000
     30      17.7274      0.00000
     31      17.8238      0.00000
     32      17.8238      0.00000
     33      18.2015      0.00000
     34      22.8270      0.00000
     35      24.5910      0.00000
     36      24.7105      0.00000
     37      24.7105      0.00000
     38      24.8869      0.00000
     39      25.7631      0.00000
     40      26.5625      0.00000
     41      26.6286      0.00000
     42      26.6286      0.00000
     43      27.1572      0.00000
     44      31.0851      0.00000
     45      32.8483      0.00000
     46      33.0111      0.00000
     47      34.1493      0.00000
     48      34.3618      0.00000

 k-point     7 :       0.2222    0.1111    0.0000
  band No.  band energies     occupation 
      1      -0.2779      2.00000
      2       1.9632      2.00000
      3       2.0769      2.00000
      4       2.1075      2.00000
      5       2.2435      2.00000
      6       2.3174      2.00000
      7       2.3898      2.00000
      8       3.5194      2.00000
      9       3.9791      2.00000
     10       3.9918      2.00000
     11       4.8079      2.00000
     12       4.9817      2.00000
     13       5.0908      2.00000
     14       5.1355      2.00000
     15       5.2943      2.00000
     16       5.5938      2.00000
     17       5.7002      2.00000
     18       5.8728      2.00000
     19       5.8981      2.00000
     20       6.2051      2.00000
     21       6.2055      2.00000
     22       7.2876      2.00000
     23       9.6433     -0.00000
     24      11.0898      0.00000
     25      12.4339      0.00000
     26      13.8777      0.00000
     27      15.8634      0.00000
     28      16.2457      0.00000
     29      17.0478      0.00000
     30      17.5760      0.00000
     31      18.4027      0.00000
     32      18.4557      0.00000
     33      18.6539      0.00000
     34      23.0694      0.00000
     35      23.4791      0.00000
     36      24.5809      0.00000
     37      25.3361      0.00000
     38      25.4797      0.00000
     39      26.2475      0.00000
     40      26.3767      0.00000
     41      26.6297      0.00000
     42      27.1761      0.00000
     43      28.2869      0.00000
     44      29.9360      0.00000
     45      32.2363      0.00000
     46      32.5510      0.00000
     47      33.5352      0.00000
     48      33.6030      0.00000

 k-point     8 :       0.3333    0.1111    0.0000
  band No.  band energies     occupation 
      1       0.3245      2.00000
      2       2.0011      2.00000
      3       2.3731      2.00000
      4       2.4457      2.00000
      5       2.4458      2.00000
      6       2.6519      2.00000
      7       2.7303      2.00000
      8       3.2778      2.00000
      9       4.1570      2.00000
     10       4.2294      2.00000
     11       4.2431      2.00000
     12       4.3690      2.00000
     13       4.6453      2.00000
     14       4.6880      2.00000
     15       5.2555      2.00000
     16       5.2894      2.00000
     17       5.3424      2.00000
     18       5.4771      2.00000
     19       5.6276      2.00000
     20       6.1982      2.00000
     21       6.2032      2.00000
     22       6.2282      2.00000
     23      10.5256     -0.00000
     24      12.0266      0.00000
     25      12.2849      0.00000
     26      13.7579      0.00000
     27      15.1682      0.00000
     28      16.0490      0.00000
     29      17.4507      0.00000
     30      18.1503      0.00000
     31      18.3547      0.00000
     32      19.5482      0.00000
     33      20.1434      0.00000
     34      22.4316      0.00000
     35      23.0820      0.00000
     36      24.5302      0.00000
     37      24.8284      0.00000
     38      25.7621      0.00000
     39      25.9749      0.00000
     40      26.5959      0.00000
     41      28.0475      0.00000
     42      28.1539      0.00000
     43      28.2909      0.00000
     44      29.9151      0.00000
     45      31.4340      0.00000
     46      32.1348      0.00000
     47      32.1756      0.00000
     48      32.1928      0.00000

 k-point     9 :       0.4444    0.1111    0.0000
  band No.  band energies     occupation 
      1       1.0649      2.00000
      2       1.7263      2.00000
      3       2.6923      2.00000
      4       2.7040      2.00000
      5       2.7304      2.00000
      6       2.9926      2.00000
      7       3.1014      2.00000
      8       3.1138      2.00000
      9       3.5794      2.00000
     10       3.6932      2.00000
     11       4.1541      2.00000
     12       4.2148      2.00000
     13       4.5998      2.00000
     14       4.7794      2.00000
     15       4.9855      2.00000
     16       5.0242      2.00000
     17       5.0248      2.00000
     18       5.1855      2.00000
     19       5.4920      2.00000
     20       5.7498      2.00000
     21       6.1984      2.00000
     22       6.2007      2.00000
     23      11.1920      0.00000
     24      11.6372      0.00000
     25      13.5707      0.00000
     26      13.9732      0.00000
     27      14.5106      0.00000
     28      14.8549      0.00000
     29      17.5155      0.00000
     30      17.7742      0.00000
     31      20.0090      0.00000
     32      20.8647      0.00000
     33      21.3273      0.00000
     34      22.2002      0.00000
     35      22.3468      0.00000
     36      24.4384      0.00000
     37      24.8037      0.00000
     38      24.9661      0.00000
     39      25.4670      0.00000
     40      26.0005      0.00000
     41      27.9398      0.00000
     42      29.0113      0.00000
     43      29.2083      0.00000
     44      30.6156      0.00000
     45      31.8625      0.00000
     46      31.9389      0.00000
     47      32.0474      0.00000
     48      32.7133      0.00000

 k-point    10 :       0.2222    0.2222    0.0000
  band No.  band energies     occupation 
      1       0.0816      2.00000
      2       2.1789      2.00000
      3       2.2209      2.00000
      4       2.2209      2.00000
      5       2.4310      2.00000
      6       2.4310      2.00000
      7       2.6540      2.00000
      8       3.4674      2.00000
      9       4.0379      2.00000
     10       4.0522      2.00000
     11       4.5328      2.00000
     12       4.5328      2.00000
     13       4.7499      2.00000
     14       4.7616      2.00000
     15       5.2207      2.00000
     16       5.4134      2.00000
     17       5.6672      2.00000
     18       5.6672      2.00000
     19       5.8938      2.00000
     20       5.8938      2.00000
     21       6.0238      2.00000
     22       8.1643     -0.00012
     23       8.1643     -0.00012
     24      11.8653      0.00000
     25      11.9136      0.00000
     26      15.1258      0.00000
     27      15.6005      0.00000
     28      15.6005      0.00000
     29      17.7329      0.00000
     30      17.7329      0.00000
     31      18.6429      0.00000
     32      18.6429      0.00000
     33      19.5606      0.00000
     34      22.1102      0.00000
     35      22.8155      0.00000
     36      24.8305      0.00000
     37      25.3936      0.00000
     38      26.1469      0.00000
     39      26.1469      0.00000
     40      27.0084      0.00000
     41      27.0084      0.00000
     42      28.0701      0.00000
     43      28.1064      0.00000
     44      29.8313      0.00000
     45      32.0666      0.00000
     46      32.6071      0.00000
     47      33.3200      0.00000
     48      33.3251      0.00000

 k-point    11 :       0.3333    0.2222    0.0000
  band No.  band energies     occupation 
      1       0.6470      2.00000
      2       2.2759      2.00000
      3       2.3982      2.00000
      4       2.5914      2.00000
      5       2.6089      2.00000
      6       2.7389      2.00000
      7       2.9704      2.00000
      8       3.3060      2.00000
      9       3.8466      2.00000
     10       4.0492      2.00000
     11       4.0615      2.00000
     12       4.2287      2.00000
     13       4.2685      2.00000
     14       4.6723      2.00000
     15       5.1484      2.00000
     16       5.3587      2.00000
     17       5.4602      2.00000
     18       5.4628      2.00000
     19       5.4711      2.00000
     20       5.8883      2.00000
     21       5.9273      2.00000
     22       7.0150      2.00000
     23       9.0139     -0.00000
     24      11.1622      0.00000
     25      13.0144      0.00000
     26      14.7085      0.00000
     27      14.9777      0.00000
     28      16.7029      0.00000
     29      17.0975      0.00000
     30      18.7449      0.00000
     31      18.8147      0.00000
     32      19.9497      0.00000
     33      20.4097      0.00000
     34      20.8579      0.00000
     35      22.1719      0.00000
     36      25.1763      0.00000
     37      25.6100      0.00000
     38      26.2070      0.00000
     39      26.3130      0.00000
     40      26.7358      0.00000
     41      27.6767      0.00000
     42      27.9749      0.00000
     43      29.0838      0.00000
     44      30.4825      0.00000
     45      31.5524      0.00000
     46      32.2961      0.00000
     47      32.3892      0.00000
     48      32.7482      0.00000

 k-point    12 :       0.4444    0.2222    0.0000
  band No.  band energies     occupation 
      1       1.3440      2.00000
      2       1.9910      2.00000
      3       2.7274      2.00000
      4       2.8332      2.00000
      5       2.9222      2.00000
      6       3.0777      2.00000
      7       3.1577      2.00000
      8       3.1752      2.00000
      9       3.3035      2.00000
     10       3.6682      2.00000
     11       3.8281      2.00000
     12       3.9383      2.00000
     13       4.6045      2.00000
     14       4.7936      2.00000
     15       4.9536      2.00000
     16       5.0204      2.00000
     17       5.0510      2.00000
     18       5.1156      2.00000
     19       5.8069      2.00000
     20       5.8855      2.00000
     21       5.8930      2.00000
     22       6.2769      2.00000
     23       9.7789     -0.00000
     24      10.4724     -0.00000
     25      14.2445      0.00000
     26      14.5297      0.00000
     27      14.6052      0.00000
     28      15.5042      0.00000
     29      18.4145      0.00000
     30      19.1677      0.00000
     31      19.6346      0.00000
     32      19.6513      0.00000
     33      19.9399      0.00000
     34      21.1498      0.00000
     35      22.5156      0.00000
     36      24.5228      0.00000
     37      25.9719      0.00000
     38      26.3757      0.00000
     39      26.3828      0.00000
     40      26.7084      0.00000
     41      27.6428      0.00000
     42      27.9242      0.00000
     43      29.2273      0.00000
     44      30.7293      0.00000
     45      30.8397      0.00000
     46      31.8510      0.00000
     47      33.1172      0.00000
     48      33.1218      0.00000

 k-point    13 :       0.3333    0.3333    0.0000
  band No.  band energies     occupation 
      1       1.1461      2.00000
      2       2.5094      2.00000
      3       2.6763      2.00000
      4       2.6763      2.00000
      5       2.8713      2.00000
      6       2.8713      2.00000
      7       3.2400      2.00000
      8       3.2837      2.00000
      9       3.5124      2.00000
     10       3.5124      2.00000
     11       3.9635      2.00000
     12       3.9993      2.00000
     13       4.3925      2.00000
     14       4.5747      2.00000
     15       4.9615      2.00000
     16       5.1997      2.00000
     17       5.1997      2.00000
     18       5.4686      2.00000
     19       5.4686      2.00000
     20       5.6827      2.00000
     21       5.8271      2.00000
     22       7.7975      1.83128
     23       7.7975      1.83128
     24      10.1960     -0.00000
     25      14.0351      0.00000
     26      14.6007      0.00000
     27      16.0066      0.00000
     28      16.0066      0.00000
     29      17.6617      0.00000
     30      17.6617      0.00000
     31      19.4549      0.00000
     32      20.7452      0.00000
     33      20.7452      0.00000
     34      21.1332      0.00000
     35      21.5377      0.00000
     36      24.3205      0.00000
     37      25.6900      0.00000
     38      26.3813      0.00000
     39      27.3127      0.00000
     40      27.3127      0.00000
     41      27.8263      0.00000
     42      27.8263      0.00000
     43      29.2464      0.00000
     44      30.4935      0.00000
     45      32.2309      0.00000
     46      32.2309      0.00000
     47      32.5101      0.00000
     48      32.8897      0.00000

 k-point    14 :       0.4444    0.3333    0.0000
  band No.  band energies     occupation 
      1       1.7527      2.00000
      2       2.3459      2.00000
      3       2.7175      2.00000
      4       2.9722      2.00000
      5       3.0291      2.00000
      6       3.1809      2.00000
      7       3.2095      2.00000
      8       3.2142      2.00000
      9       3.3662      2.00000
     10       3.5716      2.00000
     11       3.6001      2.00000
     12       3.8318      2.00000
     13       4.6256      2.00000
     14       4.6569      2.00000
     15       4.8175      2.00000
     16       4.8961      2.00000
     17       4.9271      2.00000
     18       5.0342      2.00000
     19       5.4836      2.00000
     20       5.5419      2.00000
     21       6.3079      2.00000
     22       6.9263      2.00000
     23       8.5582     -0.00000
     24       9.3329     -0.00000
     25      14.7637      0.00000
     26      15.2129      0.00000
     27      15.2216      0.00000
     28      16.4505      0.00000
     29      17.0550      0.00000
     30      18.1970      0.00000
     31      18.7962      0.00000
     32      19.9867      0.00000
     33      21.2288      0.00000
     34      21.7712      0.00000
     35      22.7873      0.00000
     36      24.5142      0.00000
     37      25.0529      0.00000
     38      26.5776      0.00000
     39      27.0574      0.00000
     40      27.3544      0.00000
     41      27.5430      0.00000
     42      28.0395      0.00000
     43      29.1798      0.00000
     44      30.7745      0.00000
     45      31.4466      0.00000
     46      31.9632      0.00000
     47      33.0448      0.00000
     48      33.3317      0.00000

 k-point    15 :       0.4444    0.4444    0.0000
  band No.  band energies     occupation 
      1       2.2030      2.00000
      2       2.6131      2.00000
      3       2.6131      2.00000
      4       2.6943      2.00000
      5       3.2507      2.00000
      6       3.2565      2.00000
      7       3.2565      2.00000
      8       3.4619      2.00000
      9       3.5284      2.00000
     10       3.5284      2.00000
     11       3.5394      2.00000
     12       3.7583      2.00000
     13       4.5102      2.00000
     14       4.6371      2.00000
     15       4.6696      2.00000
     16       4.6696      2.00000
     17       4.8126      2.00000
     18       5.0996      2.00000
     19       5.0996      2.00000
     20       5.2615      2.00000
     21       6.9032      2.00000
     22       7.6202      2.00417
     23       7.6202      2.00417
     24       8.3936     -0.00000
     25      15.2380      0.00000
     26      15.9942      0.00000
     27      15.9942      0.00000
     28      16.3539      0.00000
     29      16.9803      0.00000
     30      17.5738      0.00000
     31      17.5738      0.00000
     32      18.7769      0.00000
     33      23.2633      0.00000
     34      23.2633      0.00000
     35      23.9171      0.00000
     36      24.0474      0.00000
     37      24.4012      0.00000
     38      25.9855      0.00000
     39      25.9855      0.00000
     40      26.5422      0.00000
     41      28.0991      0.00000
     42      28.8642      0.00000
     43      28.8642      0.00000
     44      30.1583      0.00000
     45      32.6121      0.00000
     46      32.7209      0.00000
     47      32.9473      0.00000
     48      32.9473      0.00000

 k-point    16 :       0.1111    0.1111    0.1111
  band No.  band energies     occupation 
      1      -0.5325      2.00000
      2       1.9286      2.00000
      3       1.9286      2.00000
      4       1.9286      2.00000
      5       2.1988      2.00000
      6       2.1988      2.00000
      7       2.1988      2.00000
      8       3.6531      2.00000
      9       3.8716      2.00000
     10       3.8716      2.00000
     11       4.9958      2.00000
     12       4.9958      2.00000
     13       5.5502      2.00000
     14       5.5502      2.00000
     15       5.5502      2.00000
     16       5.7355      2.00000
     17       5.7355      2.00000
     18       5.7355      2.00000
     19       6.2165      2.00000
     20       6.2165      2.00000
     21       6.2165      2.00000
     22       9.1191     -0.00000
     23       9.1191     -0.00000
     24       9.1191     -0.00000
     25      13.9388      0.00000
     26      13.9388      0.00000
     27      13.9388      0.00000
     28      17.0012      0.00000
     29      17.0012      0.00000
     30      17.0012      0.00000
     31      18.4425      0.00000
     32      18.4425      0.00000
     33      18.4425      0.00000
     34      22.8201      0.00000
     35      23.8950      0.00000
     36      24.8090      0.00000
     37      24.8090      0.00000
     38      24.8090      0.00000
     39      26.4021      0.00000
     40      26.4021      0.00000
     41      27.1013      0.00000
     42      27.1013      0.00000
     43      27.1013      0.00000
     44      30.6188      0.00000
     45      32.6001      0.00000
     46      32.6001      0.00000
     47      33.6122      0.00000
     48      34.4202      0.00000

 k-point    17 :       0.2222    0.1111    0.1111
  band No.  band energies     occupation 
      1      -0.1604      2.00000
      2       2.0230      2.00000
      3       2.1143      2.00000
      4       2.1143      2.00000
      5       2.3289      2.00000
      6       2.4356      2.00000
      7       2.4356      2.00000
      8       3.5307      2.00000
      9       3.9846      2.00000
     10       3.9918      2.00000
     11       4.8516      2.00000
     12       4.9064      2.00000
     13       4.9064      2.00000
     14       5.0913      2.00000
     15       5.1127      2.00000
     16       5.4809      2.00000
     17       5.5427      2.00000
     18       5.5427      2.00000
     19       6.1197      2.00000
     20       6.1730      2.00000
     21       6.1730      2.00000
     22       7.6423      2.00984
     23       9.9036     -0.00000
     24       9.9036     -0.00000
     25      13.5211      0.00000
     26      13.5211      0.00000
     27      15.7697      0.00000
     28      16.4155      0.00000
     29      16.4155      0.00000
     30      18.1170      0.00000
     31      18.6196      0.00000
     32      18.6196      0.00000
     33      19.1364      0.00000
     34      22.2786      0.00000
     35      23.5240      0.00000
     36      24.6219      0.00000
     37      25.3866      0.00000
     38      25.3866      0.00000
     39      25.7800      0.00000
     40      26.8964      0.00000
     41      26.9468      0.00000
     42      28.2690      0.00000
     43      28.2690      0.00000
     44      29.5553      0.00000
     45      31.5836      0.00000
     46      32.2697      0.00000
     47      33.5720      0.00000
     48      33.5720      0.00000

 k-point    18 :       0.3333    0.1111    0.1111
  band No.  band energies     occupation 
      1       0.4258      2.00000
      2       2.0593      2.00000
      3       2.4084      2.00000
      4       2.4084      2.00000
      5       2.5294      2.00000
      6       2.7707      2.00000
      7       2.7707      2.00000
      8       3.3102      2.00000
      9       4.1207      2.00000
     10       4.1906      2.00000
     11       4.2157      2.00000
     12       4.2157      2.00000
     13       4.4836      2.00000
     14       4.7602      2.00000
     15       5.1446      2.00000
     16       5.2572      2.00000
     17       5.2572      2.00000
[...]
  band No.  band energies     occupation 
      1       1.5556      2.00000
      2       1.9007      2.00000
      3       2.2282      2.00000
      4       2.2598      2.00000
      5       3.3139      2.00000
      6       3.3350      2.00000
      7       3.6048      2.00000
      8       3.7828      2.00000
      9       3.9242      2.00000
     10       3.9956      2.00000
     11       4.0889      2.00000
     12       4.1662      2.00000
     13       4.2435      2.00000
     14       4.3262      2.00000
     15       4.3623      2.00000
     16       4.4155      2.00000
     17       5.4664      2.00000
     18       5.8388      2.00000
     19       5.8898      2.00000
     20       5.9015      2.00000
     21       6.1304      2.00000
     22       6.9254      2.00000
     23       8.9082     -0.00000
     24       9.8114     -0.00000
     25      11.0998      0.00000
     26      12.0335      0.00000
     27      14.2350      0.00000
     28      15.4481      0.00000
     29      19.3488      0.00000
     30      20.0565      0.00000
     31      21.3165      0.00000
     32      21.8521      0.00000
     33      21.8887      0.00000
     34      22.5510      0.00000
     35      22.5876      0.00000
     36      23.8447      0.00000
     37      24.3448      0.00000
     38      24.6869      0.00000
     39      24.8985      0.00000
     40      26.0337      0.00000
     41      29.8006      0.00000
     42      30.7803      0.00000
     43      30.7841      0.00000
     44      30.9843      0.00000
     45      31.2751      0.00000
     46      32.0788      0.00000
     47      32.6523      0.00000
     48      33.0297      0.00000

 k-point    31 :       0.4444    0.4444    0.2222
  band No.  band energies     occupation 
      1       1.7289      2.00000
      2       1.9562      2.00000
      3       1.9562      2.00000
      4       2.0746      2.00000
      5       3.4607      2.00000
      6       3.5480      2.00000
      7       3.5480      2.00000
      8       3.7095      2.00000
      9       4.0102      2.00000
     10       4.1101      2.00000
     11       4.1101      2.00000
     12       4.1693      2.00000
     13       4.4237      2.00000
     14       4.4353      2.00000
     15       4.4353      2.00000
     16       4.5437      2.00000
     17       5.4512      2.00000
     18       5.6993      2.00000
     19       5.6993      2.00000
     20       5.7416      2.00000
     21       6.7640      2.00000
     22       7.6573      2.01639
     23       7.6573      2.01639
     24       8.5903     -0.00000
     25      11.9633      0.00000
     26      13.0025      0.00000
     27      13.0025      0.00000
     28      14.1444      0.00000
     29      20.0334      0.00000
     30      20.8809      0.00000
     31      20.8809      0.00000
     32      21.7113      0.00000
     33      22.8690      0.00000
     34      22.8690      0.00000
     35      23.3114      0.00000
     36      23.5144      0.00000
     37      23.8692      0.00000
     38      24.8908      0.00000
     39      24.8908      0.00000
     40      25.8218      0.00000
     41      29.7623      0.00000
     42      30.4566      0.00000
     43      30.4566      0.00000
     44      31.1040      0.00000
     45      31.5062      0.00000
     46      32.1767      0.00000
     47      32.2526      0.00000
     48      32.2526      0.00000

 k-point    32 :       0.3333    0.3333    0.3333
  band No.  band energies     occupation 
      1       1.3194      2.00000
      2       2.0203      2.00000
      3       2.0203      2.00000
      4       2.0203      2.00000
      5       3.4368      2.00000
      6       3.4368      2.00000
      7       3.4368      2.00000
      8       3.8901      2.00000
      9       3.8901      2.00000
     10       4.2223      2.00000
     11       4.2223      2.00000
     12       4.2223      2.00000
     13       4.3755      2.00000
     14       4.3755      2.00000
     15       4.3755      2.00000
     16       4.4840      2.00000
     17       5.5606      2.00000
     18       5.5606      2.00000
     19       6.0866      2.00000
     20       6.0866      2.00000
     21       6.0866      2.00000
     22       8.6021     -0.00000
     23       8.6021     -0.00000
     24       8.6021     -0.00000
     25      11.7539      0.00000
     26      11.7539      0.00000
     27      11.7539      0.00000
     28      15.3011      0.00000
     29      20.9568      0.00000
     30      20.9568      0.00000
     31      20.9568      0.00000
     32      22.4992      0.00000
     33      22.4992      0.00000
     34      22.4992      0.00000
     35      22.8036      0.00000
     36      23.4007      0.00000
     37      23.4007      0.00000
     38      23.4007      0.00000
     39      25.8115      0.00000
     40      25.8115      0.00000
     41      30.2153      0.00000
     42      30.5347      0.00000
     43      30.5347      0.00000
     44      32.1449      0.00000
     45      32.1449      0.00000
     46      32.1451      0.00000
     47      32.5404      0.00000
     48      32.5404      0.00000

 k-point    33 :       0.4444    0.3333    0.3333
  band No.  band energies     occupation 
      1       1.4960      2.00000
      2       1.7375      2.00000
      3       1.9370      2.00000
      4       1.9370      2.00000
      5       3.4659      2.00000
      6       3.4659      2.00000
      7       3.6280      2.00000
      8       3.7881      2.00000
      9       3.8978      2.00000
     10       4.0122      2.00000
     11       4.0954      2.00000
     12       4.0954      2.00000
     13       4.5986      2.00000
     14       4.7431      2.00000
     15       4.7431      2.00000
     16       4.7658      2.00000
     17       5.8531      2.00000
     18       5.9961      2.00000
     19       6.0099      2.00000
     20       6.0099      2.00000
     21       6.0387      2.00000
     22       7.1344      2.00000
     23       9.1290     -0.00000
     24       9.1290     -0.00000
     25      10.7388      0.00000
     26      10.7388      0.00000
     27      12.7781      0.00000
     28      13.9662      0.00000
     29      21.3958      0.00000
     30      21.3958      0.00000
     31      22.0613      0.00000
     32      22.0613      0.00000
     33      22.3410      0.00000
     34      22.5632      0.00000
     35      23.3314      0.00000
     36      23.8559      0.00000
     37      24.0198      0.00000
     38      24.0198      0.00000
     39      24.4458      0.00000
     40      25.3227      0.00000
     41      30.8378      0.00000
     42      31.0475      0.00000
     43      31.4254      0.00000
     44      31.4254      0.00000
     45      31.6134      0.00000
     46      31.6350      0.00000
     47      32.0420      0.00000
     48      32.6411      0.00000

 k-point    34 :       0.4444    0.4444    0.3333
  band No.  band energies     occupation 
      1       1.5374      2.00000
      2       1.6872      2.00000
      3       1.6872      2.00000
      4       1.7543      2.00000
      5       3.5799      2.00000
      6       3.6309      2.00000
      7       3.6309      2.00000
      8       3.7561      2.00000
      9       3.8273      2.00000
     10       3.9075      2.00000
     11       3.9075      2.00000
     12       3.9321      2.00000
     13       5.1222      2.00000
     14       5.1222      2.00000
     15       5.1468      2.00000
     16       5.3225      2.00000
     17       5.7724      2.00000
     18       5.9656      2.00000
     19       5.9668      2.00000
     20       5.9668      2.00000
     21       6.5940      2.00000
     22       7.7059      2.05477
     23       7.7059      2.05477
     24       8.5573     -0.00000
     25      10.7287      0.00000
     26      11.5793      0.00000
     27      11.5793      0.00000
     28      12.6706      0.00000
     29      21.7397      0.00000
     30      22.1229      0.00000
     31      22.1229      0.00000
     32      22.2870      0.00000
     33      23.0626      0.00000
     34      23.0626      0.00000
     35      23.0648      0.00000
     36      23.9199      0.00000
     37      23.9493      0.00000
     38      24.3449      0.00000
     39      24.3449      0.00000
     40      25.1613      0.00000
     41      30.8749      0.00000
     42      31.2899      0.00000
     43      31.2899      0.00000
     44      31.3255      0.00000
     45      31.6405      0.00000
     46      31.8529      0.00000
     47      31.9599      0.00000
     48      31.9599      0.00000

 k-point    35 :       0.4444    0.4444    0.4444
  band No.  band energies     occupation 
      1       1.4751      2.00000
      2       1.5489      2.00000
      3       1.5489      2.00000
      4       1.5489      2.00000
      5       3.6883      2.00000
      6       3.6883      2.00000
      7       3.6883      2.00000
      8       3.7507      2.00000
      9       3.7507      2.00000
     10       3.7871      2.00000
     11       3.7871      2.00000
     12       3.7871      2.00000
     13       5.6782      2.00000
     14       5.6782      2.00000
     15       5.6782      2.00000
     16       5.9870      2.00000
     17       5.9870      2.00000
     18       6.0553      2.00000
     19       6.0553      2.00000
     20       6.0553      2.00000
     21       6.7208      2.00000
     22       7.7655      2.02613
     23       7.7655      2.02613
     24       7.7655      2.02613
     25      10.6855      0.00000
     26      10.6855      0.00000
     27      10.6855      0.00000
     28      11.4757      0.00000
     29      22.0797      0.00000
     30      22.0797      0.00000
     31      22.0797      0.00000
     32      22.1110      0.00000
     33      23.9889      0.00000
     34      23.9889      0.00000
     35      23.9889      0.00000
     36      24.1353      0.00000
     37      24.1353      0.00000
     38      24.1353      0.00000
     39      24.5591      0.00000
     40      24.5591      0.00000
     41      31.3793      0.00000
     42      31.3793      0.00000
     43      31.5739      0.00000
     44      31.5739      0.00000
     45      31.5739      0.00000
     46      31.6832      0.00000
     47      31.6832      0.00000
     48      31.6833      0.00000


--------------------------------------------------------------------------------------------------------


 soft charge-density along one line, spin component           1
         0         1         2         3         4         5         6         7         8         9
 total charge-density along one line
 
 pseudopotential strength for first ion, spin component:           1
 -4.266   0.000  -0.000  -0.000  -0.000  -4.497   0.000  -0.000
  0.000  -4.266  -0.000   0.000   0.000   0.000  -4.497  -0.000
 -0.000  -0.000  -4.252   0.000  -0.000  -0.000  -0.000  -4.483
 -0.000   0.000   0.000  -4.266   0.000  -0.000   0.000   0.000
 -0.000   0.000  -0.000   0.000  -4.252  -0.000   0.000  -0.000
 -4.497   0.000  -0.000  -0.000  -0.000  -4.709   0.000  -0.000
  0.000  -4.497  -0.000   0.000   0.000   0.000  -4.709  -0.000
 -0.000  -0.000  -4.483   0.000  -0.000  -0.000  -0.000  -4.696
 -0.000   0.000   0.000  -4.497   0.000  -0.000   0.000   0.000
 -0.000   0.000  -0.000   0.000  -4.483  -0.000   0.000  -0.000
 -0.000   0.000  -0.000  -0.000  -0.000  -0.000   0.000   0.000
 -0.000   0.000  -0.000  -0.000  -0.000  -0.000   0.000   0.000
  0.000  -0.000   0.000  -0.000   0.000   0.000  -0.000   0.000
 -0.000  -0.000  -0.000  -0.000  -0.000  -0.000  -0.000  -0.000
 -0.000  -0.000   0.000  -0.000  -0.000  -0.000  -0.000   0.000
  0.000  -0.000   0.000  -0.000   0.000   0.000  -0.000   0.000
 -0.000  -0.000  -0.000   0.000  -0.000  -0.000  -0.000  -0.000
 -0.000  -0.000   0.000  -0.000   0.000  -0.000  -0.000  -0.000
 total augmentation occupancy for first ion, spin component:           1
  4.355   0.000  -0.000  -0.000   0.000  -2.291   0.000   0.000   0.000   0.000  -0.000  -0.000  -0.000  -0.000   0.000   0.000
  0.000   4.355   0.000  -0.000  -0.000  -0.000  -2.291   0.000  -0.000  -0.000   0.000  -0.000  -0.000  -0.000  -0.000   0.000
 -0.000   0.000   4.211   0.000   0.000   0.000  -0.000  -1.961  -0.000   0.000   0.000  -0.000   0.000   0.000  -0.000   0.000
 -0.000  -0.000  -0.000   4.355   0.000  -0.000   0.000   0.000  -2.291   0.000   0.000  -0.000   0.000  -0.000  -0.000  -0.000
  0.000   0.000   0.000   0.000   4.211   0.000  -0.000  -0.000   0.000  -1.961   0.000  -0.000   0.000   0.000   0.000   0.000
 -2.291  -0.000  -0.000  -0.000   0.000   2.144   0.000   0.000   0.000   0.000  -0.000  -0.000  -0.000  -0.000   0.000  -0.000
  0.000  -2.291  -0.000  -0.000  -0.000  -0.000   2.144  -0.000   0.000  -0.000  -0.000  -0.000  -0.000  -0.000   0.000   0.000
 -0.000   0.000  -1.961   0.000   0.000   0.000  -0.000   1.679   0.000   0.000   0.000   0.000  -0.000  -0.000   0.000  -0.000
  0.000  -0.000  -0.000  -2.291   0.000  -0.000   0.000   0.000   2.144  -0.000   0.000   0.000   0.000  -0.000  -0.000  -0.000
 -0.000  -0.000  -0.000   0.000  -1.961   0.000  -0.000  -0.000   0.000   1.679   0.000  -0.000   0.000   0.000   0.000   0.000
 -0.000   0.000  -0.000   0.000   0.000   0.000  -0.000   0.000  -0.000   0.000   2.316  -0.566   0.000   0.000   0.000   0.000
 -0.000  -0.000  -0.000   0.000  -0.000  -0.000  -0.000   0.000  -0.000  -0.000  -0.566   0.180   0.000   0.000   0.000  -0.000
 -0.000  -0.000   0.000   0.000   0.000   0.000  -0.000   0.000   0.000   0.000   0.000   0.000   0.153   0.000  -0.000  -0.005
 -0.000   0.000   0.000  -0.000   0.000  -0.000   0.000  -0.000   0.000   0.000   0.000   0.000   0.000   0.153  -0.000  -0.000
  0.000  -0.000   0.000  -0.000  -0.000   0.000   0.000   0.000  -0.000  -0.000   0.000   0.000  -0.000  -0.000   0.153   0.000
  0.000   0.000   0.000   0.000  -0.000  -0.000   0.000   0.000  -0.000   0.000   0.000  -0.000  -0.005  -0.000  -0.000   0.000
 -0.000   0.000  -0.000   0.000   0.000   0.000  -0.000  -0.000  -0.000  -0.000   0.000   0.000  -0.000  -0.005   0.000  -0.000
  0.000  -0.000  -0.000   0.000  -0.000   0.000   0.000   0.000  -0.000   0.000  -0.000  -0.000  -0.000   0.000  -0.005   0.000


------------------------ aborting loop because EDIFF is reached ----------------------------------------


    CHARGE:  cpu time    0.0130: real time    0.0132
    FORLOC:  cpu time    0.0002: real time    0.0002
    FORNL :  cpu time    0.0825: real time    0.0825
    STRESS:  cpu time    0.2734: real time    0.2736
    FORCOR:  cpu time    0.0038: real time    0.0039
    FORHAR:  cpu time    0.0009: real time    0.0009
    MIXING:  cpu time    0.0003: real time    0.0003
    OFIELD:  cpu time    0.0000: real time    0.0001

  FORCE on cell =-STRESS in cart. coord.  units (eV):
  Direction    XX          YY          ZZ          XY          YZ          ZX
  --------------------------------------------------------------------------------------
  Alpha Z   248.69558   248.69558   248.69558
  Ewald   -1263.21145 -1263.21145 -1263.21145    -0.00000    -0.00000    -0.00000
  Hartree   167.18665   167.18665   167.18665    -0.00000    -0.00000    -0.00000
  E(xc)    -197.68602  -197.68602  -197.68602     0.00000    -0.00000     0.00000
  Local     165.48530   165.48530   165.48530     0.00000     0.00000     0.00000
  n-local     9.77450   -13.24072   -17.71869     1.73682     7.29597     3.13205
  augment   271.69993   271.69993   271.69993    -0.00000     0.00000     0.00000
  Kinetic   616.01837   612.60026   608.19620    -4.79903    -1.99646    -2.72720
  Fock        0.00000     0.00000     0.00000     0.00000     0.00000     0.00000
  -------------------------------------------------------------------------------------
  Total      -2.62004    -2.62004    -2.62004     0.00000    -0.00000    -0.00000
  in kB     -56.01652   -56.01652   -56.01652     0.00000    -0.00000    -0.00000
  external pressure =      -56.02 kB  Pullay stress =        0.00 kB


 VOLUME and BASIS-vectors are now :
 -----------------------------------------------------------------------------
  energy-cutoff  :      400.00
  volume of cell :       74.94
      direct lattice vectors                 reciprocal lattice vectors
     4.216000000  0.000000000  0.000000000     0.237191651  0.000000000  0.000000000
     0.000000000  4.216000000  0.000000000     0.000000000  0.237191651  0.000000000
     0.000000000  0.000000000  4.216000000     0.000000000  0.000000000  0.237191651

  length of vectors
     4.216000000  4.216000000  4.216000000     0.237191651  0.237191651  0.237191651


 FORCES acting on ions
    electron-ion (+dipol)            ewald-force                    non-local-force                 convergence-correction
 -----------------------------------------------------------------------------------------------
   -.122E-13 -.228E-13 -.311E-13   -.709E-14 0.979E-15 -.954E-14   -.132E-22 -.132E-22 0.662E-23   0.489E-14 -.426E-13 -.706E-13
   -.134E-13 0.241E-12 0.227E-12   -.669E-14 0.733E-14 0.403E-14   0.000E+00 -.744E-23 0.538E-22   0.105E-13 0.510E-13 0.121E-13
   0.247E-12 -.236E-13 -.293E-11   0.803E-14 -.612E-14 0.404E-14   0.000E+00 0.463E-22 0.265E-22   -.127E-13 -.344E-13 0.135E-12
   0.245E-12 -.165E-11 -.235E-11   0.844E-14 0.231E-15 0.105E-14   0.000E+00 0.132E-22 -.199E-22   -.108E-13 0.113E-12 -.838E-14
 -----------------------------------------------------------------------------------------------
   0.466E-12 -.145E-11 -.508E-11   0.270E-14 0.242E-14 -.416E-15   -.132E-22 0.389E-22 0.670E-22   -.814E-14 0.865E-13 0.685E-13
 
 
 POSITION                                       TOTAL-FORCE (eV/Angst)
 -----------------------------------------------------------------------------------
      0.00000      0.00000      0.00000         0.000000     -0.000000      0.000000
      0.00000      2.10800      2.10800        -0.000000      0.000000     -0.000000
      2.10800      0.00000      2.10800        -0.000000     -0.000000      0.000000
      2.10800      2.10800      0.00000         0.000000      0.000000     -0.000000
 -----------------------------------------------------------------------------------
    total drift:                                0.000000     -0.000000     -0.000000


--------------------------------------------------------------------------------------------------------



  FREE ENERGIE OF THE ION-ELECTRON SYSTEM (eV)
  ---------------------------------------------------
  free  energy   TOTEN  =       -12.83442469 eV

  energy  without entropy=      -12.83407455  energy(sigma->0) =      -12.83430798
 


--------------------------------------------------------------------------------------------------------


    POTLOK:  cpu time    0.0065: real time    0.0065


--------------------------------------------------------------------------------------------------------


     LOOP+:  cpu time    6.9786: real time    7.0547
    4ORBIT:  cpu time    0.0000: real time    0.0000

 total amount of memory used by VASP on root node    39815. kBytes
========================================================================

   base      :      30000. kBytes
   nonl-proj :       7104. kBytes
   fftplans  :        221. kBytes
   grid      :        789. kBytes
   one-center:         62. kBytes
   wavefun   :       1639. kBytes
 
  
  
 General timing and accounting informations for this job:
 ========================================================
  
                  Total CPU time used (sec):       24.419
                            User time (sec):       24.296
                          System time (sec):        0.123
                         Elapsed time (sec):       26.345
  
                   Maximum memory used (kb):       47348.
                   Average memory used (kb):           0.
  
                          Minor page faults:        27722
                          Major page faults:           10
                 Voluntary context switches:         1453
