<?xml version="1.0" encoding="ISO-8859-1"?>
<modeling>
 <generator>
  <i name="program" type="string">vasp </i>
  <i name="version" type="string">5.4.1  </i>
  <i name="subversion" type="string">05Feb16 (build Feb 08 2018 09:21:51) complex                          parallel </i>
  <i name="platform" type="string">LinuxIFC </i>
  <i name="date" type="string">2019 11 21 </i>
  <i name="time" type="string">15:55:54 </i>
 </generator>
 <incar>
  <i type="string" name="PREC">normal</i>
  <i name="ENCUT">    400.00000000</i>
  <i type="int" name="ISMEAR">     1</i>
  <i name="SIGMA">      0.10000000</i>
  <i type="logical" name="LWAVE"> F  </i>
  <i type="logical" name="LCHARG"> F  </i>
  <v type="int" name="KPOINT_BSE">    -1     0     0     0</v>
 </incar>
 <kpoints>
  <generation param="Monkhorst-Pack">
   <v type="int" name="divisions">       9        9        9 </v>
   <v name="usershift">      0.00000000       0.00000000       0.00000000 </v>
   <v name="genvec1">      0.11111111       0.00000000       0.00000000 </v>
   <v name="genvec2">      0.00000000       0.11111111       0.00000000 </v>
   <v name="genvec3">      0.00000000       0.00000000       0.11111111 </v>
   <v name="shift">      0.00000000       0.00000000       0.00000000 </v>
  </generation>
  <varray name="kpointlist" >
   <v>       0.00000000       0.00000000       0.00000000 </v>
   <v>       0.11111111       0.00000000       0.00000000 </v>
   <v>       0.22222222       0.00000000       0.00000000 </v>
   <v>       0.33333333       0.00000000       0.00000000 </v>
   <v>       0.44444444       0.00000000       0.00000000 </v>
   <v>       0.11111111       0.11111111       0.00000000 </v>
   <v>       0.22222222       0.11111111       0.00000000 </v>
   <v>       0.33333333       0.11111111       0.00000000 </v>
   <v>       0.44444444       0.11111111       0.00000000 </v>
   <v>       0.22222222       0.22222222       0.00000000 </v>
   <v>       0.33333333       0.22222222       0.00000000 </v>
   <v>       0.44444444       0.22222222       0.00000000 </v>
   <v>       0.33333333       0.33333333       0.00000000 </v>
   <v>       0.44444444       0.33333333       0.00000000 </v>
   <v>       0.44444444       0.44444444       0.00000000 </v>
   <v>       0.11111111       0.11111111       0.11111111 </v>
   <v>       0.22222222       0.11111111       0.11111111 </v>
   <v>       0.33333333       0.11111111       0.11111111 </v>
   <v>       0.44444444       0.11111111       0.11111111 </v>
   <v>       0.22222222       0.22222222       0.11111111 </v>
   <v>       0.33333333       0.22222222       0.11111111 </v>
   <v>       0.44444444       0.22222222       0.11111111 </v>
   <v>       0.33333333       0.33333333       0.11111111 </v>
   <v>       0.44444444       0.33333333       0.11111111 </v>
   <v>       0.44444444       0.44444444       0.11111111 </v>
   <v>       0.22222222       0.22222222       0.22222222 </v>
   <v>       0.33333333       0.22222222       0.22222222 </v>
   <v>       0.44444444       0.22222222       0.22222222 </v>
   <v>       0.33333333       0.33333333       0.22222222 </v>
   <v>       0.44444444       0.33333333       0.22222222 </v>
   <v>       0.44444444       0.44444444       0.22222222 </v>
   <v>       0.33333333       0.33333333       0.33333333 </v>
   <v>       0.44444444       0.33333333       0.33333333 </v>
   <v>       0.44444444       0.44444444       0.33333333 </v>
   <v>       0.44444444       0.44444444       0.44444444 </v>
  </varray>
  <varray name="weights" >
   <v>       0.00137174 </v>
   <v>       0.00823045 </v>
   <v>       0.00823045 </v>
   <v>       0.00823045 </v>
   <v>       0.00823045 </v>
   <v>       0.01646091 </v>
   <v>       0.03292181 </v>
   <v>       0.03292181 </v>
   <v>       0.03292181 </v>
   <v>       0.01646091 </v>
   <v>       0.03292181 </v>
   <v>       0.03292181 </v>
   <v>       0.01646091 </v>
   <v>       0.03292181 </v>
   <v>       0.01646091 </v>
   <v>       0.01097394 </v>
   <v>       0.03292181 </v>
   <v>       0.03292181 </v>
   <v>       0.03292181 </v>
   <v>       0.03292181 </v>
   <v>       0.06584362 </v>
   <v>       0.06584362 </v>
   <v>       0.03292181 </v>
   <v>       0.06584362 </v>
   <v>       0.03292181 </v>
   <v>       0.01097394 </v>
   <v>       0.03292181 </v>
   <v>       0.03292181 </v>
   <v>       0.03292181 </v>
   <v>       0.06584362 </v>
   <v>       0.03292181 </v>
   <v>       0.01097394 </v>
   <v>       0.03292181 </v>
   <v>       0.03292181 </v>
   <v>       0.01097394 </v>
  </varray>
 </kpoints>
 <parameters>
  <separator name="general" >
   <i type="string" name="SYSTEM">unknown system</i>
   <i type="logical" name="LCOMPAT"> F  </i>
  </separator>
  <separator name="electronic" >
   <i type="string" name="PREC">normal</i>
   <i name="ENMAX">    400.00000000</i>
   <i name="ENAUG">    356.67000000</i>
   <i name="EDIFF">      0.00010000</i>
   <i type="int" name="IALGO">    38</i>
   <i type="int" name="IWAVPR">    10</i>
   <i type="int" name="NBANDS">    48</i>
   <i name="NELECT">     44.00000000</i>
   <i type="int" name="TURBO">     0</i>
   <i type="int" name="IRESTART">     0</i>
   <i type="int" name="NREBOOT">     0</i>
   <i type="int" name="NMIN">     0</i>
   <i name="EREF">      0.00000000</i>
   <separator name="electronic smearing" >
    <i type="int" name="ISMEAR">     1</i>
    <i name="SIGMA">      0.10000000</i>
    <i name="KSPACING">      0.50000000</i>
    <i type="logical" name="KGAMMA"> T  </i>
   </separator>
   <separator name="electronic projectors" >
    <i type="logical" name="LREAL"> F  </i>
    <v name="ROPT">      0.00000000</v>
    <i type="int" name="LMAXPAW">  -100</i>
    <i type="int" name="LMAXMIX">     2</i>
    <i type="logical" name="NLSPLINE"> F  </i>
   </separator>
   <separator name="electronic startup" >
    <i type="int" name="ISTART">     0</i>
    <i type="int" name="ICHARG">     2</i>
    <i type="int" name="INIWAV">     1</i>
   </separator>
   <separator name="electronic spin" >
    <i type="int" name="ISPIN">     1</i>
    <i type="logical" name="LNONCOLLINEAR"> F  </i>
    <v name="MAGMOM">      1.00000000      1.00000000      1.00000000      1.00000000</v>
    <i name="NUPDOWN">     -1.00000000</i>
    <i type="logical" name="LSORBIT"> F  </i>
    <v name="SAXIS">      0.00000000      0.00000000      1.00000000</v>
    <i type="logical" name="LSPIRAL"> F  </i>
    <v name="QSPIRAL">      0.00000000      0.00000000      0.00000000</v>
    <i type="logical" name="LZEROZ"> F  </i>
   </separator>
   <separator name="electronic exchange-correlation" >
    <i type="logical" name="LASPH"> F  </i>
    <i type="logical" name="LMETAGGA"> F  </i>
   </separator>
   <separator name="electronic convergence" >
    <i type="int" name="NELM">    60</i>
    <i type="int" name="NELMDL">    -5</i>
    <i type="int" name="NELMIN">     2</i>
    <i name="ENINI">    400.00000000</i>
    <separator name="electronic convergence detail" >
     <i type="logical" name="LDIAG"> T  </i>
     <i type="logical" name="LSUBROT"> F  </i>
     <i name="WEIMIN">      0.00000000</i>
     <i name="EBREAK">      0.00000052</i>
     <i name="DEPER">      0.30000000</i>
     <i type="int" name="NRMM">     4</i>
     <i name="TIME">      0.40000000</i>
    </separator>
   </separator>
   <separator name="electronic mixer" >
    <i name="AMIX">      0.40000000</i>
    <i name="BMIX">      1.00000000</i>
    <i name="AMIN">      0.10000000</i>
    <i name="AMIX_MAG">      1.60000000</i>
    <i name="BMIX_MAG">      1.00000000</i>
    <separator name="electronic mixer details" >
     <i type="int" name="IMIX">     4</i>
     <i type="logical" name="MIXFIRST"> F  </i>
     <i type="int" name="MAXMIX">   -45</i>
     <i name="WC">    100.00000000</i>
     <i type="int" name="INIMIX">     1</i>
     <i type="int" name="MIXPRE">     1</i>
     <i type="int" name="MREMOVE">     5</i>
    </separator>
   </separator>
   <separator name="electronic dipolcorrection" >
    <i type="logical" name="LDIPOL"> F  </i>
    <i type="logical" name="LMONO"> F  </i>
    <i type="int" name="IDIPOL">     0</i>
    <i name="EPSILON">      1.00000000</i>
    <v name="DIPOL">   -100.00000000   -100.00000000   -100.00000000</v>
    <i name="EFIELD">      0.00000000</i>
   </separator>
  </separator>
  <separator name="grids" >
   <i type="int" name="NGX">    24</i>
   <i type="int" name="NGY">    24</i>
   <i type="int" name="NGZ">    24</i>
   <i type="int" name="NGXF">    48</i>
   <i type="int" name="NGYF">    48</i>
   <i type="int" name="NGZF">    48</i>
   <i type="logical" name="ADDGRID"> F  </i>
  </separator>
  <separator name="ionic" >
   <i type="int" name="NSW">     0</i>
   <i type="int" name="IBRION">    -1</i>
   <i type="int" name="ISIF">     2</i>
   <i name="PSTRESS">      0.00000000</i>
   <i name="EDIFFG">      0.00100000</i>
   <i type="int" name="NFREE">     0</i>
   <i name="POTIM">      0.50000000</i>
   <i name="SMASS">     -3.00000000</i>
   <i name="SCALEE">      1.00000000</i>
  </separator>
  <separator name="ionic md" >
   <i name="TEBEG">      0.00010000</i>
   <i name="TEEND">      0.00010000</i>
   <i type="int" name="NBLOCK">     1</i>
   <i type="int" name="KBLOCK">     1</i>
   <i type="int" name="NPACO">   256</i>
   <i name="APACO">     16.00000000</i>
  </separator>
  <separator name="symmetry" >
   <i type="int" name="ISYM">     2</i>
   <i name="SYMPREC">      0.00001000</i>
  </separator>
  <separator name="dos" >
   <i type="logical" name="LORBIT"> F  </i>
   <v name="RWIGS">     -1.00000000</v>
   <i type="int" name="NEDOS">   301</i>
   <i name="EMIN">     10.00000000</i>
   <i name="EMAX">    -10.00000000</i>
   <i name="EFERMI">      0.00000000</i>
  </separator>
  <separator name="writing" >
   <i type="int" name="NWRITE">     2</i>
   <i type="logical" name="LWAVE"> F  </i>
   <i type="logical" name="LCHARG"> F  </i>
   <i type="logical" name="LPARD"> F  </i>
   <i type="logical" name="LVTOT"> F  </i>
   <i type="logical" name="LVHAR"> F  </i>
   <i type="logical" name="LELF"> F  </i>
   <i type="logical" name="LOPTICS"> F  </i>
   <v name="STM">      0.00000000      0.00000000      0.00000000      0.00000000      0.00000000      0.00000000      0.00000000</v>
  </separator>
  <separator name="performance" >
   <i type="int" name="NPAR">    24</i>
   <i type="int" name="NSIM">     4</i>
   <i type="int" name="NBLK">    -1</i>
   <i type="logical" name="LPLANE"> T  </i>
   <i type="logical" name="LSCALAPACK"> F  </i>
   <i type="logical" name="LSCAAWARE"> F  </i>
   <i type="logical" name="LSCALU"> F  </i>
   <i type="logical" name="LASYNC"> F  </i>
   <i type="logical" name="LORBITALREAL"> F  </i>
  </separator>
  <separator name="miscellaneous" >
   <i type="int" name="IDIOT">     3</i>
   <i type="logical" name="LMUSIC"> F  </i>
   <v name="POMASS">    196.96600000</v>
   <v name="DARWINR">      0.00000000</v>
   <v name="DARWINV">      1.00000000</v>
   <i type="logical" name="LCORR"> T  </i>
  </separator>
  <i type="logical" name="GGA_COMPAT"> T  </i>
  <i type="logical" name="LBERRY"> F  </i>
  <i type="int" name="ICORELEVEL">     0</i>
  <i type="logical" name="LDAU"> F  </i>
  <i type="int" name="I_CONSTRAINED_M">     0</i>
  <separator name="electronic exchange-correlation" >
   <i type="string" name="GGA">--</i>
   <i type="int" name="VOSKOWN">     0</i>
   <i type="logical" name="LHFCALC"> F  </i>
   <i type="string" name="PRECFOCK"></i>
   <i type="logical" name="LSYMGRAD"> F  </i>
   <i type="logical" name="LHFONE"> F  </i>
   <i type="logical" name="LRHFCALC"> F  </i>
   <i type="logical" name="LTHOMAS"> F  </i>
   <i type="logical" name="LMODELHF"> F  </i>
   <i name="ENCUT4O">     -1.00000000</i>
   <i type="int" name="EXXOEP">     0</i>
   <i type="int" name="FOURORBIT">     0</i>
   <i name="AEXX">      0.00000000</i>
   <i name="HFALPHA">      0.00000000</i>
   <i name="MCALPHA">      0.00000000</i>
   <i name="ALDAX">      1.00000000</i>
   <i name="AGGAX">      1.00000000</i>
   <i name="ALDAC">      1.00000000</i>
   <i name="AGGAC">      1.00000000</i>
   <i type="int" name="NKREDX">     1</i>
   <i type="int" name="NKREDY">     1</i>
   <i type="int" name="NKREDZ">     1</i>
   <i type="logical" name="SHIFTRED"> F  </i>
   <i type="logical" name="ODDONLY"> F  </i>
   <i type="logical" name="EVENONLY"> F  </i>
   <i type="int" name="LMAXFOCK">     0</i>
   <i type="int" name="NMAXFOCKAE">     0</i>
   <i type="logical" name="LFOCKAEDFT"> F  </i>
   <i name="HFSCREEN">      0.00000000</i>
   <i name="HFSCREENC">      0.00000000</i>
   <i type="int" name="NBANDSGWLOW">     0</i>
  </separator>
  <separator name="vdW DFT" >
   <i type="logical" name="LUSE_VDW"> F  </i>
   <i name="Zab_VDW">     -0.84910000</i>
   <i name="PARAM1">      0.12340000</i>
   <i name="PARAM2">      1.00000000</i>
   <i name="PARAM3">      0.00000000</i>
  </separator>
  <separator name="model GW" >
   <i type="int" name="MODEL_GW">     0</i>
   <i name="MODEL_EPS0">     11.24069245</i>
   <i name="MODEL_ALPHA">      1.00000000</i>
  </separator>
  <separator name="linear response parameters" >
   <i type="logical" name="LEPSILON"> F  </i>
   <i type="logical" name="LRPA"> F  </i>
   <i type="logical" name="LNABLA"> F  </i>
   <i type="logical" name="LVEL"> F  </i>
   <i type="int" name="KINTER">     0</i>
   <i name="CSHIFT">      0.10000000</i>
   <i name="OMEGAMAX">     -1.00000000</i>
   <i name="DEG_THRESHOLD">      0.00200000</i>
  </separator>
  <separator name="orbital magnetization" >
   <i type="logical" name="NUCIND"> F  </i>
   <v name="MAGPOS">      0.00000000      0.00000000      0.00000000</v>
   <i type="logical" name="LNICSALL"> T  </i>
   <i type="logical" name="ORBITALMAG"> F  </i>
   <i type="logical" name="LMAGBLOCH"> F  </i>
   <i type="logical" name="LCHIMAG"> F  </i>
   <i type="logical" name="LGAUGE"> T  </i>
   <i type="int" name="MAGATOM">     0</i>
   <v name="MAGDIPOL">      0.00000000      0.00000000      0.00000000</v>
   <v name="AVECCONST">      0.00000000      0.00000000      0.00000000</v>
  </separator>
  <separator name="response functions" >
   <i type="logical" name="LADDER"> F  </i>
   <i type="logical" name="LFXC"> F  </i>
   <i type="logical" name="LHARTREE"> T  </i>
   <i type="int" name="IBSE">     0</i>
   <v type="int" name="KPOINT">    -1     0     0     0</v>
   <i type="logical" name="LTCTE"> F  </i>
   <i type="logical" name="LTETE"> F  </i>
   <i type="logical" name="LTRIPLET"> F  </i>
   <i type="logical" name="LFXCEPS"> F  </i>
   <i type="logical" name="LFXHEG"> F  </i>
   <i type="int" name="NATURALO">     0</i>
   <i type="logical" name="L2ORDER"> F  </i>
   <i type="logical" name="LUSEW"> F  </i>
   <i name="ENCUTGW">     -2.00000000</i>
   <i name="ENCUTGWSOFT">     -2.00000000</i>
   <i name="ENCUTLF">     -1.00000000</i>
   <i type="int" name="LMAXMP2">    -1</i>
   <i name="SCISSOR">      0.00000000</i>
   <i type="int" name="NOMEGA">     0</i>
   <i type="int" name="NOMEGAR">     0</i>
   <i type="int" name="NBANDSGW">    -1</i>
   <i type="int" name="NBANDSO">    -1</i>
   <i type="int" name="NBANDSV">    -1</i>
   <i type="int" name="NELM">     1</i>
   <i type="int" name="NELMHF">     1</i>
   <i type="int" name="DIM">     3</i>
   <i type="int" name="ANTIRES">     0</i>
   <i name="OMEGAMAX">    -30.00000000</i>
   <i name="OMEGAMIN">    -30.00000000</i>
   <i name="OMEGATL">   -200.00000000</i>
   <i type="int" name="OMEGAGRID">     0</i>
   <i name="CSHIFT">     -0.10000000</i>
   <i type="logical" name="SELFENERGY"> F  </i>
   <i type="logical" name="LSPECTRAL"> F  </i>
   <i type="logical" name="LSPECTRALGW"> F  </i>
   <i type="logical" name="LSINGLES"> F  </i>
   <i type="logical" name="LFERMIGW"> F  </i>
   <i type="logical" name="ODDONLYGW"> F  </i>
   <i type="logical" name="EVENONLYGW"> F  </i>
   <i type="int" name="NKREDLFX">     1</i>
   <i type="int" name="NKREDLFY">     1</i>
   <i type="int" name="NKREDLFZ">     1</i>
   <i type="int" name="MAXMEM">  1800</i>
   <i type="int" name="TELESCOPE">     0</i>
   <i type="int" name="TAUPAR">     1</i>
   <i type="int" name="OMEGAPAR">    -1</i>
   <i name="LAMBDA">      1.00000000</i>
  </separator>
  <separator name="External order field" >
   <i name="OFIELD_KAPPA">      0.00000000</i>
   <v name="OFIELD_K">      0.00000000      0.00000000      0.00000000</v>
   <i name="OFIELD_Q6_NEAR">      0.00000000</i>
   <i name="OFIELD_Q6_FAR">      0.00000000</i>
   <i name="OFIELD_A">      0.00000000</i>
  </separator>
 </parameters>
 <atominfo>
  <atoms>       4 </atoms>
  <types>       1 </types>
  <array name="atoms" >
   <dimension dim="1">ion</dimension>
   <field type="string">element</field>
   <field type="int">atomtype</field>
   <set>
    <rc><c>Au</c><c>   1</c></rc>
    <rc><c>Au</c><c>   1</c></rc>
    <rc><c>Au</c><c>   1</c></rc>
    <rc><c>Au</c><c>   1</c></rc>
   </set>
  </array>
  <array name="atomtypes" >
   <dimension dim="1">type</dimension>
   <field type="int">atomspertype</field>
   <field type="string">element</field>
   <field>mass</field>
   <field>valence</field>
   <field type="string">pseudopotential</field>
   <set>
    <rc><c>   4</c><c>Au</c><c>    196.96600000</c><c>     11.00000000</c><c>  PAW_PBE Au 04Oct2007                  </c></rc>
   </set>
  </array>
 </atominfo>
 <structure name="initialpos" >
  <crystal>
   <varray name="basis" >
    <v>       4.21600000       0.00000000       0.00000000 </v>
    <v>       0.00000000       4.21600000       0.00000000 </v>
    <v>       0.00000000       0.00000000       4.21600000 </v>
   </varray>
   <i name="volume">     74.93794970 </i>
   <varray name="rec_basis" >
    <v>       0.23719165       0.00000000       0.00000000 </v>
    <v>       0.00000000       0.23719165       0.00000000 </v>
    <v>       0.00000000       0.00000000       0.23719165 </v>
   </varray>
  </crystal>
  <varray name="positions" >
   <v>       0.00000000       0.00000000       0.00000000 </v>
   <v>       0.00000000       0.50000000       0.50000000 </v>
   <v>       0.50000000       0.00000000       0.50000000 </v>
   <v>       0.50000000       0.50000000       0.00000000 </v>
  </varray>
 </structure>
 <calculation>
  <scstep>
   <time name="dav">    0.53    0.53</time>
   <time name="total">    0.55    0.55</time>
   <energy>
    <i name="alphaZ">    248.69557915 </i>
    <i name="ewald">  -3789.63268008 </i>
    <i name="hartreedc">   -545.50936542 </i>
    <i name="XCdc">     61.36513191 </i>
    <i name="pawpsdc">   3496.39001341 </i>
    <i name="pawaedc">  -3404.04053930 </i>
    <i name="eentropy">     -0.00116469 </i>
    <i name="bandstr">    408.66263041 </i>
    <i name="atom">   3704.32207507 </i>
    <i name="e_fr_energy">    180.25168047 </i>
    <i name="e_wo_entrp">    180.25284516 </i>
    <i name="e_0_energy">    180.25206870 </i>
   </energy>
  </scstep>
  <scstep>
   <time name="dav">    0.72    0.72</time>
   <time name="total">    0.72    0.73</time>
   <energy>
    <i name="e_fr_energy">    -11.44256315 </i>
    <i name="e_wo_entrp">    -11.44214791 </i>
    <i name="e_0_energy">    -11.44242474 </i>
   </energy>
  </scstep>
  <scstep>
   <time name="dav">    0.70    0.70</time>
   <time name="total">    0.70    0.70</time>
   <energy>
    <i name="e_fr_energy">    -13.85601798 </i>
    <i name="e_wo_entrp">    -13.85495353 </i>
    <i name="e_0_energy">    -13.85566317 </i>
   </energy>
  </scstep>
  <scstep>
   <time name="dav">    0.82    0.82</time>
   <time name="total">    0.82    0.83</time>
   <energy>
    <i name="e_fr_energy">    -13.86649511 </i>
    <i name="e_wo_entrp">    -13.86542952 </i>
    <i name="e_0_energy">    -13.86613991 </i>
   </energy>
  </scstep>
  <scstep>
   <time name="dav">    0.70    0.70</time>
   <time name="total">    0.71    0.72</time>
   <energy>
    <i name="e_fr_energy">    -13.86659827 </i>
    <i name="e_wo_entrp">    -13.86553266 </i>
    <i name="e_0_energy">    -13.86624306 </i>
   </energy>
  </scstep>
  <scstep>
   <time name="dav">    0.75    0.75</time>
   <time name="total">    0.77    0.77</time>
   <energy>
    <i name="e_fr_energy">    -12.89298897 </i>
    <i name="e_wo_entrp">    -12.89219542 </i>
    <i name="e_0_energy">    -12.89272445 </i>
   </energy>
  </scstep>
  <scstep>
   <time name="dav">    0.76    0.81</time>
   <time name="total">    0.79    0.84</time>
   <energy>
    <i name="e_fr_energy">    -12.84027271 </i>
    <i name="e_wo_entrp">    -12.83986647 </i>
    <i name="e_0_energy">    -12.84013730 </i>
   </energy>
  </scstep>
  <scstep>
   <time name="dav">    0.80    0.80</time>
   <time name="total">    0.82    0.83</time>
   <energy>
    <i name="e_fr_energy">    -12.83446573 </i>
    <i name="e_wo_entrp">    -12.83411393 </i>
    <i name="e_0_energy">    -12.83434846 </i>
   </energy>
  </scstep>
  <scstep>
   <time name="dav">    0.67    0.67</time>
   <time name="total">    0.68    0.69</time>
   <energy>
    <i name="alphaZ">    248.69557915 </i>
    <i name="ewald">  -3789.63268008 </i>
    <i name="hartreedc">   -501.60081836 </i>
    <i name="XCdc">     59.38242202 </i>
    <i name="pawpsdc">   4002.79768939 </i>
    <i name="pawaedc">  -3919.32559795 </i>
    <i name="eentropy">     -0.00035014 </i>
    <i name="bandstr">    182.52725621 </i>
    <i name="atom">   3704.32207507 </i>
    <i name="e_fr_energy">    -12.83442469 </i>
    <i name="e_wo_entrp">    -12.83407455 </i>
    <i name="e_0_energy">    -12.83430798 </i>
   </energy>
  </scstep>
  <structure>
   <crystal>
    <varray name="basis" >
     <v>       4.21600000       0.00000000       0.00000000 </v>
     <v>       0.00000000       4.21600000       0.00000000 </v>
     <v>       0.00000000       0.00000000       4.21600000 </v>
    </varray>
    <i name="volume">     74.93794970 </i>
    <varray name="rec_basis" >
     <v>       0.23719165       0.00000000       0.00000000 </v>
     <v>       0.00000000       0.23719165       0.00000000 </v>
     <v>       0.00000000       0.00000000       0.23719165 </v>
    </varray>
   </crystal>
   <varray name="positions" >
    <v>       0.00000000       0.00000000       0.00000000 </v>
    <v>       0.00000000       0.50000000       0.50000000 </v>
    <v>       0.50000000       0.00000000       0.50000000 </v>
    <v>       0.50000000       0.50000000       0.00000000 </v>
   </varray>
  </structure>
  <varray name="forces" >
   <v>       0.00000000      -0.00000000       0.00000000 </v>
   <v>      -0.00000000       0.00000000      -0.00000000 </v>
   <v>      -0.00000000      -0.00000000       0.00000000 </v>
   <v>       0.00000000       0.00000000      -0.00000000 </v>
  </varray>
  <varray name="stress" >
   <v>     -56.01652425      -0.00000000      -0.00000000 </v>
   <v>       0.00000000     -56.01652425       0.00000000 </v>
   <v>      -0.00000000      -0.00000000     -56.01652425 </v>
  </varray>
  <energy>
   <i name="e_fr_energy">    -12.83442469 </i>
   <i name="e_wo_entrp">    -12.83430798 </i>
   <i name="e_0_energy">     -0.00035014 </i>
  </energy>
  <time name="totalsc">    6.98    7.05</time>
  <eigenvalues>
   <array>
    <dimension dim="1">band</dimension>
    <dimension dim="2">kpoint</dimension>
    <dimension dim="3">spin</dimension>
    <field>eigene</field>
    <field>occ</field>
    <set>
     <set comment="spin 1">
      <set comment="kpoint 1">
       <r>   -0.9216    1.0000 </r>
       <r>    1.7383    1.0000 </r>
       <r>    1.7383    1.0000 </r>
       <r>    1.7383    1.0000 </r>
       <r>    2.0022    1.0000 </r>
       <r>    2.0022    1.0000 </r>
       <r>    2.0022    1.0000 </r>
       <r>    3.7553    1.0000 </r>
       <r>    3.7553    1.0000 </r>
       <r>    3.7553    1.0000 </r>
       <r>    5.0371    1.0000 </r>
       <r>    5.0371    1.0000 </r>
       <r>    6.0120    1.0000 </r>
       <r>    6.0120    1.0000 </r>
       <r>    6.0120    1.0000 </r>
       <r>    6.3207    1.0000 </r>
       <r>    6.3207    1.0000 </r>
       <r>    6.3207    1.0000 </r>
       <r>    6.3207    1.0000 </r>
       <r>    6.3207    1.0000 </r>
       <r>    6.3207    1.0000 </r>
       <r>    9.2569   -0.0000 </r>
       <r>    9.2569   -0.0000 </r>
       <r>    9.2569   -0.0000 </r>
       <r>   13.0165    0.0000 </r>
       <r>   13.0165    0.0000 </r>
       <r>   13.0165    0.0000 </r>
       <r>   17.7073    0.0000 </r>
       <r>   17.7073    0.0000 </r>
       <r>   17.7073    0.0000 </r>
       <r>   17.7073    0.0000 </r>
       <r>   17.7073    0.0000 </r>
       <r>   17.7073    0.0000 </r>
       <r>   22.5847    0.0000 </r>
       <r>   24.1797    0.0000 </r>
       <r>   24.1797    0.0000 </r>
       <r>   24.1797    0.0000 </r>
       <r>   26.0363    0.0000 </r>
       <r>   26.0363    0.0000 </r>
       <r>   26.0363    0.0000 </r>
       <r>   26.5376    0.0000 </r>
       <r>   26.5376    0.0000 </r>
       <r>   26.5376    0.0000 </r>
       <r>   30.6555    0.0000 </r>
       <r>   34.3390    0.0000 </r>
       <r>   34.3390    0.0000 </r>
       <r>   34.3392    0.0000 </r>
       <r>   34.7840    0.0000 </r>
      </set>
      <set comment="kpoint 2">
       <r>   -0.7893    1.0000 </r>
       <r>    1.7790    1.0000 </r>
       <r>    1.8230    1.0000 </r>
       <r>    1.8230    1.0000 </r>
       <r>    2.0477    1.0000 </r>
       <r>    2.0714    1.0000 </r>
       <r>    2.0714    1.0000 </r>
       <r>    3.6929    1.0000 </r>
       <r>    3.8110    1.0000 </r>
       <r>    3.8110    1.0000 </r>
       <r>    4.9713    1.0000 </r>
       <r>    5.0643    1.0000 </r>
       <r>    5.9186    1.0000 </r>
       <r>    5.9186    1.0000 </r>
       <r>    5.9459    1.0000 </r>
       <r>    5.9459    1.0000 </r>
       <r>    5.9802    1.0000 </r>
       <r>    6.2067    1.0000 </r>
       <r>    6.2067    1.0000 </r>
       <r>    6.3209    1.0000 </r>
       <r>    6.3209    1.0000 </r>
       <r>    8.2876   -0.0000 </r>
       <r>    9.7292   -0.0000 </r>
       <r>    9.7292   -0.0000 </r>
       <r>   12.9093    0.0000 </r>
       <r>   12.9093    0.0000 </r>
       <r>   14.2179    0.0000 </r>
       <r>   17.4702    0.0000 </r>
       <r>   17.4702    0.0000 </r>
       <r>   17.5474    0.0000 </r>
       <r>   17.5474    0.0000 </r>
       <r>   17.9710    0.0000 </r>
       <r>   17.9710    0.0000 </r>
       <r>   22.7239    0.0000 </r>
       <r>   24.1017    0.0000 </r>
       <r>   24.7719    0.0000 </r>
       <r>   24.7719    0.0000 </r>
       <r>   25.5571    0.0000 </r>
       <r>   25.8907    0.0000 </r>
       <r>   25.8907    0.0000 </r>
       <r>   26.4403    0.0000 </r>
       <r>   26.7140    0.0000 </r>
       <r>   26.7140    0.0000 </r>
       <r>   31.5059    0.0000 </r>
       <r>   33.1287    0.0000 </r>
       <r>   33.1287    0.0000 </r>
       <r>   34.2502    0.0000 </r>
       <r>   34.4714    0.0000 </r>
      </set>
      <set comment="kpoint 3">
       <r>   -0.4005    1.0000 </r>
       <r>    1.8724    1.0000 </r>
       <r>    2.0603    1.0000 </r>
       <r>    2.0603    1.0000 </r>
       <r>    2.1806    1.0000 </r>
       <r>    2.2784    1.0000 </r>
       <r>    2.2784    1.0000 </r>
       <r>    3.5175    1.0000 </r>
       <r>    3.9762    1.0000 </r>
       <r>    3.9762    1.0000 </r>
       <r>    4.7902    1.0000 </r>
       <r>    5.1434    1.0000 </r>
       <r>    5.1950    1.0000 </r>
       <r>    5.1950    1.0000 </r>
       <r>    5.6543    1.0000 </r>
       <r>    5.6543    1.0000 </r>
       <r>    5.8895    1.0000 </r>
       <r>    5.8998    1.0000 </r>
       <r>    5.8998    1.0000 </r>
       <r>    6.3214    1.0000 </r>
       <r>    6.3214    1.0000 </r>
       <r>    6.6941    1.0000 </r>
       <r>   10.7674    0.0000 </r>
       <r>   10.7674    0.0000 </r>
       <r>   12.6505    0.0000 </r>
       <r>   12.6505    0.0000 </r>
       <r>   16.5285    0.0000 </r>
       <r>   16.8038    0.0000 </r>
       <r>   16.8038    0.0000 </r>
       <r>   17.2371    0.0000 </r>
       <r>   17.2371    0.0000 </r>
       <r>   18.7210    0.0000 </r>
       <r>   18.7210    0.0000 </r>
       <r>   23.1186    0.0000 </r>
       <r>   23.9089    0.0000 </r>
       <r>   24.7231    0.0000 </r>
       <r>   25.3354    0.0000 </r>
       <r>   25.3354    0.0000 </r>
       <r>   26.1523    0.0000 </r>
       <r>   26.3072    0.0000 </r>
       <r>   26.3072    0.0000 </r>
       <r>   27.2326    0.0000 </r>
       <r>   27.2326    0.0000 </r>
       <r>   31.2583    0.0000 </r>
       <r>   32.0841    0.0000 </r>
       <r>   32.0841    0.0000 </r>
       <r>   33.5670    0.0000 </r>
       <r>   33.5674    0.0000 </r>
      </set>
      <set comment="kpoint 4">
       <r>    0.2136    1.0000 </r>
       <r>    1.9047    1.0000 </r>
       <r>    2.3889    1.0000 </r>
       <r>    2.3889    1.0000 </r>
       <r>    2.3905    1.0000 </r>
       <r>    2.6216    1.0000 </r>
       <r>    2.6216    1.0000 </r>
       <r>    3.2600    1.0000 </r>
       <r>    4.2445    1.0000 </r>
       <r>    4.2445    1.0000 </r>
       <r>    4.4101    1.0000 </r>
       <r>    4.4101    1.0000 </r>
       <r>    4.5483    1.0000 </r>
       <r>    5.2665    1.0000 </r>
       <r>    5.2867    1.0000 </r>
       <r>    5.2867    1.0000 </r>
       <r>    5.3174    1.0000 </r>
       <r>    5.4798    1.0000 </r>
       <r>    5.4798    1.0000 </r>
       <r>    5.7530    1.0000 </r>
       <r>    6.3219    1.0000 </r>
       <r>    6.3219    1.0000 </r>
       <r>   12.0119    0.0000 </r>
       <r>   12.0119    0.0000 </r>
       <r>   12.3796    0.0000 </r>
       <r>   12.3796    0.0000 </r>
       <r>   15.8146    0.0000 </r>
       <r>   15.8146    0.0000 </r>
       <r>   16.9838    0.0000 </r>
       <r>   16.9838    0.0000 </r>
       <r>   19.1983    0.0000 </r>
       <r>   19.8584    0.0000 </r>
       <r>   19.8584    0.0000 </r>
       <r>   23.7025    0.0000 </r>
       <r>   23.7046    0.0000 </r>
       <r>   24.0590    0.0000 </r>
       <r>   24.2432    0.0000 </r>
       <r>   24.2432    0.0000 </r>
       <r>   25.6881    0.0000 </r>
       <r>   28.0697    0.0000 </r>
       <r>   28.0697    0.0000 </r>
       <r>   28.2250    0.0000 </r>
       <r>   28.3850    0.0000 </r>
       <r>   28.3850    0.0000 </r>
       <r>   31.9047    0.0000 </r>
       <r>   31.9047    0.0000 </r>
       <r>   32.1047    0.0000 </r>
       <r>   32.1047    0.0000 </r>
      </set>
      <set comment="kpoint 5">
       <r>    0.9667    1.0000 </r>
       <r>    1.6313    1.0000 </r>
       <r>    2.6593    1.0000 </r>
       <r>    2.6633    1.0000 </r>
       <r>    2.6633    1.0000 </r>
       <r>    2.9605    1.0000 </r>
       <r>    3.0976    1.0000 </r>
       <r>    3.0976    1.0000 </r>
       <r>    3.6988    1.0000 </r>
       <r>    3.6988    1.0000 </r>
       <r>    4.3670    1.0000 </r>
       <r>    4.5127    1.0000 </r>
       <r>    4.6026    1.0000 </r>
       <r>    4.6026    1.0000 </r>
       <r>    4.9821    1.0000 </r>
       <r>    4.9821    1.0000 </r>
       <r>    5.0273    1.0000 </r>
       <r>    5.0273    1.0000 </r>
       <r>    5.4210    1.0000 </r>
       <r>    5.5899    1.0000 </r>
       <r>    6.3223    1.0000 </r>
       <r>    6.3223    1.0000 </r>
       <r>   12.2164    0.0000 </r>
       <r>   12.2164    0.0000 </r>
       <r>   13.3246    0.0000 </r>
       <r>   13.3246    0.0000 </r>
       <r>   14.6206    0.0000 </r>
       <r>   14.6206    0.0000 </r>
       <r>   16.8535    0.0000 </r>
       <r>   16.8535    0.0000 </r>
       <r>   21.2620    0.0000 </r>
       <r>   21.2620    0.0000 </r>
       <r>   22.0725    0.0000 </r>
       <r>   22.7907    0.0000 </r>
       <r>   22.7907    0.0000 </r>
       <r>   23.6025    0.0000 </r>
       <r>   23.6807    0.0000 </r>
       <r>   24.3914    0.0000 </r>
       <r>   25.0810    0.0000 </r>
       <r>   25.1195    0.0000 </r>
       <r>   29.1969    0.0000 </r>
       <r>   29.1969    0.0000 </r>
       <r>   30.5381    0.0000 </r>
       <r>   30.5381    0.0000 </r>
       <r>   30.5717    0.0000 </r>
       <r>   30.5717    0.0000 </r>
       <r>   32.5169    0.0000 </r>
       <r>   32.5169    0.0000 </r>
      </set>
      <set comment="kpoint 6">
       <r>   -0.6594    1.0000 </r>
       <r>    1.8652    1.0000 </r>
       <r>    1.8652    1.0000 </r>
       <r>    1.8877    1.0000 </r>
       <r>    2.1153    1.0000 </r>
       <r>    2.1153    1.0000 </r>
       <r>    2.1542    1.0000 </r>
       <r>    3.6687    1.0000 </r>
       <r>    3.8316    1.0000 </r>
       <r>    3.8580    1.0000 </r>
       <r>    4.9551    1.0000 </r>
       <r>    5.0529    1.0000 </r>
       <r>    5.7157    1.0000 </r>
       <r>    5.7171    1.0000 </r>
       <r>    5.7171    1.0000 </r>
       <r>    5.8344    1.0000 </r>
       <r>    5.9713    1.0000 </r>
       <r>    5.9713    1.0000 </r>
       <r>    6.2063    1.0000 </r>
       <r>    6.2063    1.0000 </r>
       <r>    6.2445    1.0000 </r>
       <r>    8.7521   -0.0000 </r>
       <r>    8.7521   -0.0000 </r>
       <r>   10.1347   -0.0000 </r>
       <r>   12.7747    0.0000 </r>
       <r>   14.1093    0.0000 </r>
       <r>   14.1093    0.0000 </r>
       <r>   16.6481    0.0000 </r>
       <r>   17.7274    0.0000 </r>
       <r>   17.7274    0.0000 </r>
       <r>   17.8238    0.0000 </r>
       <r>   17.8238    0.0000 </r>
       <r>   18.2015    0.0000 </r>
       <r>   22.8270    0.0000 </r>
       <r>   24.5910    0.0000 </r>
       <r>   24.7105    0.0000 </r>
       <r>   24.7105    0.0000 </r>
       <r>   24.8869    0.0000 </r>
       <r>   25.7631    0.0000 </r>
       <r>   26.5625    0.0000 </r>
       <r>   26.6286    0.0000 </r>
       <r>   26.6286    0.0000 </r>
       <r>   27.1572    0.0000 </r>
       <r>   31.0851    0.0000 </r>
       <r>   32.8483    0.0000 </r>
       <r>   33.0111    0.0000 </r>
       <r>   34.1493    0.0000 </r>
       <r>   34.3618    0.0000 </r>
      </set>
      <set comment="kpoint 7">
       <r>   -0.2779    1.0000 </r>
       <r>    1.9632    1.0000 </r>
       <r>    2.0769    1.0000 </r>
       <r>    2.1075    1.0000 </r>
       <r>    2.2435    1.0000 </r>
       <r>    2.3174    1.0000 </r>
       <r>    2.3898    1.0000 </r>
       <r>    3.5194    1.0000 </r>
       <r>    3.9791    1.0000 </r>
       <r>    3.9918    1.0000 </r>
       <r>    4.8079    1.0000 </r>
       <r>    4.9817    1.0000 </r>
       <r>    5.0908    1.0000 </r>
       <r>    5.1355    1.0000 </r>
       <r>    5.2943    1.0000 </r>
       <r>    5.5938    1.0000 </r>
       <r>    5.7002    1.0000 </r>
       <r>    5.8728    1.0000 </r>
       <r>    5.8981    1.0000 </r>
       <r>    6.2051    1.0000 </r>
       <r>    6.2055    1.0000 </r>
       <r>    7.2876    1.0000 </r>
       <r>    9.6433   -0.0000 </r>
       <r>   11.0898    0.0000 </r>
       <r>   12.4339    0.0000 </r>
       <r>   13.8777    0.0000 </r>
       <r>   15.8634    0.0000 </r>
       <r>   16.2457    0.0000 </r>
       <r>   17.0478    0.0000 </r>
       <r>   17.5760    0.0000 </r>
       <r>   18.4027    0.0000 </r>
       <r>   18.4557    0.0000 </r>
       <r>   18.6539    0.0000 </r>
       <r>   23.0694    0.0000 </r>
       <r>   23.4791    0.0000 </r>
       <r>   24.5809    0.0000 </r>
       <r>   25.3361    0.0000 </r>
       <r>   25.4797    0.0000 </r>
       <r>   26.2475    0.0000 </r>
       <r>   26.3767    0.0000 </r>
       <r>   26.6297    0.0000 </r>
       <r>   27.1761    0.0000 </r>
       <r>   28.2869    0.0000 </r>
       <r>   29.9360    0.0000 </r>
       <r>   32.2363    0.0000 </r>
       <r>   32.5510    0.0000 </r>
       <r>   33.5352    0.0000 </r>
       <r>   33.6030    0.0000 </r>
      </set>
      <set comment="kpoint 8">
       <r>    0.3245    1.0000 </r>
       <r>    2.0011    1.0000 </r>
       <r>    2.3731    1.0000 </r>
       <r>    2.4457    1.0000 </r>
       <r>    2.4458    1.0000 </r>
       <r>    2.6519    1.0000 </r>
       <r>    2.7303    1.0000 </r>
       <r>    3.2778    1.0000 </r>
       <r>    4.1570    1.0000 </r>
       <r>    4.2294    1.0000 </r>
       <r>    4.2431    1.0000 </r>
       <r>    4.3690    1.0000 </r>
       <r>    4.6453    1.0000 </r>
       <r>    4.6880    1.0000 </r>
       <r>    5.2555    1.0000 </r>
       <r>    5.2894    1.0000 </r>
       <r>    5.3424    1.0000 </r>
       <r>    5.4771    1.0000 </r>
       <r>    5.6276    1.0000 </r>
       <r>    6.1982    1.0000 </r>
       <r>    6.2032    1.0000 </r>
       <r>    6.2282    1.0000 </r>
       <r>   10.5256   -0.0000 </r>
       <r>   12.0266    0.0000 </r>
       <r>   12.2849    0.0000 </r>
       <r>   13.7579    0.0000 </r>
       <r>   15.1682    0.0000 </r>
       <r>   16.0490    0.0000 </r>
       <r>   17.4507    0.0000 </r>
       <r>   18.1503    0.0000 </r>
       <r>   18.3547    0.0000 </r>
       <r>   19.5482    0.0000 </r>
       <r>   20.1434    0.0000 </r>
       <r>   22.4316    0.0000 </r>
       <r>   23.0820    0.0000 </r>
       <r>   24.5302    0.0000 </r>
       <r>   24.8284    0.0000 </r>
       <r>   25.7621    0.0000 </r>
       <r>   25.9749    0.0000 </r>
       <r>   26.5959    0.0000 </r>
       <r>   28.0475    0.0000 </r>
       <r>   28.1539    0.0000 </r>
       <r>   28.2909    0.0000 </r>
       <r>   29.9151    0.0000 </r>
       <r>   31.4340    0.0000 </r>
       <r>   32.1348    0.0000 </r>
       <r>   32.1756    0.0000 </r>
       <r>   32.1928    0.0000 </r>
      </set>
      <set comment="kpoint 9">
       <r>    1.0649    1.0000 </r>
       <r>    1.7263    1.0000 </r>
       <r>    2.6923    1.0000 </r>
       <r>    2.7040    1.0000 </r>
       <r>    2.7304    1.0000 </r>
       <r>    2.9926    1.0000 </r>
       <r>    3.1014    1.0000 </r>
       <r>    3.1138    1.0000 </r>
       <r>    3.5794    1.0000 </r>
       <r>    3.6932    1.0000 </r>
       <r>    4.1541    1.0000 </r>
       <r>    4.2148    1.0000 </r>
       <r>    4.5998    1.0000 </r>
       <r>    4.7794    1.0000 </r>
       <r>    4.9855    1.0000 </r>
       <r>    5.0242    1.0000 </r>
       <r>    5.0248    1.0000 </r>
       <r>    5.1855    1.0000 </r>
       <r>    5.4920    1.0000 </r>
       <r>    5.7498    1.0000 </r>
       <r>    6.1984    1.0000 </r>
       <r>    6.2007    1.0000 </r>
       <r>   11.1920    0.0000 </r>
       <r>   11.6372    0.0000 </r>
       <r>   13.5707    0.0000 </r>
       <r>   13.9732    0.0000 </r>
       <r>   14.5106    0.0000 </r>
       <r>   14.8549    0.0000 </r>
       <r>   17.5155    0.0000 </r>
       <r>   17.7742    0.0000 </r>
       <r>   20.0090    0.0000 </r>
       <r>   20.8647    0.0000 </r>
       <r>   21.3273    0.0000 </r>
       <r>   22.2002    0.0000 </r>
       <r>   22.3468    0.0000 </r>
       <r>   24.4384    0.0000 </r>
       <r>   24.8037    0.0000 </r>
       <r>   24.9661    0.0000 </r>
       <r>   25.4670    0.0000 </r>
       <r>   26.0005    0.0000 </r>
       <r>   27.9398    0.0000 </r>
       <r>   29.0113    0.0000 </r>
       <r>   29.2083    0.0000 </r>
       <r>   30.6156    0.0000 </r>
       <r>   31.8625    0.0000 </r>
       <r>   31.9389    0.0000 </r>
       <r>   32.0474    0.0000 </r>
       <r>   32.7133    0.0000 </r>
      </set>
      <set comment="kpoint 10">
       <r>    0.0816    1.0000 </r>
       <r>    2.1789    1.0000 </r>
       <r>    2.2209    1.0000 </r>
       <r>    2.2209    1.0000 </r>
       <r>    2.4310    1.0000 </r>
       <r>    2.4310    1.0000 </r>
       <r>    2.6540    1.0000 </r>
       <r>    3.4674    1.0000 </r>
       <r>    4.0379    1.0000 </r>
       <r>    4.0522    1.0000 </r>
       <r>    4.5328    1.0000 </r>
       <r>    4.5328    1.0000 </r>
       <r>    4.7499    1.0000 </r>
       <r>    4.7616    1.0000 </r>
       <r>    5.2207    1.0000 </r>
       <r>    5.4134    1.0000 </r>
       <r>    5.6672    1.0000 </r>
       <r>    5.6672    1.0000 </r>
       <r>    5.8938    1.0000 </r>
       <r>    5.8938    1.0000 </r>
       <r>    6.0238    1.0000 </r>
       <r>    8.1643   -0.0001 </r>
       <r>    8.1643   -0.0001 </r>
       <r>   11.8653    0.0000 </r>
       <r>   11.9136    0.0000 </r>
       <r>   15.1258    0.0000 </r>
       <r>   15.6005    0.0000 </r>
       <r>   15.6005    0.0000 </r>
       <r>   17.7329    0.0000 </r>
       <r>   17.7329    0.0000 </r>
       <r>   18.6429    0.0000 </r>
       <r>   18.6429    0.0000 </r>
       <r>   19.5606    0.0000 </r>
       <r>   22.1102    0.0000 </r>
       <r>   22.8155    0.0000 </r>
       <r>   24.8305    0.0000 </r>
       <r>   25.3936    0.0000 </r>
       <r>   26.1469    0.0000 </r>
       <r>   26.1469    0.0000 </r>
       <r>   27.0084    0.0000 </r>
       <r>   27.0084    0.0000 </r>
       <r>   28.0701    0.0000 </r>
       <r>   28.1064    0.0000 </r>
       <r>   29.8313    0.0000 </r>
       <r>   32.0666    0.0000 </r>
       <r>   32.6071    0.0000 </r>
       <r>   33.3200    0.0000 </r>
       <r>   33.3251    0.0000 </r>
      </set>
      <set comment="kpoint 11">
       <r>    0.6470    1.0000 </r>
       <r>    2.2759    1.0000 </r>
       <r>    2.3982    1.0000 </r>
       <r>    2.5914    1.0000 </r>
       <r>    2.6089    1.0000 </r>
       <r>    2.7389    1.0000 </r>
       <r>    2.9704    1.0000 </r>
       <r>    3.3060    1.0000 </r>
       <r>    3.8466    1.0000 </r>
       <r>    4.0492    1.0000 </r>
       <r>    4.0615    1.0000 </r>
       <r>    4.2287    1.0000 </r>
       <r>    4.2685    1.0000 </r>
       <r>    4.6723    1.0000 </r>
       <r>    5.1484    1.0000 </r>
       <r>    5.3587    1.0000 </r>
       <r>    5.4602    1.0000 </r>
       <r>    5.4628    1.0000 </r>
       <r>    5.4711    1.0000 </r>
       <r>    5.8883    1.0000 </r>
       <r>    5.9273    1.0000 </r>
       <r>    7.0150    1.0000 </r>
       <r>    9.0139   -0.0000 </r>
       <r>   11.1622    0.0000 </r>
       <r>   13.0144    0.0000 </r>
       <r>   14.7085    0.0000 </r>
       <r>   14.9777    0.0000 </r>
       <r>   16.7029    0.0000 </r>
       <r>   17.0975    0.0000 </r>
       <r>   18.7449    0.0000 </r>
       <r>   18.8147    0.0000 </r>
       <r>   19.9497    0.0000 </r>
       <r>   20.4097    0.0000 </r>
       <r>   20.8579    0.0000 </r>
       <r>   22.1719    0.0000 </r>
       <r>   25.1763    0.0000 </r>
       <r>   25.6100    0.0000 </r>
       <r>   26.2070    0.0000 </r>
       <r>   26.3130    0.0000 </r>
       <r>   26.7358    0.0000 </r>
       <r>   27.6767    0.0000 </r>
       <r>   27.9749    0.0000 </r>
       <r>   29.0838    0.0000 </r>
       <r>   30.4825    0.0000 </r>
       <r>   31.5524    0.0000 </r>
       <r>   32.2961    0.0000 </r>
       <r>   32.3892    0.0000 </r>
       <r>   32.7482    0.0000 </r>
      </set>
      <set comment="kpoint 12">
       <r>    1.3440    1.0000 </r>
       <r>    1.9910    1.0000 </r>
       <r>    2.7274    1.0000 </r>
       <r>    2.8332    1.0000 </r>
       <r>    2.9222    1.0000 </r>
       <r>    3.0777    1.0000 </r>
       <r>    3.1577    1.0000 </r>
       <r>    3.1752    1.0000 </r>
       <r>    3.3035    1.0000 </r>
       <r>    3.6682    1.0000 </r>
       <r>    3.8281    1.0000 </r>
       <r>    3.9383    1.0000 </r>
       <r>    4.6045    1.0000 </r>
       <r>    4.7936    1.0000 </r>
       <r>    4.9536    1.0000 </r>
       <r>    5.0204    1.0000 </r>
       <r>    5.0510    1.0000 </r>
       <r>    5.1156    1.0000 </r>
       <r>    5.8069    1.0000 </r>
       <r>    5.8855    1.0000 </r>
       <r>    5.8930    1.0000 </r>
       <r>    6.2769    1.0000 </r>
       <r>    9.7789   -0.0000 </r>
       <r>   10.4724   -0.0000 </r>
       <r>   14.2445    0.0000 </r>
       <r>   14.5297    0.0000 </r>
       <r>   14.6052    0.0000 </r>
       <r>   15.5042    0.0000 </r>
       <r>   18.4145    0.0000 </r>
       <r>   19.1677    0.0000 </r>
       <r>   19.6346    0.0000 </r>
       <r>   19.6513    0.0000 </r>
       <r>   19.9399    0.0000 </r>
       <r>   21.1498    0.0000 </r>
       <r>   22.5156    0.0000 </r>
       <r>   24.5228    0.0000 </r>
       <r>   25.9719    0.0000 </r>
       <r>   26.3757    0.0000 </r>
       <r>   26.3828    0.0000 </r>
       <r>   26.7084    0.0000 </r>
       <r>   27.6428    0.0000 </r>
       <r>   27.9242    0.0000 </r>
       <r>   29.2273    0.0000 </r>
       <r>   30.7293    0.0000 </r>
       <r>   30.8397    0.0000 </r>
       <r>   31.8510    0.0000 </r>
       <r>   33.1172    0.0000 </r>
       <r>   33.1218    0.0000 </r>
      </set>
      <set comment="kpoint 13">
       <r>    1.1461    1.0000 </r>
       <r>    2.5094    1.0000 </r>
       <r>    2.6763    1.0000 </r>
       <r>    2.6763    1.0000 </r>
       <r>    2.8713    1.0000 </r>
       <r>    2.8713    1.0000 </r>
       <r>    3.2400    1.0000 </r>
       <r>    3.2837    1.0000 </r>
       <r>    3.5124    1.0000 </r>
       <r>    3.5124    1.0000 </r>
       <r>    3.9635    1.0000 </r>
       <r>    3.9993    1.0000 </r>
       <r>    4.3925    1.0000 </r>
       <r>    4.5747    1.0000 </r>
       <r>    4.9615    1.0000 </r>
       <r>    5.1997    1.0000 </r>
       <r>    5.1997    1.0000 </r>
       <r>    5.4686    1.0000 </r>
       <r>    5.4686    1.0000 </r>
       <r>    5.6827    1.0000 </r>
       <r>    5.8271    1.0000 </r>
       <r>    7.7975    0.9156 </r>
       <r>    7.7975    0.9156 </r>
       <r>   10.1960   -0.0000 </r>
       <r>   14.0351    0.0000 </r>
       <r>   14.6007    0.0000 </r>
       <r>   16.0066    0.0000 </r>
       <r>   16.0066    0.0000 </r>
       <r>   17.6617    0.0000 </r>
       <r>   17.6617    0.0000 </r>
       <r>   19.4549    0.0000 </r>
       <r>   20.7452    0.0000 </r>
       <r>   20.7452    0.0000 </r>
       <r>   21.1332    0.0000 </r>
       <r>   21.5377    0.0000 </r>
       <r>   24.3205    0.0000 </r>
       <r>   25.6900    0.0000 </r>
       <r>   26.3813    0.0000 </r>
       <r>   27.3127    0.0000 </r>
       <r>   27.3127    0.0000 </r>
       <r>   27.8263    0.0000 </r>
       <r>   27.8263    0.0000 </r>
       <r>   29.2464    0.0000 </r>
       <r>   30.4935    0.0000 </r>
       <r>   32.2309    0.0000 </r>
       <r>   32.2309    0.0000 </r>
       <r>   32.5101    0.0000 </r>
       <r>   32.8897    0.0000 </r>
      </set>
      <set comment="kpoint 14">
       <r>    1.7527    1.0000 </r>
       <r>    2.3459    1.0000 </r>
       <r>    2.7175    1.0000 </r>
       <r>    2.9722    1.0000 </r>
       <r>    3.0291    1.0000 </r>
       <r>    3.1809    1.0000 </r>
       <r>    3.2095    1.0000 </r>
       <r>    3.2142    1.0000 </r>
       <r>    3.3662    1.0000 </r>
       <r>    3.5716    1.0000 </r>
       <r>    3.6001    1.0000 </r>
       <r>    3.8318    1.0000 </r>
       <r>    4.6256    1.0000 </r>
       <r>    4.6569    1.0000 </r>
       <r>    4.8175    1.0000 </r>
       <r>    4.8961    1.0000 </r>
       <r>    4.9271    1.0000 </r>
       <r>    5.0342    1.0000 </r>
       <r>    5.4836    1.0000 </r>
       <r>    5.5419    1.0000 </r>
       <r>    6.3079    1.0000 </r>
       <r>    6.9263    1.0000 </r>
       <r>    8.5582   -0.0000 </r>
       <r>    9.3329   -0.0000 </r>
       <r>   14.7637    0.0000 </r>
       <r>   15.2129    0.0000 </r>
       <r>   15.2216    0.0000 </r>
       <r>   16.4505    0.0000 </r>
       <r>   17.0550    0.0000 </r>
       <r>   18.1970    0.0000 </r>
       <r>   18.7962    0.0000 </r>
       <r>   19.9867    0.0000 </r>
       <r>   21.2288    0.0000 </r>
       <r>   21.7712    0.0000 </r>
       <r>   22.7873    0.0000 </r>
       <r>   24.5142    0.0000 </r>
       <r>   25.0529    0.0000 </r>
       <r>   26.5776    0.0000 </r>
       <r>   27.0574    0.0000 </r>
       <r>   27.3544    0.0000 </r>
       <r>   27.5430    0.0000 </r>
       <r>   28.0395    0.0000 </r>
       <r>   29.1798    0.0000 </r>
       <r>   30.7745    0.0000 </r>
       <r>   31.4466    0.0000 </r>
       <r>   31.9632    0.0000 </r>
       <r>   33.0448    0.0000 </r>
       <r>   33.3317    0.0000 </r>
      </set>
      <set comment="kpoint 15">
       <r>    2.2030    1.0000 </r>
       <r>    2.6131    1.0000 </r>
       <r>    2.6131    1.0000 </r>
       <r>    2.6943    1.0000 </r>
       <r>    3.2507    1.0000 </r>
       <r>    3.2565    1.0000 </r>
       <r>    3.2565    1.0000 </r>
       <r>    3.4619    1.0000 </r>
       <r>    3.5284    1.0000 </r>
       <r>    3.5284    1.0000 </r>
       <r>    3.5394    1.0000 </r>
       <r>    3.7583    1.0000 </r>
       <r>    4.5102    1.0000 </r>
       <r>    4.6371    1.0000 </r>
       <r>    4.6696    1.0000 </r>
       <r>    4.6696    1.0000 </r>
       <r>    4.8126    1.0000 </r>
       <r>    5.0996    1.0000 </r>
       <r>    5.0996    1.0000 </r>
       <r>    5.2615    1.0000 </r>
       <r>    6.9032    1.0000 </r>
       <r>    7.6202    1.0021 </r>
       <r>    7.6202    1.0021 </r>
       <r>    8.3936   -0.0000 </r>
       <r>   15.2380    0.0000 </r>
       <r>   15.9942    0.0000 </r>
       <r>   15.9942    0.0000 </r>
       <r>   16.3539    0.0000 </r>
       <r>   16.9803    0.0000 </r>
       <r>   17.5738    0.0000 </r>
       <r>   17.5738    0.0000 </r>
       <r>   18.7769    0.0000 </r>
       <r>   23.2633    0.0000 </r>
       <r>   23.2633    0.0000 </r>
       <r>   23.9171    0.0000 </r>
       <r>   24.0474    0.0000 </r>
       <r>   24.4012    0.0000 </r>
       <r>   25.9855    0.0000 </r>
       <r>   25.9855    0.0000 </r>
       <r>   26.5422    0.0000 </r>
       <r>   28.0991    0.0000 </r>
       <r>   28.8642    0.0000 </r>
       <r>   28.8642    0.0000 </r>
       <r>   30.1583    0.0000 </r>
       <r>   32.6121    0.0000 </r>
       <r>   32.7209    0.0000 </r>
       <r>   32.9473    0.0000 </r>
       <r>   32.9473    0.0000 </r>
      </set>
      <set comment="kpoint 16">
       <r>   -0.5325    1.0000 </r>
       <r>    1.9286    1.0000 </r>
       <r>    1.9286    1.0000 </r>
       <r>    1.9286    1.0000 </r>
       <r>    2.1988    1.0000 </r>
       <r>    2.1988    1.0000 </r>
       <r>    2.1988    1.0000 </r>
       <r>    3.6531    1.0000 </r>
       <r>    3.8716    1.0000 </r>
       <r>    3.8716    1.0000 </r>
       <r>    4.9958    1.0000 </r>
       <r>    4.9958    1.0000 </r>
       <r>    5.5502    1.0000 </r>
       <r>    5.5502    1.0000 </r>
       <r>    5.5502    1.0000 </r>
       <r>    5.7355    1.0000 </r>
       <r>    5.7355    1.0000 </r>
       <r>    5.7355    1.0000 </r>
       <r>    6.2165    1.0000 </r>
       <r>    6.2165    1.0000 </r>
       <r>    6.2165    1.0000 </r>
       <r>    9.1191   -0.0000 </r>
       <r>    9.1191   -0.0000 </r>
       <r>    9.1191   -0.0000 </r>
       <r>   13.9388    0.0000 </r>
       <r>   13.9388    0.0000 </r>
       <r>   13.9388    0.0000 </r>
       <r>   17.0012    0.0000 </r>
       <r>   17.0012    0.0000 </r>
       <r>   17.0012    0.0000 </r>
       <r>   18.4425    0.0000 </r>
       <r>   18.4425    0.0000 </r>
       <r>   18.4425    0.0000 </r>
       <r>   22.8201    0.0000 </r>
       <r>   23.8950    0.0000 </r>
       <r>   24.8090    0.0000 </r>
       <r>   24.8090    0.0000 </r>
       <r>   24.8090    0.0000 </r>
       <r>   26.4021    0.0000 </r>
       <r>   26.4021    0.0000 </r>
       <r>   27.1013    0.0000 </r>
       <r>   27.1013    0.0000 </r>
       <r>   27.1013    0.0000 </r>
       <r>   30.6188    0.0000 </r>
       <r>   32.6001    0.0000 </r>
       <r>   32.6001    0.0000 </r>
       <r>   33.6122    0.0000 </r>
       <r>   34.4202    0.0000 </r>
      </set>
      <set comment="kpoint 17">
       <r>   -0.1604    1.0000 </r>
       <r>    2.0230    1.0000 </r>
       <r>    2.1143    1.0000 </r>
       <r>    2.1143    1.0000 </r>
       <r>    2.3289    1.0000 </r>
       <r>    2.4356    1.0000 </r>
       <r>    2.4356    1.0000 </r>
       <r>    3.5307    1.0000 </r>
       <r>    3.9846    1.0000 </r>
       <r>    3.9918    1.0000 </r>
       <r>    4.8516    1.0000 </r>
       <r>    4.9064    1.0000 </r>
       <r>    4.9064    1.0000 </r>
       <r>    5.0913    1.0000 </r>
       <r>    5.1127    1.0000 </r>
       <r>    5.4809    1.0000 </r>
       <r>    5.5427    1.0000 </r>
       <r>    5.5427    1.0000 </r>
       <r>    6.1197    1.0000 </r>
       <r>    6.1730    1.0000 </r>
       <r>    6.1730    1.0000 </r>
       <r>    7.6423    1.0049 </r>
       <r>    9.9036   -0.0000 </r>
       <r>    9.9036   -0.0000 </r>
       <r>   13.5211    0.0000 </r>
       <r>   13.5211    0.0000 </r>
       <r>   15.7697    0.0000 </r>
       <r>   16.4155    0.0000 </r>
       <r>   16.4155    0.0000 </r>
       <r>   18.1170    0.0000 </r>
       <r>   18.6196    0.0000 </r>
       <r>   18.6196    0.0000 </r>
       <r>   19.1364    0.0000 </r>
       <r>   22.2786    0.0000 </r>
       <r>   23.5240    0.0000 </r>
       <r>   24.6219    0.0000 </r>
       <r>   25.3866    0.0000 </r>
       <r>   25.3866    0.0000 </r>
       <r>   25.7800    0.0000 </r>
       <r>   26.8964    0.0000 </r>
       <r>   26.9468    0.0000 </r>
       <r>   28.2690    0.0000 </r>
       <r>   28.2690    0.0000 </r>
       <r>   29.5553    0.0000 </r>
       <r>   31.5836    0.0000 </r>
       <r>   32.2697    0.0000 </r>
       <r>   33.5720    0.0000 </r>
       <r>   33.5720    0.0000 </r>
      </set>
      <set comment="kpoint 18">
       <r>    0.4258    1.0000 </r>
       <r>    2.0593    1.0000 </r>
       <r>    2.4084    1.0000 </r>
       <r>    2.4084    1.0000 </r>
       <r>    2.5294    1.0000 </r>
       <r>    2.7707    1.0000 </r>
       <r>    2.7707    1.0000 </r>
       <r>    3.3102    1.0000 </r>
       <r>    4.1207    1.0000 </r>
       <r>    4.1906    1.0000 </r>
       <r>    4.2157    1.0000 </r>
       <r>    4.2157    1.0000 </r>
       <r>    4.4836    1.0000 </r>
       <r>    4.7602    1.0000 </r>
       <r>    5.1446    1.0000 </r>
       <r>    5.2572    1.0000 </r>
       <r>    5.2572    1.0000 </r>
       <r>    5.2912    1.0000 </r>
       <r>    5.9536    1.0000 </r>
       <r>    6.1334    1.0000 </r>
       <r>    6.1334    1.0000 </r>
       <r>    6.4420    1.0000 </r>
       <r>   10.7090    0.0000 </r>
       <r>   10.7090    0.0000 </r>
       <r>   13.0951    0.0000 </r>
       <r>   13.0951    0.0000 </r>
       <r>   16.0251    0.0000 </r>
       <r>   16.0251    0.0000 </r>
       <r>   17.3802    0.0000 </r>
       <r>   18.3717    0.0000 </r>
       <r>   18.3717    0.0000 </r>
       <r>   20.0326    0.0000 </r>
       <r>   20.2099    0.0000 </r>
       <r>   21.2179    0.0000 </r>
       <r>   23.7485    0.0000 </r>
       <r>   24.4309    0.0000 </r>
       <r>   24.5897    0.0000 </r>
       <r>   26.4554    0.0000 </r>
       <r>   26.4623    0.0000 </r>
       <r>   26.4623    0.0000 </r>
       <r>   26.7468    0.0000 </r>
       <r>   28.2387    0.0000 </r>
       <r>   29.8115    0.0000 </r>
       <r>   29.8115    0.0000 </r>
       <r>   31.4689    0.0000 </r>
       <r>   31.8029    0.0000 </r>
       <r>   32.2630    0.0000 </r>
       <r>   32.2630    0.0000 </r>
      </set>
      <set comment="kpoint 19">
       <r>    1.1449    1.0000 </r>
       <r>    1.7896    1.0000 </r>
       <r>    2.7459    1.0000 </r>
       <r>    2.7459    1.0000 </r>
       <r>    2.7751    1.0000 </r>
       <r>    3.0449    1.0000 </r>
       <r>    3.0676    1.0000 </r>
       <r>    3.0676    1.0000 </r>
       <r>    3.6539    1.0000 </r>
       <r>    3.6539    1.0000 </r>
       <r>    4.0699    1.0000 </r>
       <r>    4.0797    1.0000 </r>
       <r>    4.4618    1.0000 </r>
       <r>    4.7895    1.0000 </r>
       <r>    4.9892    1.0000 </r>
       <r>    4.9892    1.0000 </r>
       <r>    5.0159    1.0000 </r>
       <r>    5.5094    1.0000 </r>
       <r>    5.5891    1.0000 </r>
       <r>    5.7402    1.0000 </r>
       <r>    6.1159    1.0000 </r>
       <r>    6.1159    1.0000 </r>
       <r>   11.2299    0.0000 </r>
       <r>   11.2299    0.0000 </r>
       <r>   12.8615    0.0000 </r>
       <r>   12.8615    0.0000 </r>
       <r>   15.7919    0.0000 </r>
       <r>   15.7919    0.0000 </r>
       <r>   18.1036    0.0000 </r>
       <r>   18.1036    0.0000 </r>
       <r>   18.7767    0.0000 </r>
       <r>   20.0520    0.0000 </r>
       <r>   21.5664    0.0000 </r>
       <r>   22.3768    0.0000 </r>
       <r>   23.0864    0.0000 </r>
       <r>   23.8864    0.0000 </r>
       <r>   24.3362    0.0000 </r>
       <r>   25.0370    0.0000 </r>
       <r>   26.6460    0.0000 </r>
       <r>   26.9939    0.0000 </r>
       <r>   27.5768    0.0000 </r>
       <r>   27.5768    0.0000 </r>
       <r>   30.2553    0.0000 </r>
       <r>   30.2553    0.0000 </r>
       <r>   32.0554    0.0000 </r>
       <r>   32.2504    0.0000 </r>
       <r>   32.5374    0.0000 </r>
       <r>   32.5374    0.0000 </r>
      </set>
      <set comment="kpoint 20">
       <r>    0.1826    1.0000 </r>
       <r>    2.1968    1.0000 </r>
       <r>    2.1968    1.0000 </r>
       <r>    2.2004    1.0000 </r>
       <r>    2.5714    1.0000 </r>
       <r>    2.5714    1.0000 </r>
       <r>    2.7041    1.0000 </r>
       <r>    3.5087    1.0000 </r>
       <r>    4.0243    1.0000 </r>
       <r>    4.0285    1.0000 </r>
       <r>    4.4817    1.0000 </r>
       <r>    4.4817    1.0000 </r>
       <r>    4.6148    1.0000 </r>
       <r>    4.8587    1.0000 </r>
       <r>    5.1796    1.0000 </r>
       <r>    5.2691    1.0000 </r>
       <r>    5.3246    1.0000 </r>
       <r>    5.3246    1.0000 </r>
       <r>    6.0845    1.0000 </r>
       <r>    6.0866    1.0000 </r>
       <r>    6.0866    1.0000 </r>
       <r>    8.3826   -0.0000 </r>
       <r>    8.3826   -0.0000 </r>
       <r>   10.5086   -0.0000 </r>
       <r>   12.7148    0.0000 </r>
       <r>   14.8062    0.0000 </r>
       <r>   14.8062    0.0000 </r>
       <r>   16.1126    0.0000 </r>
       <r>   17.9363    0.0000 </r>
       <r>   17.9363    0.0000 </r>
       <r>   19.2693    0.0000 </r>
       <r>   19.2693    0.0000 </r>
       <r>   19.7430    0.0000 </r>
       <r>   21.0113    0.0000 </r>
       <r>   23.4422    0.0000 </r>
       <r>   24.7080    0.0000 </r>
       <r>   25.1675    0.0000 </r>
       <r>   25.1675    0.0000 </r>
       <r>   25.7888    0.0000 </r>
       <r>   27.8520    0.0000 </r>
       <r>   28.2329    0.0000 </r>
       <r>   28.2329    0.0000 </r>
       <r>   28.4109    0.0000 </r>
       <r>   29.8528    0.0000 </r>
       <r>   31.0673    0.0000 </r>
       <r>   31.7679    0.0000 </r>
       <r>   33.3707    0.0000 </r>
       <r>   33.3900    0.0000 </r>
      </set>
      <set comment="kpoint 21">
       <r>    0.7176    1.0000 </r>
       <r>    2.2172    1.0000 </r>
       <r>    2.3993    1.0000 </r>
       <r>    2.4711    1.0000 </r>
       <r>    2.7758    1.0000 </r>
       <r>    2.9045    1.0000 </r>
       <r>    3.0054    1.0000 </r>
       <r>    3.3843    1.0000 </r>
       <r>    3.8881    1.0000 </r>
       <r>    4.0161    1.0000 </r>
       <r>    4.0444    1.0000 </r>
       <r>    4.1545    1.0000 </r>
       <r>    4.1632    1.0000 </r>
       <r>    4.8485    1.0000 </r>
       <r>    4.9925    1.0000 </r>
       <r>    5.0383    1.0000 </r>
       <r>    5.1436    1.0000 </r>
       <r>    5.4264    1.0000 </r>
       <r>    5.9076    1.0000 </r>
       <r>    5.9802    1.0000 </r>
       <r>    5.9863    1.0000 </r>
       <r>    7.1211    1.0000 </r>
       <r>    9.1862   -0.0000 </r>
       <r>   11.0096    0.0000 </r>
       <r>   12.0798    0.0000 </r>
       <r>   13.8613    0.0000 </r>
       <r>   16.0103    0.0000 </r>
       <r>   16.1686    0.0000 </r>
       <r>   17.6458    0.0000 </r>
       <r>   19.1574    0.0000 </r>
       <r>   19.7373    0.0000 </r>
       <r>   19.7559    0.0000 </r>
       <r>   20.0840    0.0000 </r>
       <r>   20.5053    0.0000 </r>
       <r>   23.1094    0.0000 </r>
       <r>   24.9727    0.0000 </r>
       <r>   25.0303    0.0000 </r>
       <r>   25.1532    0.0000 </r>
       <r>   26.1469    0.0000 </r>
       <r>   27.0557    0.0000 </r>
       <r>   28.2227    0.0000 </r>
       <r>   28.7142    0.0000 </r>
       <r>   29.6209    0.0000 </r>
       <r>   30.4009    0.0000 </r>
       <r>   31.4817    0.0000 </r>
       <r>   32.2729    0.0000 </r>
       <r>   32.3691    0.0000 </r>
       <r>   32.4891    0.0000 </r>
      </set>
      <set comment="kpoint 22">
       <r>    1.3667    1.0000 </r>
       <r>    1.9538    1.0000 </r>
       <r>    2.6999    1.0000 </r>
       <r>    2.8073    1.0000 </r>
       <r>    2.9910    1.0000 </r>
       <r>    3.0332    1.0000 </r>
       <r>    3.1022    1.0000 </r>
       <r>    3.1956    1.0000 </r>
       <r>    3.6133    1.0000 </r>
       <r>    3.7859    1.0000 </r>
       <r>    3.8048    1.0000 </r>
       <r>    3.9181    1.0000 </r>
       <r>    4.3711    1.0000 </r>
       <r>    4.6544    1.0000 </r>
       <r>    4.8640    1.0000 </r>
       <r>    4.9237    1.0000 </r>
       <r>    5.1180    1.0000 </r>
       <r>    5.5685    1.0000 </r>
       <r>    5.7631    1.0000 </r>
       <r>    5.9177    1.0000 </r>
       <r>    5.9203    1.0000 </r>
       <r>    6.2544    1.0000 </r>
       <r>    9.9474   -0.0000 </r>
       <r>   10.6403    0.0000 </r>
       <r>   12.3962    0.0000 </r>
       <r>   13.0678    0.0000 </r>
       <r>   16.5142    0.0000 </r>
       <r>   17.0833    0.0000 </r>
       <r>   17.2392    0.0000 </r>
       <r>   18.4857    0.0000 </r>
       <r>   19.3229    0.0000 </r>
       <r>   19.7422    0.0000 </r>
       <r>   21.1235    0.0000 </r>
       <r>   22.3085    0.0000 </r>
       <r>   22.5022    0.0000 </r>
       <r>   24.1781    0.0000 </r>
       <r>   25.0145    0.0000 </r>
       <r>   25.7185    0.0000 </r>
       <r>   26.0936    0.0000 </r>
       <r>   26.7516    0.0000 </r>
       <r>   28.3027    0.0000 </r>
       <r>   28.5440    0.0000 </r>
       <r>   29.9828    0.0000 </r>
       <r>   30.7661    0.0000 </r>
       <r>   30.9932    0.0000 </r>
       <r>   31.9653    0.0000 </r>
       <r>   32.7744    0.0000 </r>
       <r>   33.3711    0.0000 </r>
      </set>
      <set comment="kpoint 23">
       <r>    1.1597    1.0000 </r>
       <r>    2.4339    1.0000 </r>
       <r>    2.4339    1.0000 </r>
       <r>    2.4627    1.0000 </r>
       <r>    3.1356    1.0000 </r>
       <r>    3.1356    1.0000 </r>
       <r>    3.2264    1.0000 </r>
       <r>    3.4306    1.0000 </r>
       <r>    3.5939    1.0000 </r>
       <r>    3.5939    1.0000 </r>
       <r>    3.9952    1.0000 </r>
       <r>    4.0286    1.0000 </r>
       <r>    4.1849    1.0000 </r>
       <r>    4.8000    1.0000 </r>
       <r>    4.8418    1.0000 </r>
       <r>    4.8697    1.0000 </r>
       <r>    4.8697    1.0000 </r>
       <r>    5.7678    1.0000 </r>
       <r>    5.7678    1.0000 </r>
       <r>    5.7815    1.0000 </r>
       <r>    5.8081    1.0000 </r>
       <r>    7.8801    0.3062 </r>
       <r>    7.8801    0.3062 </r>
       <r>   10.3849   -0.0000 </r>
       <r>   12.2225    0.0000 </r>
       <r>   14.7830    0.0000 </r>
       <r>   14.7830    0.0000 </r>
       <r>   16.5379    0.0000 </r>
       <r>   18.3432    0.0000 </r>
       <r>   18.9624    0.0000 </r>
       <r>   18.9624    0.0000 </r>
       <r>   20.7864    0.0000 </r>
       <r>   20.7864    0.0000 </r>
       <r>   21.6354    0.0000 </r>
       <r>   22.1914    0.0000 </r>
       <r>   24.1508    0.0000 </r>
       <r>   24.9879    0.0000 </r>
       <r>   25.8729    0.0000 </r>
       <r>   25.8729    0.0000 </r>
       <r>   27.4186    0.0000 </r>
       <r>   28.7688    0.0000 </r>
       <r>   29.4256    0.0000 </r>
       <r>   29.4256    0.0000 </r>
       <r>   30.0907    0.0000 </r>
       <r>   32.3204    0.0000 </r>
       <r>   32.3204    0.0000 </r>
       <r>   32.5092    0.0000 </r>
       <r>   32.8088    0.0000 </r>
      </set>
      <set comment="kpoint 24">
       <r>    1.6779    1.0000 </r>
       <r>    2.1546    1.0000 </r>
       <r>    2.5796    1.0000 </r>
       <r>    2.6122    1.0000 </r>
       <r>    3.2335    1.0000 </r>
       <r>    3.2597    1.0000 </r>
       <r>    3.3352    1.0000 </r>
       <r>    3.4025    1.0000 </r>
       <r>    3.5846    1.0000 </r>
       <r>    3.6439    1.0000 </r>
       <r>    3.8385    1.0000 </r>
       <r>    3.9002    1.0000 </r>
       <r>    4.3054    1.0000 </r>
       <r>    4.5539    1.0000 </r>
       <r>    4.6546    1.0000 </r>
       <r>    4.7183    1.0000 </r>
       <r>    5.0387    1.0000 </r>
       <r>    5.4232    1.0000 </r>
       <r>    5.6655    1.0000 </r>
       <r>    5.6786    1.0000 </r>
       <r>    6.2627    1.0000 </r>
       <r>    6.9162    1.0000 </r>
       <r>    8.6514   -0.0000 </r>
       <r>    9.4693   -0.0000 </r>
       <r>   12.9233    0.0000 </r>
       <r>   13.7649    0.0000 </r>
       <r>   15.8596    0.0000 </r>
       <r>   17.0519    0.0000 </r>
       <r>   17.1641    0.0000 </r>
       <r>   18.0148    0.0000 </r>
       <r>   20.0694    0.0000 </r>
       <r>   21.1625    0.0000 </r>
       <r>   21.2424    0.0000 </r>
       <r>   21.7982    0.0000 </r>
       <r>   22.7208    0.0000 </r>
       <r>   24.1816    0.0000 </r>
       <r>   24.8244    0.0000 </r>
       <r>   25.9492    0.0000 </r>
       <r>   25.9532    0.0000 </r>
       <r>   26.7676    0.0000 </r>
       <r>   28.6052    0.0000 </r>
       <r>   29.1165    0.0000 </r>
       <r>   29.8121    0.0000 </r>
       <r>   30.9533    0.0000 </r>
       <r>   31.1805    0.0000 </r>
       <r>   31.9959    0.0000 </r>
       <r>   33.2518    0.0000 </r>
       <r>   33.5483    0.0000 </r>
      </set>
      <set comment="kpoint 25">
       <r>    2.0125    1.0000 </r>
       <r>    2.3283    1.0000 </r>
       <r>    2.3283    1.0000 </r>
       <r>    2.4594    1.0000 </r>
       <r>    3.3877    1.0000 </r>
       <r>    3.4508    1.0000 </r>
       <r>    3.4508    1.0000 </r>
       <r>    3.5197    1.0000 </r>
       <r>    3.7465    1.0000 </r>
       <r>    3.7465    1.0000 </r>
       <r>    3.8454    1.0000 </r>
       <r>    3.9498    1.0000 </r>
       <r>    4.2787    1.0000 </r>
       <r>    4.4500    1.0000 </r>
       <r>    4.4500    1.0000 </r>
       <r>    4.4566    1.0000 </r>
       <r>    5.0813    1.0000 </r>
       <r>    5.3468    1.0000 </r>
       <r>    5.3468    1.0000 </r>
       <r>    5.4473    1.0000 </r>
       <r>    6.8692    1.0000 </r>
       <r>    7.6294    1.0030 </r>
       <r>    7.6294    1.0030 </r>
       <r>    8.4512   -0.0000 </r>
       <r>   13.7154    0.0000 </r>
       <r>   14.6878    0.0000 </r>
       <r>   14.6878    0.0000 </r>
       <r>   15.7856    0.0000 </r>
       <r>   17.9787    0.0000 </r>
       <r>   18.9707    0.0000 </r>
       <r>   18.9707    0.0000 </r>
       <r>   20.0318    0.0000 </r>
       <r>   23.1426    0.0000 </r>
       <r>   23.1426    0.0000 </r>
       <r>   23.8113    0.0000 </r>
       <r>   23.8964    0.0000 </r>
       <r>   24.0494    0.0000 </r>
       <r>   25.5800    0.0000 </r>
       <r>   25.5800    0.0000 </r>
       <r>   26.3443    0.0000 </r>
       <r>   28.6335    0.0000 </r>
       <r>   29.4175    0.0000 </r>
       <r>   29.4175    0.0000 </r>
       <r>   30.4563    0.0000 </r>
       <r>   32.0333    0.0000 </r>
       <r>   32.4772    0.0000 </r>
       <r>   32.6509    0.0000 </r>
       <r>   32.6509    0.0000 </r>
      </set>
      <set comment="kpoint 26">
       <r>    0.4739    1.0000 </r>
       <r>    2.2308    1.0000 </r>
       <r>    2.2308    1.0000 </r>
       <r>    2.2308    1.0000 </r>
       <r>    2.8579    1.0000 </r>
       <r>    2.8579    1.0000 </r>
       <r>    2.8579    1.0000 </r>
       <r>    3.5916    1.0000 </r>
       <r>    4.0069    1.0000 </r>
       <r>    4.0069    1.0000 </r>
       <r>    4.2793    1.0000 </r>
       <r>    4.2793    1.0000 </r>
       <r>    4.2793    1.0000 </r>
       <r>    4.9736    1.0000 </r>
       <r>    4.9736    1.0000 </r>
       <r>    4.9736    1.0000 </r>
       <r>    5.0938    1.0000 </r>
       <r>    5.0938    1.0000 </r>
       <r>    6.1401    1.0000 </r>
       <r>    6.1401    1.0000 </r>
       <r>    6.1401    1.0000 </r>
       <r>    8.9372   -0.0000 </r>
       <r>    8.9372   -0.0000 </r>
       <r>    8.9372   -0.0000 </r>
       <r>   13.5068    0.0000 </r>
       <r>   13.5068    0.0000 </r>
       <r>   13.5068    0.0000 </r>
       <r>   18.1156    0.0000 </r>
       <r>   18.1156    0.0000 </r>
       <r>   18.1156    0.0000 </r>
       <r>   19.5881    0.0000 </r>
       <r>   20.2851    0.0000 </r>
       <r>   20.2851    0.0000 </r>
       <r>   20.2851    0.0000 </r>
       <r>   23.5671    0.0000 </r>
       <r>   24.4056    0.0000 </r>
       <r>   24.4056    0.0000 </r>
       <r>   24.4056    0.0000 </r>
       <r>   26.9141    0.0000 </r>
       <r>   26.9141    0.0000 </r>
       <r>   28.9006    0.0000 </r>
       <r>   29.9364    0.0000 </r>
       <r>   29.9364    0.0000 </r>
       <r>   29.9364    0.0000 </r>
       <r>   30.4412    0.0000 </r>
       <r>   30.4412    0.0000 </r>
       <r>   33.2919    0.0000 </r>
       <r>   33.2919    0.0000 </r>
      </set>
      <set comment="kpoint 27">
       <r>    0.9168    1.0000 </r>
       <r>    2.1729    1.0000 </r>
       <r>    2.3545    1.0000 </r>
       <r>    2.3545    1.0000 </r>
       <r>    3.1051    1.0000 </r>
       <r>    3.1288    1.0000 </r>
       <r>    3.1288    1.0000 </r>
       <r>    3.6027    1.0000 </r>
       <r>    3.9167    1.0000 </r>
       <r>    3.9979    1.0000 </r>
       <r>    4.0061    1.0000 </r>
       <r>    4.0061    1.0000 </r>
       <r>    4.0468    1.0000 </r>
       <r>    4.6574    1.0000 </r>
       <r>    4.7835    1.0000 </r>
       <r>    4.7835    1.0000 </r>
       <r>    5.1285    1.0000 </r>
       <r>    5.3870    1.0000 </r>
       <r>    6.0523    1.0000 </r>
       <r>    6.0523    1.0000 </r>
       <r>    6.0918    1.0000 </r>
       <r>    7.5151    1.0000 </r>
       <r>    9.6491   -0.0000 </r>
       <r>    9.6491   -0.0000 </r>
       <r>   12.3135    0.0000 </r>
       <r>   12.3135    0.0000 </r>
       <r>   14.5083    0.0000 </r>
       <r>   18.2162    0.0000 </r>
       <r>   18.3458    0.0000 </r>
       <r>   18.3458    0.0000 </r>
       <r>   20.3809    0.0000 </r>
       <r>   20.4896    0.0000 </r>
       <r>   20.4896    0.0000 </r>
       <r>   21.1691    0.0000 </r>
       <r>   23.4266    0.0000 </r>
       <r>   24.0857    0.0000 </r>
       <r>   24.6932    0.0000 </r>
       <r>   24.6932    0.0000 </r>
       <r>   25.3933    0.0000 </r>
       <r>   27.3527    0.0000 </r>
       <r>   28.5841    0.0000 </r>
       <r>   30.0945    0.0000 </r>
       <r>   30.6682    0.0000 </r>
       <r>   30.8585    0.0000 </r>
       <r>   31.3944    0.0000 </r>
       <r>   31.3944    0.0000 </r>
       <r>   32.6169    0.0000 </r>
       <r>   32.6188    0.0000 </r>
      </set>
      <set comment="kpoint 28">
       <r>    1.4360    1.0000 </r>
       <r>    1.9044    1.0000 </r>
       <r>    2.5115    1.0000 </r>
       <r>    2.5115    1.0000 </r>
       <r>    3.1468    1.0000 </r>
       <r>    3.1468    1.0000 </r>
       <r>    3.3762    1.0000 </r>
       <r>    3.5290    1.0000 </r>
       <r>    3.7450    1.0000 </r>
       <r>    3.8655    1.0000 </r>
       <r>    3.9882    1.0000 </r>
       <r>    3.9882    1.0000 </r>
       <r>    4.1708    1.0000 </r>
       <r>    4.3793    1.0000 </r>
       <r>    4.6451    1.0000 </r>
       <r>    4.6451    1.0000 </r>
       <r>    5.5424    1.0000 </r>
       <r>    5.6816    1.0000 </r>
       <r>    5.9302    1.0000 </r>
       <r>    5.9505    1.0000 </r>
       <r>    5.9505    1.0000 </r>
       <r>    6.3622    1.0000 </r>
       <r>   10.4122   -0.0000 </r>
       <r>   10.4122   -0.0000 </r>
       <r>   11.3264    0.0000 </r>
       <r>   11.3264    0.0000 </r>
       <r>   15.6646    0.0000 </r>
       <r>   16.9099    0.0000 </r>
       <r>   18.6067    0.0000 </r>
       <r>   18.6067    0.0000 </r>
       <r>   20.1366    0.0000 </r>
       <r>   20.1366    0.0000 </r>
       <r>   22.3598    0.0000 </r>
       <r>   22.4908    0.0000 </r>
       <r>   23.2682    0.0000 </r>
       <r>   23.8002    0.0000 </r>
       <r>   24.0745    0.0000 </r>
       <r>   25.4624    0.0000 </r>
       <r>   25.4624    0.0000 </r>
       <r>   25.4826    0.0000 </r>
       <r>   29.6520    0.0000 </r>
       <r>   30.1748    0.0000 </r>
       <r>   30.8176    0.0000 </r>
       <r>   30.8176    0.0000 </r>
       <r>   31.3010    0.0000 </r>
       <r>   31.8703    0.0000 </r>
       <r>   32.0836    0.0000 </r>
       <r>   32.6850    0.0000 </r>
      </set>
      <set comment="kpoint 29">
       <r>    1.2111    1.0000 </r>
       <r>    2.1873    1.0000 </r>
       <r>    2.1873    1.0000 </r>
       <r>    2.2903    1.0000 </r>
       <r>    3.2787    1.0000 </r>
       <r>    3.3498    1.0000 </r>
       <r>    3.3498    1.0000 </r>
       <r>    3.8240    1.0000 </r>
       <r>    3.9103    1.0000 </r>
       <r>    3.9103    1.0000 </r>
       <r>    3.9894    1.0000 </r>
       <r>    4.0038    1.0000 </r>
       <r>    4.1799    1.0000 </r>
       <r>    4.4933    1.0000 </r>
       <r>    4.4933    1.0000 </r>
       <r>    4.5029    1.0000 </r>
       <r>    5.2069    1.0000 </r>
       <r>    5.6599    1.0000 </r>
       <r>    5.9945    1.0000 </r>
       <r>    6.0281    1.0000 </r>
       <r>    6.0281    1.0000 </r>
       <r>    8.1476   -0.0002 </r>
       <r>    8.1476   -0.0002 </r>
       <r>   10.2969   -0.0000 </r>
       <r>   10.9481    0.0000 </r>
       <r>   13.1628    0.0000 </r>
       <r>   13.1628    0.0000 </r>
       <r>   16.7762    0.0000 </r>
       <r>   18.7870    0.0000 </r>
       <r>   20.5248    0.0000 </r>
       <r>   20.5248    0.0000 </r>
       <r>   21.1857    0.0000 </r>
       <r>   21.1857    0.0000 </r>
       <r>   21.9441    0.0000 </r>
       <r>   23.0236    0.0000 </r>
       <r>   23.7528    0.0000 </r>
       <r>   24.4218    0.0000 </r>
       <r>   24.4218    0.0000 </r>
       <r>   24.9889    0.0000 </r>
       <r>   27.3459    0.0000 </r>
       <r>   28.8705    0.0000 </r>
       <r>   30.1588    0.0000 </r>
       <r>   31.2578    0.0000 </r>
       <r>   31.2578    0.0000 </r>
       <r>   31.5795    0.0000 </r>
       <r>   32.5598    0.0000 </r>
       <r>   32.5678    0.0000 </r>
       <r>   32.6765    0.0000 </r>
      </set>
      <set comment="kpoint 30">
       <r>    1.5556    1.0000 </r>
       <r>    1.9007    1.0000 </r>
       <r>    2.2282    1.0000 </r>
       <r>    2.2598    1.0000 </r>
       <r>    3.3139    1.0000 </r>
       <r>    3.3350    1.0000 </r>
       <r>    3.6048    1.0000 </r>
       <r>    3.7828    1.0000 </r>
       <r>    3.9242    1.0000 </r>
       <r>    3.9956    1.0000 </r>
       <r>    4.0889    1.0000 </r>
       <r>    4.1662    1.0000 </r>
       <r>    4.2435    1.0000 </r>
       <r>    4.3262    1.0000 </r>
       <r>    4.3623    1.0000 </r>
       <r>    4.4155    1.0000 </r>
       <r>    5.4664    1.0000 </r>
       <r>    5.8388    1.0000 </r>
       <r>    5.8898    1.0000 </r>
       <r>    5.9015    1.0000 </r>
       <r>    6.1304    1.0000 </r>
       <r>    6.9254    1.0000 </r>
       <r>    8.9082   -0.0000 </r>
       <r>    9.8114   -0.0000 </r>
       <r>   11.0998    0.0000 </r>
       <r>   12.0335    0.0000 </r>
       <r>   14.2350    0.0000 </r>
       <r>   15.4481    0.0000 </r>
       <r>   19.3488    0.0000 </r>
       <r>   20.0565    0.0000 </r>
       <r>   21.3165    0.0000 </r>
       <r>   21.8521    0.0000 </r>
       <r>   21.8887    0.0000 </r>
       <r>   22.5510    0.0000 </r>
       <r>   22.5876    0.0000 </r>
       <r>   23.8447    0.0000 </r>
       <r>   24.3448    0.0000 </r>
       <r>   24.6869    0.0000 </r>
       <r>   24.8985    0.0000 </r>
       <r>   26.0337    0.0000 </r>
       <r>   29.8006    0.0000 </r>
       <r>   30.7803    0.0000 </r>
       <r>   30.7841    0.0000 </r>
       <r>   30.9843    0.0000 </r>
       <r>   31.2751    0.0000 </r>
       <r>   32.0788    0.0000 </r>
       <r>   32.6523    0.0000 </r>
       <r>   33.0297    0.0000 </r>
      </set>
      <set comment="kpoint 31">
       <r>    1.7289    1.0000 </r>
       <r>    1.9562    1.0000 </r>
       <r>    1.9562    1.0000 </r>
       <r>    2.0746    1.0000 </r>
       <r>    3.4607    1.0000 </r>
       <r>    3.5480    1.0000 </r>
       <r>    3.5480    1.0000 </r>
       <r>    3.7095    1.0000 </r>
       <r>    4.0102    1.0000 </r>
       <r>    4.1101    1.0000 </r>
       <r>    4.1101    1.0000 </r>
       <r>    4.1693    1.0000 </r>
       <r>    4.4237    1.0000 </r>
       <r>    4.4353    1.0000 </r>
       <r>    4.4353    1.0000 </r>
       <r>    4.5437    1.0000 </r>
       <r>    5.4512    1.0000 </r>
       <r>    5.6993    1.0000 </r>
       <r>    5.6993    1.0000 </r>
       <r>    5.7416    1.0000 </r>
       <r>    6.7640    1.0000 </r>
       <r>    7.6573    1.0082 </r>
       <r>    7.6573    1.0082 </r>
       <r>    8.5903   -0.0000 </r>
       <r>   11.9633    0.0000 </r>
       <r>   13.0025    0.0000 </r>
       <r>   13.0025    0.0000 </r>
       <r>   14.1444    0.0000 </r>
       <r>   20.0334    0.0000 </r>
       <r>   20.8809    0.0000 </r>
       <r>   20.8809    0.0000 </r>
       <r>   21.7113    0.0000 </r>
       <r>   22.8690    0.0000 </r>
       <r>   22.8690    0.0000 </r>
       <r>   23.3114    0.0000 </r>
       <r>   23.5144    0.0000 </r>
       <r>   23.8692    0.0000 </r>
       <r>   24.8908    0.0000 </r>
       <r>   24.8908    0.0000 </r>
       <r>   25.8218    0.0000 </r>
       <r>   29.7623    0.0000 </r>
       <r>   30.4566    0.0000 </r>
       <r>   30.4566    0.0000 </r>
       <r>   31.1040    0.0000 </r>
       <r>   31.5062    0.0000 </r>
       <r>   32.1767    0.0000 </r>
       <r>   32.2526    0.0000 </r>
       <r>   32.2526    0.0000 </r>
      </set>
      <set comment="kpoint 32">
       <r>    1.3194    1.0000 </r>
       <r>    2.0203    1.0000 </r>
       <r>    2.0203    1.0000 </r>
       <r>    2.0203    1.0000 </r>
       <r>    3.4368    1.0000 </r>
       <r>    3.4368    1.0000 </r>
       <r>    3.4368    1.0000 </r>
       <r>    3.8901    1.0000 </r>
       <r>    3.8901    1.0000 </r>
       <r>    4.2223    1.0000 </r>
       <r>    4.2223    1.0000 </r>
       <r>    4.2223    1.0000 </r>
       <r>    4.3755    1.0000 </r>
       <r>    4.3755    1.0000 </r>
       <r>    4.3755    1.0000 </r>
       <r>    4.4840    1.0000 </r>
       <r>    5.5606    1.0000 </r>
       <r>    5.5606    1.0000 </r>
       <r>    6.0866    1.0000 </r>
       <r>    6.0866    1.0000 </r>
       <r>    6.0866    1.0000 </r>
       <r>    8.6021   -0.0000 </r>
       <r>    8.6021   -0.0000 </r>
       <r>    8.6021   -0.0000 </r>
       <r>   11.7539    0.0000 </r>
       <r>   11.7539    0.0000 </r>
       <r>   11.7539    0.0000 </r>
       <r>   15.3011    0.0000 </r>
       <r>   20.9568    0.0000 </r>
       <r>   20.9568    0.0000 </r>
       <r>   20.9568    0.0000 </r>
       <r>   22.4992    0.0000 </r>
       <r>   22.4992    0.0000 </r>
       <r>   22.4992    0.0000 </r>
       <r>   22.8036    0.0000 </r>
       <r>   23.4007    0.0000 </r>
       <r>   23.4007    0.0000 </r>
       <r>   23.4007    0.0000 </r>
       <r>   25.8115    0.0000 </r>
       <r>   25.8115    0.0000 </r>
       <r>   30.2153    0.0000 </r>
       <r>   30.5347    0.0000 </r>
       <r>   30.5347    0.0000 </r>
       <r>   32.1449    0.0000 </r>
[...]
       <r>   31.0475    0.0000 </r>
       <r>   31.4254    0.0000 </r>
       <r>   31.4254    0.0000 </r>
       <r>   31.6134    0.0000 </r>
       <r>   31.6350    0.0000 </r>
       <r>   32.0420    0.0000 </r>
       <r>   32.6411    0.0000 </r>
      </set>
      <set comment="kpoint 34">
       <r>    1.5374    1.0000 </r>
       <r>    1.6872    1.0000 </r>
       <r>    1.6872    1.0000 </r>
       <r>    1.7543    1.0000 </r>
       <r>    3.5799    1.0000 </r>
       <r>    3.6309    1.0000 </r>
       <r>    3.6309    1.0000 </r>
       <r>    3.7561    1.0000 </r>
       <r>    3.8273    1.0000 </r>
       <r>    3.9075    1.0000 </r>
       <r>    3.9075    1.0000 </r>
       <r>    3.9321    1.0000 </r>
       <r>    5.1222    1.0000 </r>
       <r>    5.1222    1.0000 </r>
       <r>    5.1468    1.0000 </r>
       <r>    5.3225    1.0000 </r>
       <r>    5.7724    1.0000 </r>
       <r>    5.9656    1.0000 </r>
       <r>    5.9668    1.0000 </r>
       <r>    5.9668    1.0000 </r>
       <r>    6.5940    1.0000 </r>
       <r>    7.7059    1.0274 </r>
       <r>    7.7059    1.0274 </r>
       <r>    8.5573   -0.0000 </r>
       <r>   10.7287    0.0000 </r>
       <r>   11.5793    0.0000 </r>
       <r>   11.5793    0.0000 </r>
       <r>   12.6706    0.0000 </r>
       <r>   21.7397    0.0000 </r>
       <r>   22.1229    0.0000 </r>
       <r>   22.1229    0.0000 </r>
       <r>   22.2870    0.0000 </r>
       <r>   23.0626    0.0000 </r>
       <r>   23.0626    0.0000 </r>
       <r>   23.0648    0.0000 </r>
       <r>   23.9199    0.0000 </r>
       <r>   23.9493    0.0000 </r>
       <r>   24.3449    0.0000 </r>
       <r>   24.3449    0.0000 </r>
       <r>   25.1613    0.0000 </r>
       <r>   30.8749    0.0000 </r>
       <r>   31.2899    0.0000 </r>
       <r>   31.2899    0.0000 </r>
       <r>   31.3255    0.0000 </r>
       <r>   31.6405    0.0000 </r>
       <r>   31.8529    0.0000 </r>
       <r>   31.9599    0.0000 </r>
       <r>   31.9599    0.0000 </r>
      </set>
      <set comment="kpoint 35">
       <r>    1.4751    1.0000 </r>
       <r>    1.5489    1.0000 </r>
       <r>    1.5489    1.0000 </r>
       <r>    1.5489    1.0000 </r>
       <r>    3.6883    1.0000 </r>
       <r>    3.6883    1.0000 </r>
       <r>    3.6883    1.0000 </r>
       <r>    3.7507    1.0000 </r>
       <r>    3.7507    1.0000 </r>
       <r>    3.7871    1.0000 </r>
       <r>    3.7871    1.0000 </r>
       <r>    3.7871    1.0000 </r>
       <r>    5.6782    1.0000 </r>
       <r>    5.6782    1.0000 </r>
       <r>    5.6782    1.0000 </r>
       <r>    5.9870    1.0000 </r>
       <r>    5.9870    1.0000 </r>
       <r>    6.0553    1.0000 </r>
       <r>    6.0553    1.0000 </r>
       <r>    6.0553    1.0000 </r>
       <r>    6.7208    1.0000 </r>
       <r>    7.7655    1.0131 </r>
       <r>    7.7655    1.0131 </r>
       <r>    7.7655    1.0131 </r>
       <r>   10.6855    0.0000 </r>
       <r>   10.6855    0.0000 </r>
       <r>   10.6855    0.0000 </r>
       <r>   11.4757    0.0000 </r>
       <r>   22.0797    0.0000 </r>
       <r>   22.0797    0.0000 </r>
       <r>   22.0797    0.0000 </r>
       <r>   22.1110    0.0000 </r>
       <r>   23.9889    0.0000 </r>
       <r>   23.9889    0.0000 </r>
       <r>   23.9889    0.0000 </r>
       <r>   24.1353    0.0000 </r>
       <r>   24.1353    0.0000 </r>
       <r>   24.1353    0.0000 </r>
       <r>   24.5591    0.0000 </r>
       <r>   24.5591    0.0000 </r>
       <r>   31.3793    0.0000 </r>
       <r>   31.3793    0.0000 </r>
       <r>   31.5739    0.0000 </r>
       <r>   31.5739    0.0000 </r>
       <r>   31.5739    0.0000 </r>
       <r>   31.6832    0.0000 </r>
       <r>   31.6832    0.0000 </r>
       <r>   31.6833    0.0000 </r>
      </set>
     </set>
    </set>
   </array>
  </eigenvalues>
  <separator name="orbital magnetization" >
   <v name="MAGDIPOLOUT">      0.00000000      0.00000000      0.00000000</v>
  </separator>
  <dos>
   <i name="efermi">      7.85650435 </i>
   <total>
    <array>
     <dimension dim="1">gridpoints</dimension>
     <dimension dim="2">spin</dimension>
     <field>energy</field>
     <field>total</field>
     <field>integrated</field>
     <set>
      <set comment="spin 1">
       <r>    -2.7068     0.0000     0.0000 </r>
       <r>    -2.5759     0.0000     0.0000 </r>
       <r>    -2.4450     0.0000     0.0000 </r>
       <r>    -2.3141     0.0000     0.0000 </r>
       <r>    -2.1832     0.0000     0.0000 </r>
       <r>    -2.0522     0.0000     0.0000 </r>
       <r>    -1.9213     0.0000     0.0000 </r>
       <r>    -1.7904    -0.0000    -0.0000 </r>
       <r>    -1.6595    -0.0000    -0.0000 </r>
       <r>    -1.5285    -0.0000    -0.0000 </r>
       <r>    -1.3976    -0.0000    -0.0000 </r>
       <r>    -1.2667    -0.0000    -0.0000 </r>
       <r>    -1.1358    -0.0001    -0.0000 </r>
       <r>    -1.0049    -0.0004    -0.0001 </r>
       <r>    -0.8739     0.0171     0.0022 </r>
       <r>    -0.7430     0.1108     0.0167 </r>
       <r>    -0.6121     0.2374     0.0478 </r>
       <r>    -0.4812     0.1817     0.0715 </r>
       <r>    -0.3503     0.1418     0.0901 </r>
       <r>    -0.2193     0.5068     0.1565 </r>
       <r>    -0.0884     0.4861     0.2201 </r>
       <r>     0.0425     0.0507     0.2267 </r>
       <r>     0.1734     0.4427     0.2847 </r>
       <r>     0.3043     0.5698     0.3593 </r>
       <r>     0.4353     0.6753     0.4477 </r>
       <r>     0.5662     0.3274     0.4906 </r>
       <r>     0.6971     0.7732     0.5918 </r>
       <r>     0.8280     0.7698     0.6926 </r>
       <r>     0.9589     0.4115     0.7465 </r>
       <r>     1.0899     0.6317     0.8292 </r>
       <r>     1.2208     1.5113     1.0270 </r>
       <r>     1.3517     1.0824     1.1687 </r>
       <r>     1.4826     1.7613     1.3993 </r>
       <r>     1.6135     2.2612     1.6954 </r>
       <r>     1.7445     3.4754     2.1504 </r>
       <r>     1.8754     3.2216     2.5721 </r>
       <r>     2.0063     6.4195     3.4126 </r>
       <r>     2.1372     6.0262     4.2015 </r>
       <r>     2.2681     9.1142     5.3948 </r>
       <r>     2.3991     8.0180     6.4445 </r>
       <r>     2.5300     8.1813     7.5156 </r>
       <r>     2.6609     6.2415     8.3327 </r>
       <r>     2.7918     8.6830     9.4695 </r>
       <r>     2.9227     4.2216    10.0222 </r>
       <r>     3.0537     5.9832    10.8055 </r>
       <r>     3.1846     8.7991    11.9575 </r>
       <r>     3.3155     9.0712    13.1451 </r>
       <r>     3.4464     8.5818    14.2687 </r>
       <r>     3.5773     9.4098    15.5006 </r>
       <r>     3.7083    10.4287    16.8659 </r>
       <r>     3.8392     9.7058    18.1366 </r>
       <r>     3.9701    14.2335    20.0001 </r>
       <r>     4.1010    15.1198    21.9795 </r>
       <r>     4.2319    10.8084    23.3946 </r>
       <r>     4.3629     7.5604    24.3844 </r>
       <r>     4.4938     8.5756    25.5071 </r>
       <r>     4.6247     7.6380    26.5071 </r>
       <r>     4.7556     8.8089    27.6604 </r>
       <r>     4.8865     9.0174    28.8409 </r>
       <r>     5.0175     9.6735    30.1074 </r>
       <r>     5.1484    11.6259    31.6294 </r>
       <r>     5.2793     7.3070    32.5861 </r>
       <r>     5.4102     6.8254    33.4797 </r>
       <r>     5.5411     9.2275    34.6877 </r>
       <r>     5.6721     7.0849    35.6153 </r>
       <r>     5.8030     8.9984    36.7934 </r>
       <r>     5.9339    11.7220    38.3280 </r>
       <r>     6.0648    12.6929    39.9898 </r>
       <r>     6.1957     9.2685    41.2032 </r>
       <r>     6.3267     6.8943    42.1058 </r>
       <r>     6.4576     1.4285    42.2928 </r>
       <r>     6.5885     0.3375    42.3370 </r>
       <r>     6.7194     0.5095    42.4037 </r>
       <r>     6.8504     0.8551    42.5157 </r>
       <r>     6.9813     2.8521    42.8890 </r>
       <r>     7.1122     1.2473    43.0523 </r>
       <r>     7.2431     1.0233    43.1863 </r>
       <r>     7.3740     0.3550    43.2328 </r>
       <r>     7.5050     0.1198    43.2485 </r>
       <r>     7.6359     1.8495    43.4906 </r>
       <r>     7.7668     2.9428    43.8759 </r>
       <r>     7.8977     1.3257    44.0494 </r>
       <r>     8.0286     0.2917    44.0876 </r>
       <r>     8.1596     0.8495    44.1989 </r>
       <r>     8.2905     0.7618    44.2986 </r>
       <r>     8.4214     1.1182    44.4450 </r>
       <r>     8.5523     1.3219    44.6180 </r>
       <r>     8.6832     2.1967    44.9056 </r>
       <r>     8.8142     0.6409    44.9895 </r>
       <r>     8.9451     1.1319    45.1377 </r>
       <r>     9.0760     1.0942    45.2810 </r>
       <r>     9.2069     2.0013    45.5430 </r>
       <r>     9.3378     0.6830    45.6324 </r>
       <r>     9.4688     0.7226    45.7270 </r>
       <r>     9.5997     0.7444    45.8245 </r>
       <r>     9.7306     1.4603    46.0157 </r>
       <r>     9.8615     1.6355    46.2298 </r>
       <r>     9.9924     1.8110    46.4669 </r>
       <r>    10.1234     0.2637    46.5014 </r>
       <r>    10.2543     0.4116    46.5553 </r>
       <r>    10.3852     0.9776    46.6833 </r>
       <r>    10.5161     1.9052    46.9327 </r>
       <r>    10.6470     1.3651    47.1114 </r>
       <r>    10.7780     3.1365    47.5221 </r>
       <r>    10.9089     0.4790    47.5848 </r>
       <r>    11.0398     1.2640    47.7503 </r>
       <r>    11.1707     2.1494    48.0317 </r>
       <r>    11.3016     1.8228    48.2703 </r>
       <r>    11.4326     0.7363    48.3667 </r>
       <r>    11.5635     0.5149    48.4341 </r>
       <r>    11.6944     1.1508    48.5848 </r>
       <r>    11.8253     0.4836    48.6481 </r>
       <r>    11.9562     0.7093    48.7410 </r>
       <r>    12.0872     2.4517    49.0619 </r>
       <r>    12.2181     1.0040    49.1934 </r>
       <r>    12.3490     1.8494    49.4355 </r>
       <r>    12.4799     1.7192    49.6606 </r>
       <r>    12.6108     0.1286    49.6774 </r>
       <r>    12.7418     1.1418    49.8269 </r>
       <r>    12.8727     1.5428    50.0289 </r>
       <r>    13.0036     2.3148    50.3319 </r>
       <r>    13.1345     2.8715    50.7079 </r>
       <r>    13.2654     0.9972    50.8384 </r>
       <r>    13.3964     0.1092    50.8527 </r>
       <r>    13.5273     1.0355    50.9883 </r>
       <r>    13.6582     1.0868    51.1306 </r>
       <r>    13.7891     1.5279    51.3306 </r>
       <r>    13.9200     2.1052    51.6062 </r>
       <r>    14.0510     1.5560    51.8099 </r>
       <r>    14.1819     1.1232    51.9570 </r>
       <r>    14.3128     1.5301    52.1573 </r>
       <r>    14.4437     0.0766    52.1673 </r>
       <r>    14.5746     1.5016    52.3639 </r>
       <r>    14.7056     1.9206    52.6154 </r>
       <r>    14.8365     2.8971    52.9947 </r>
       <r>    14.9674     0.9330    53.1168 </r>
       <r>    15.0983     0.3143    53.1580 </r>
       <r>    15.2292     1.3722    53.3376 </r>
       <r>    15.3602     0.7500    53.4358 </r>
       <r>    15.4911     1.0000    53.5667 </r>
       <r>    15.6220     0.9146    53.6865 </r>
       <r>    15.7529     1.0781    53.8276 </r>
       <r>    15.8839     2.7387    54.1862 </r>
       <r>    16.0148     2.2503    54.4808 </r>
       <r>    16.1457     2.6112    54.8226 </r>
       <r>    16.2766     1.0989    54.9665 </r>
       <r>    16.4075     0.8244    55.0744 </r>
       <r>    16.5385     2.1087    55.3505 </r>
       <r>    16.6694     0.8902    55.4671 </r>
       <r>    16.8003     0.9318    55.5890 </r>
       <r>    16.9312     0.8514    55.7005 </r>
       <r>    17.0621     2.7232    56.0570 </r>
       <r>    17.1931     3.0141    56.4516 </r>
       <r>    17.3240     1.2702    56.6179 </r>
       <r>    17.4549     0.7974    56.7223 </r>
       <r>    17.5858     1.7711    56.9542 </r>
       <r>    17.7167     2.3510    57.2620 </r>
       <r>    17.8477     1.5267    57.4619 </r>
       <r>    17.9786     1.5451    57.6641 </r>
       <r>    18.1095     2.5172    57.9937 </r>
       <r>    18.2404     2.3163    58.2969 </r>
       <r>    18.3713     2.4493    58.6176 </r>
       <r>    18.5023     3.4420    59.0682 </r>
       <r>    18.6332     2.1609    59.3511 </r>
       <r>    18.7641     2.5853    59.6896 </r>
       <r>    18.8950     1.9033    59.9388 </r>
       <r>    19.0259     1.6390    60.1534 </r>
       <r>    19.1569     1.2529    60.3174 </r>
       <r>    19.2878     2.1361    60.5970 </r>
       <r>    19.4187     2.0301    60.8628 </r>
       <r>    19.5496     0.5817    60.9390 </r>
       <r>    19.6805     1.6076    61.1494 </r>
       <r>    19.8115     3.2870    61.5798 </r>
       <r>    19.9424     0.9164    61.6997 </r>
       <r>    20.0733     4.7751    62.3249 </r>
       <r>    20.2042     3.5801    62.7936 </r>
       <r>    20.3351     0.7308    62.8893 </r>
       <r>    20.4661     1.5524    63.0925 </r>
       <r>    20.5970     2.4626    63.4149 </r>
       <r>    20.7279     0.2225    63.4441 </r>
       <r>    20.8588     2.0527    63.7128 </r>
       <r>    20.9897     1.7809    63.9460 </r>
       <r>    21.1207     1.4414    64.1347 </r>
       <r>    21.2516     4.7768    64.7600 </r>
       <r>    21.3825     2.6576    65.1080 </r>
       <r>    21.5134     0.8125    65.2143 </r>
       <r>    21.6443     0.8494    65.3256 </r>
       <r>    21.7753     1.6876    65.5465 </r>
       <r>    21.9062     2.7424    65.9055 </r>
       <r>    22.0371     1.2836    66.0736 </r>
       <r>    22.1680     2.8869    66.4515 </r>
       <r>    22.2989     2.5448    66.7847 </r>
       <r>    22.4299     2.9740    67.1741 </r>
       <r>    22.5608     3.6657    67.6540 </r>
       <r>    22.6917     1.9813    67.9134 </r>
       <r>    22.8226     2.0011    68.1753 </r>
       <r>    22.9535     1.3113    68.3470 </r>
       <r>    23.0845     2.7807    68.7111 </r>
       <r>    23.2154     3.1380    69.1219 </r>
       <r>    23.3463     1.5380    69.3233 </r>
       <r>    23.4772     2.0547    69.5923 </r>
       <r>    23.6081     1.4579    69.7831 </r>
       <r>    23.7391     0.7535    69.8818 </r>
       <r>    23.8700     3.4185    70.3293 </r>
       <r>    24.0009     3.6263    70.8041 </r>
       <r>    24.1318     3.3426    71.2417 </r>
       <r>    24.2628     2.6888    71.5937 </r>
       <r>    24.3937     3.3419    72.0312 </r>
       <r>    24.5246     3.8660    72.5374 </r>
       <r>    24.6555     3.0169    72.9324 </r>
       <r>    24.7864     3.5126    73.3922 </r>
       <r>    24.9174     4.0076    73.9169 </r>
       <r>    25.0483     4.8760    74.5553 </r>
       <r>    25.1792     3.3753    74.9972 </r>
       <r>    25.3101     1.5290    75.1973 </r>
       <r>    25.4410     2.9871    75.5884 </r>
       <r>    25.5720     2.7191    75.9444 </r>
       <r>    25.7029     1.6631    76.1621 </r>
       <r>    25.8338     2.9738    76.5515 </r>
       <r>    25.9647     3.5722    77.0191 </r>
       <r>    26.0956     3.8462    77.5227 </r>
       <r>    26.2266     2.3589    77.8315 </r>
       <r>    26.3575     2.1161    78.1085 </r>
       <r>    26.4884     3.0588    78.5090 </r>
       <r>    26.6193     2.1600    78.7918 </r>
       <r>    26.7502     3.3738    79.2335 </r>
       <r>    26.8812     2.0356    79.5000 </r>
       <r>    27.0121     1.8061    79.7365 </r>
       <r>    27.1430     2.3498    80.0441 </r>
       <r>    27.2739     0.9600    80.1698 </r>
       <r>    27.4048     1.9152    80.4205 </r>
       <r>    27.5358     0.9094    80.5396 </r>
       <r>    27.6667     1.6667    80.7578 </r>
       <r>    27.7976     0.6164    80.8385 </r>
       <r>    27.9285     1.3189    81.0111 </r>
       <r>    28.0594     1.9148    81.2618 </r>
       <r>    28.1904     2.0289    81.5275 </r>
       <r>    28.3213     4.5873    82.1280 </r>
       <r>    28.4522     1.3142    82.3001 </r>
       <r>    28.5831     1.5077    82.4975 </r>
       <r>    28.7140     2.1963    82.7850 </r>
       <r>    28.8450     1.2720    82.9515 </r>
       <r>    28.9759     0.9092    83.0706 </r>
       <r>    29.1068     1.1675    83.2234 </r>
       <r>    29.2377     2.2169    83.5136 </r>
       <r>    29.3686     0.8226    83.6213 </r>
       <r>    29.4996     1.7090    83.8451 </r>
       <r>    29.6305     1.2124    84.0038 </r>
       <r>    29.7614     1.5519    84.2070 </r>
       <r>    29.8923     3.7557    84.6987 </r>
       <r>    30.0232     2.1723    84.9831 </r>
       <r>    30.1542     1.5943    85.1918 </r>
       <r>    30.2851     1.6905    85.4131 </r>
       <r>    30.4160     1.3255    85.5866 </r>
       <r>    30.5469     2.9836    85.9773 </r>
       <r>    30.6778     1.3108    86.1489 </r>
       <r>    30.8088     4.2112    86.7002 </r>
       <r>    30.9397     3.8550    87.2049 </r>
       <r>    31.0706     3.1017    87.6110 </r>
       <r>    31.2015     1.7778    87.8437 </r>
       <r>    31.3324     3.7383    88.3332 </r>
       <r>    31.4634     4.0501    88.8634 </r>
       <r>    31.5943     3.8347    89.3654 </r>
       <r>    31.7252     2.2359    89.6582 </r>
       <r>    31.8561     1.8102    89.8952 </r>
       <r>    31.9870     4.2552    90.4522 </r>
       <r>    32.1180     5.2941    91.1453 </r>
       <r>    32.2489     4.9809    91.7975 </r>
       <r>    32.3798     5.0352    92.4567 </r>
       <r>    32.5107     2.8081    92.8243 </r>
       <r>    32.6416     6.0044    93.6104 </r>
       <r>    32.7726     4.4340    94.1909 </r>
       <r>    32.9035     1.4654    94.3827 </r>
       <r>    33.0344     1.4637    94.5744 </r>
       <r>    33.1653     1.8890    94.8217 </r>
       <r>    33.2963     1.5249    95.0213 </r>
       <r>    33.4272     2.7334    95.3792 </r>
       <r>    33.5581     1.8524    95.6217 </r>
       <r>    33.6890     1.9714    95.8798 </r>
       <r>    33.8199    -0.0824    95.8690 </r>
       <r>    33.9509    -0.0075    95.8680 </r>
       <r>    34.0818     0.0119    95.8696 </r>
       <r>    34.2127     0.2408    95.9011 </r>
       <r>    34.3436     0.2517    95.9341 </r>
       <r>    34.4745     0.4164    95.9886 </r>
       <r>    34.6055     0.0728    95.9981 </r>
       <r>    34.7364    -0.0034    95.9977 </r>
       <r>    34.8673     0.0178    96.0000 </r>
       <r>    34.9982     0.0001    96.0000 </r>
       <r>    35.1291    -0.0001    96.0000 </r>
       <r>    35.2601    -0.0000    96.0000 </r>
       <r>    35.3910    -0.0000    96.0000 </r>
       <r>    35.5219    -0.0000    96.0000 </r>
       <r>    35.6528     0.0000    96.0000 </r>
       <r>    35.7837     0.0000    96.0000 </r>
       <r>    35.9147     0.0000    96.0000 </r>
       <r>    36.0456     0.0000    96.0000 </r>
       <r>    36.1765     0.0000    96.0000 </r>
       <r>    36.3074     0.0000    96.0000 </r>
       <r>    36.4383     0.0000    96.0000 </r>
       <r>    36.5693     0.0000    96.0000 </r>
      </set>
     </set>
    </array>
   </total>
  </dos>
 </calculation>
 <structure name="finalpos" >
  <crystal>
   <varray name="basis" >
    <v>       4.21600000       0.00000000       0.00000000 </v>
    <v>       0.00000000       4.21600000       0.00000000 </v>
    <v>       0.00000000       0.00000000       4.21600000 </v>
   </varray>
   <i name="volume">     74.93794970 </i>
   <varray name="rec_basis" >
    <v>       0.23719165       0.00000000       0.00000000 </v>
    <v>       0.00000000       0.23719165       0.00000000 </v>
    <v>       0.00000000       0.00000000       0.23719165 </v>
   </varray>
  </crystal>
  <varray name="positions" >
   <v>       0.00000000       0.00000000       0.00000000 </v>
   <v>       0.00000000       0.50000000       0.50000000 </v>
   <v>       0.50000000       0.00000000       0.50000000 </v>
   <v>       0.50000000       0.50000000       0.00000000 </v>
  </varray>
 </structure>
</modeling>
