  12  12   1   0
  0.6153163E+02  0.5864744E-09  0.5864744E-09  0.2478854E-08  0.5000000E-15
  1.000000000000000E-004
  CAR 
 unknown system                          
      9.43893537     -8.80013600  301     -0.90989925      1.00000000
     -8.800  0.0000E+00  0.0000E+00
     -8.739  0.0000E+00  0.0000E+00
     -8.679  0.0000E+00  0.0000E+00
     -8.618 -0.8703E-29 -0.5291E-30
     -8.557 -0.1157E-24 -0.7032E-26
     -8.496 -0.7291E-21 -0.4433E-22
     -8.435 -0.2178E-17 -0.1324E-18
     -8.375 -0.2987E-14 -0.1817E-15
     -8.314 -0.1976E-11 -0.1203E-12
     -8.253 -0.6139E-09 -0.3744E-10
     -8.192 -0.8899E-07 -0.5448E-08
     -8.131 -0.5971E-05 -0.3685E-06
     -8.071 -0.1834E-03 -0.1152E-04
     -8.010 -0.2537E-02 -0.1658E-03
     -7.949 -0.1530E-01 -0.1096E-02
     -7.888 -0.3131E-01 -0.2999E-02
     -7.827  0.8371E-01  0.2090E-02
     -7.767  0.6099E+00  0.3917E-01
     -7.706  0.1175E+01  0.1106E+00
     -7.645  0.9152E+00  0.1662E+00
     -7.584  0.8989E+00  0.2209E+00
     -7.523  0.1676E+01  0.3228E+00
     -7.463  0.1670E+01  0.4243E+00
     -7.402  0.6265E+00  0.4624E+00
     -7.341  0.3320E+00  0.4826E+00
     -7.280  0.1687E+01  0.5851E+00
     -7.219  0.2363E+01  0.7288E+00
     -7.159  0.1639E+01  0.8285E+00
     -7.098  0.9747E+00  0.8877E+00
     -7.037  0.2520E+00  0.9030E+00
     -6.976  0.7967E+00  0.9515E+00
     -6.915  0.2941E+01  0.1130E+01
     -6.855  0.5098E+01  0.1440E+01
     -6.794  0.7607E+01  0.1903E+01
     -6.733  0.1112E+02  0.2579E+01
     -6.672  0.1879E+02  0.3721E+01
     -6.611  0.2842E+02  0.5449E+01
     -6.551  0.3338E+02  0.7478E+01
     -6.490  0.3609E+02  0.9673E+01
     -6.429  0.4159E+02  0.1220E+02
     -6.368  0.4818E+02  0.1513E+02
     -6.307  0.4797E+02  0.1805E+02
     -6.247  0.4162E+02  0.2058E+02
     -6.186  0.3507E+02  0.2271E+02
     -6.125  0.2716E+02  0.2436E+02
     -6.064  0.2338E+02  0.2578E+02
     -6.003  0.2449E+02  0.2727E+02
     -5.943  0.2349E+02  0.2870E+02
     -5.882  0.1952E+02  0.2988E+02
     -5.821  0.1783E+02  0.3097E+02
     -5.760  0.2735E+02  0.3263E+02
     -5.699  0.3985E+02  0.3505E+02
     -5.639  0.3862E+02  0.3740E+02
     -5.578  0.3889E+02  0.3977E+02
     -5.517  0.4942E+02  0.4277E+02
     -5.456  0.5376E+02  0.4604E+02
     -5.396  0.4239E+02  0.4862E+02
     -5.335  0.3612E+02  0.5081E+02
     -5.274  0.4709E+02  0.5368E+02
     -5.213  0.5924E+02  0.5728E+02
     -5.152  0.6033E+02  0.6095E+02
     -5.092  0.4760E+02  0.6384E+02
     -5.031  0.3331E+02  0.6586E+02
     -4.970  0.2843E+02  0.6759E+02
     -4.909  0.2947E+02  0.6938E+02
     -4.848  0.3208E+02  0.7134E+02
     -4.788  0.3274E+02  0.7333E+02
     -4.727  0.3500E+02  0.7545E+02
     -4.666  0.4527E+02  0.7821E+02
     -4.605  0.6126E+02  0.8193E+02
     -4.544  0.6959E+02  0.8616E+02
     -4.484  0.5872E+02  0.8973E+02
     -4.423  0.4224E+02  0.9230E+02
     -4.362  0.4041E+02  0.9476E+02
     -4.301  0.4296E+02  0.9737E+02
     -4.240  0.3816E+02  0.9969E+02
     -4.180  0.3809E+02  0.1020E+03
     -4.119  0.4004E+02  0.1044E+03
     -4.058  0.3651E+02  0.1067E+03
     -3.997  0.4707E+02  0.1095E+03
     -3.936  0.6677E+02  0.1136E+03
     -3.876  0.6121E+02  0.1173E+03
     -3.815  0.4322E+02  0.1199E+03
     -3.754  0.3592E+02  0.1221E+03
     -3.693  0.2370E+02  0.1236E+03
     -3.632  0.8482E+01  0.1241E+03
     -3.572  0.2785E+01  0.1242E+03
     -3.511  0.2864E+01  0.1244E+03
     -3.450  0.2063E+01  0.1245E+03
     -3.389  0.1156E+01  0.1246E+03
     -3.328  0.4190E+00  0.1246E+03
     -3.268  0.1611E+00  0.1246E+03
     -3.207  0.1707E+01  0.1247E+03
     -3.146  0.3715E+01  0.1250E+03
     -3.085  0.5001E+01  0.1253E+03
     -3.024  0.6494E+01  0.1257E+03
     -2.964  0.6151E+01  0.1260E+03
     -2.903  0.3280E+01  0.1262E+03
     -2.842  0.6725E+00  0.1263E+03
     -2.781 -0.3266E+00  0.1263E+03
     -2.720 -0.1040E+00  0.1263E+03
     -2.660  0.2047E+01  0.1264E+03
     -2.599  0.4652E+01  0.1267E+03
     -2.538  0.4262E+01  0.1269E+03
     -2.477  0.2747E+01  0.1271E+03
     -2.416  0.1191E+01  0.1272E+03
     -2.356 -0.6520E-01  0.1272E+03
     -2.295 -0.2262E+00  0.1271E+03
     -2.234  0.9510E+00  0.1272E+03
     -2.173  0.4056E+01  0.1275E+03
     -2.112  0.6673E+01  0.1279E+03
     -2.052  0.4812E+01  0.1281E+03
     -1.991  0.1371E+01  0.1282E+03
     -1.930  0.2198E+01  0.1284E+03
     -1.869  0.6316E+01  0.1288E+03
     -1.808  0.7193E+01  0.1292E+03
     -1.748  0.3391E+01  0.1294E+03
     -1.687  0.1431E+01  0.1295E+03
     -1.626  0.3363E+01  0.1297E+03
     -1.565  0.3757E+01  0.1299E+03
     -1.505  0.1802E+01  0.1300E+03
     -1.444  0.1696E+01  0.1301E+03
     -1.383  0.2014E+01  0.1302E+03
     -1.322  0.1087E+01  0.1303E+03
     -1.261  0.1208E+01  0.1304E+03
     -1.201  0.2481E+01  0.1305E+03
     -1.140  0.4755E+01  0.1308E+03
     -1.079  0.5997E+01  0.1312E+03
     -1.018  0.4105E+01  0.1314E+03
     -0.957  0.4081E+01  0.1317E+03
     -0.897  0.6627E+01  0.1321E+03
     -0.836  0.5754E+01  0.1324E+03
     -0.775  0.3692E+01  0.1327E+03
     -0.714  0.4567E+01  0.1329E+03
     -0.653  0.5939E+01  0.1333E+03
     -0.593  0.5567E+01  0.1336E+03
     -0.532  0.3713E+01  0.1339E+03
     -0.471  0.1153E+01  0.1339E+03
     -0.410  0.5011E-01  0.1339E+03
     -0.349  0.9231E+00  0.1340E+03
     -0.289  0.2686E+01  0.1342E+03
     -0.228  0.2732E+01  0.1343E+03
     -0.167  0.1565E+01  0.1344E+03
     -0.106  0.2234E+01  0.1346E+03
     -0.045  0.3575E+01  0.1348E+03
      0.015  0.4872E+01  0.1351E+03
      0.076  0.7378E+01  0.1355E+03
      0.137  0.9379E+01  0.1361E+03
      0.198  0.9853E+01  0.1367E+03
      0.259  0.8383E+01  0.1372E+03
      0.319  0.5099E+01  0.1375E+03
      0.380  0.2236E+01  0.1376E+03
      0.441  0.9034E+00  0.1377E+03
      0.502  0.1208E+01  0.1378E+03
      0.563  0.3321E+01  0.1380E+03
      0.623  0.4726E+01  0.1383E+03
      0.684  0.4892E+01  0.1386E+03
      0.745  0.4105E+01  0.1388E+03
      0.806  0.2819E+01  0.1390E+03
      0.867  0.2720E+01  0.1391E+03
      0.927  0.1845E+01  0.1393E+03
      0.988  0.2502E+00  0.1393E+03
      1.049  0.8867E+00  0.1393E+03
      1.110  0.4178E+01  0.1396E+03
      1.171  0.7688E+01  0.1401E+03
      1.231  0.7714E+01  0.1405E+03
      1.292  0.5665E+01  0.1409E+03
      1.353  0.6065E+01  0.1412E+03
      1.414  0.6797E+01  0.1416E+03
      1.475  0.7100E+01  0.1421E+03
      1.535  0.7881E+01  0.1426E+03
      1.596  0.5648E+01  0.1429E+03
      1.657  0.1439E+01  0.1430E+03
      1.718  0.3561E+00  0.1430E+03
      1.779  0.3448E+01  0.1432E+03
      1.839  0.5961E+01  0.1436E+03
      1.900  0.4008E+01  0.1438E+03
      1.961  0.1125E+01  0.1439E+03
      2.022  0.1289E+01  0.1440E+03
      2.083  0.2219E+01  0.1441E+03
      2.143  0.1005E+01  0.1442E+03
      2.204  0.6996E-01  0.1442E+03
      2.265  0.1397E+01  0.1443E+03
      2.326  0.3400E+01  0.1445E+03
      2.386  0.4385E+01  0.1447E+03
      2.447  0.3846E+01  0.1450E+03
      2.508  0.2240E+01  0.1451E+03
      2.569  0.2714E+01  0.1453E+03
      2.630  0.3884E+01  0.1455E+03
      2.690  0.3774E+01  0.1457E+03
      2.751  0.3960E+01  0.1460E+03
      2.812  0.4977E+01  0.1463E+03
      2.873  0.4352E+01  0.1465E+03
      2.934  0.2924E+01  0.1467E+03
      2.994  0.2337E+01  0.1469E+03
      3.055  0.1983E+01  0.1470E+03
      3.116  0.3016E+01  0.1472E+03
      3.177  0.5100E+01  0.1475E+03
      3.238  0.5344E+01  0.1478E+03
      3.298  0.4497E+01  0.1481E+03
      3.359  0.4727E+01  0.1484E+03
      3.420  0.6783E+01  0.1488E+03
      3.481  0.1093E+02  0.1494E+03
      3.542  0.1108E+02  0.1501E+03
      3.602  0.7673E+01  0.1506E+03
      3.663  0.4604E+01  0.1509E+03
      3.724  0.4665E+01  0.1511E+03
      3.785  0.8750E+01  0.1517E+03
      3.846  0.1254E+02  0.1524E+03
      3.906  0.1021E+02  0.1531E+03
      3.967  0.5599E+01  0.1534E+03
      4.028  0.8019E+01  0.1539E+03
      4.089  0.1243E+02  0.1546E+03
      4.150  0.8753E+01  0.1552E+03
      4.210  0.3838E+01  0.1554E+03
      4.271  0.6125E+01  0.1558E+03
      4.332  0.1317E+02  0.1566E+03
      4.393  0.1639E+02  0.1576E+03
      4.454  0.1026E+02  0.1582E+03
      4.514  0.4014E+01  0.1584E+03
      4.575  0.4583E+01  0.1587E+03
      4.636  0.7998E+01  0.1592E+03
      4.697  0.9461E+01  0.1598E+03
      4.758  0.9334E+01  0.1603E+03
      4.818  0.1056E+02  0.1610E+03
      4.879  0.1307E+02  0.1618E+03
      4.940  0.1135E+02  0.1625E+03
      5.001  0.6804E+01  0.1629E+03
      5.062  0.5550E+01  0.1632E+03
      5.122  0.7350E+01  0.1637E+03
      5.183  0.9132E+01  0.1642E+03
      5.244  0.1013E+02  0.1648E+03
      5.305  0.1332E+02  0.1657E+03
      5.366  0.1526E+02  0.1666E+03
      5.426  0.1111E+02  0.1673E+03
      5.487  0.8379E+01  0.1678E+03
      5.548  0.1157E+02  0.1685E+03
      5.609  0.1457E+02  0.1694E+03
      5.670  0.1350E+02  0.1702E+03
      5.730  0.1187E+02  0.1709E+03
      5.791  0.1239E+02  0.1717E+03
      5.852  0.1106E+02  0.1723E+03
      5.913  0.8895E+01  0.1729E+03
      5.974  0.9041E+01  0.1734E+03
      6.034  0.9303E+01  0.1740E+03
      6.095  0.6921E+01  0.1744E+03
      6.156  0.4579E+01  0.1747E+03
      6.217  0.7202E+01  0.1751E+03
      6.277  0.1046E+02  0.1758E+03
      6.338  0.1175E+02  0.1765E+03
      6.399  0.1342E+02  0.1773E+03
      6.460  0.1144E+02  0.1780E+03
      6.521  0.7648E+01  0.1784E+03
      6.581  0.7361E+01  0.1789E+03
      6.642  0.7134E+01  0.1793E+03
      6.703  0.6014E+01  0.1797E+03
      6.764  0.7567E+01  0.1802E+03
      6.825  0.1278E+02  0.1809E+03
      6.885  0.1714E+02  0.1820E+03
      6.946  0.1558E+02  0.1829E+03
      7.007  0.1179E+02  0.1836E+03
      7.068  0.1248E+02  0.1844E+03
      7.129  0.1647E+02  0.1854E+03
      7.189  0.1600E+02  0.1864E+03
      7.250  0.1284E+02  0.1871E+03
      7.311  0.1260E+02  0.1879E+03
      7.372  0.1178E+02  0.1886E+03
      7.433  0.1005E+02  0.1892E+03
      7.493  0.1001E+02  0.1898E+03
      7.554  0.1219E+02  0.1906E+03
      7.615  0.9699E+01  0.1912E+03
      7.676  0.3643E+01  0.1914E+03
      7.737  0.1799E+01  0.1915E+03
      7.797  0.2077E+01  0.1916E+03
      7.858  0.1458E+01  0.1917E+03
      7.919  0.1302E+01  0.1918E+03
      7.980  0.1452E+01  0.1919E+03
      8.041  0.1117E+01  0.1920E+03
      8.101  0.3311E+00  0.1920E+03
      8.162 -0.4992E-01  0.1920E+03
      8.223 -0.3906E-01  0.1920E+03
      8.284 -0.1380E-01  0.1920E+03
      8.345  0.2579E-02  0.1920E+03
      8.405  0.1020E+00  0.1920E+03
      8.466  0.1983E+00  0.1920E+03
      8.527  0.1163E+00  0.1920E+03
      8.588  0.8243E-02  0.1920E+03
      8.649 -0.9090E-02  0.1920E+03
      8.709 -0.2169E-02  0.1920E+03
      8.770 -0.1739E-03  0.1920E+03
      8.831 -0.5861E-05  0.1920E+03
      8.892 -0.8840E-07  0.1920E+03
      8.953 -0.6124E-09  0.1920E+03
      9.013 -0.1974E-11  0.1920E+03
      9.074 -0.2976E-14  0.1920E+03
      9.135  0.0000E+00  0.1920E+03
      9.196  0.0000E+00  0.1920E+03
      9.257  0.0000E+00  0.1920E+03
      9.317  0.0000E+00  0.1920E+03
      9.378  0.0000E+00  0.1920E+03
      9.439  0.0000E+00  0.1920E+03
      9.43893537     -8.80013600  301     -0.90989925      1.00000000
     -8.800  0.0000E+00  0.0000E+00  0.0000E+00
     -8.739  0.0000E+00  0.0000E+00  0.0000E+00
     -8.679  0.0000E+00  0.0000E+00  0.0000E+00
     -8.618 -0.2325E-30 -0.1851E-31 -0.1588E-32
     -8.557 -0.3090E-26 -0.2460E-27 -0.2110E-28
     -8.496 -0.1948E-22 -0.1551E-23 -0.1330E-24
     -8.435 -0.5818E-19 -0.4633E-20 -0.3974E-21
     -8.375 -0.7980E-16 -0.6354E-17 -0.5452E-18
     -8.314 -0.5280E-13 -0.4204E-14 -0.3609E-15
     -8.253 -0.1640E-10 -0.1306E-11 -0.1123E-12
     -8.192 -0.2377E-08 -0.1894E-09 -0.1634E-10
     -8.131 -0.1595E-06 -0.1273E-07 -0.1109E-08
     -8.071 -0.4896E-05 -0.3923E-06 -0.3512E-07
     -8.010 -0.6768E-04 -0.5482E-05 -0.5279E-06
     -7.949 -0.4070E-03 -0.3397E-04 -0.3886E-05
     -7.888 -0.8246E-03 -0.7564E-04 -0.1270E-04
     -7.827  0.2247E-02  0.1701E-03  0.8841E-05
     -7.767  0.1618E-01  0.1384E-02  0.1753E-03
     -7.706  0.3112E-01  0.2713E-02  0.3656E-03
     -7.645  0.2418E-01  0.2158E-02  0.3247E-03
     -7.584  0.2326E-01  0.2451E-02  0.7165E-03
     -7.523  0.4295E-01  0.4815E-02  0.1702E-02
     -7.463  0.4267E-01  0.4878E-02  0.1839E-02
     -7.402  0.1606E-01  0.1809E-02  0.6027E-03
     -7.341  0.8077E-02  0.1173E-02  0.8680E-03
     -7.280  0.4084E-01  0.6033E-02  0.4681E-02
     -7.219  0.5708E-01  0.8461E-02  0.6793E-02
     -7.159  0.3874E-01  0.6046E-02  0.5922E-02
     -7.098  0.2263E-01  0.3708E-02  0.4026E-02
     -7.037  0.6897E-02  0.1121E-02 -0.5202E-03
     -6.976  0.2115E-01  0.4333E-02  0.1033E-02
     -6.915  0.6443E-01  0.1297E-01  0.2237E-01
     -6.855  0.7014E-01  0.1375E-01  0.8860E-01
     -6.794  0.4805E-01  0.8450E-02  0.1967E+00
     -6.733  0.6080E-01  0.7747E-02  0.3260E+00
     -6.672  0.1249E+00  0.2096E-01  0.5712E+00
     -6.611  0.1855E+00  0.4252E-01  0.9423E+00
     -6.551  0.1987E+00  0.4804E-01  0.1361E+01
     -6.490  0.1887E+00  0.4699E-01  0.1694E+01
     -6.429  0.1786E+00  0.5718E-01  0.1984E+01
     -6.368  0.1947E+00  0.7050E-01  0.2403E+01
     -6.307  0.2067E+00  0.7398E-01  0.2567E+01
     -6.247  0.1607E+00  0.6347E-01  0.2326E+01
     -6.186  0.1065E+00  0.4687E-01  0.1976E+01
     -6.125  0.1129E+00  0.3492E-01  0.1512E+01
     -6.064  0.1430E+00  0.3270E-01  0.1376E+01
     -6.003  0.1087E+00  0.3287E-01  0.1578E+01
     -5.943  0.5057E-01  0.2978E-01  0.1618E+01
     -5.882  0.2730E-01  0.2401E-01  0.1397E+01
     -5.821  0.2620E-01  0.1665E-01  0.1295E+01
     -5.760  0.3206E-01  0.1700E-01  0.2118E+01
     -5.699  0.4449E-01  0.2834E-01  0.3164E+01
     -5.639  0.4278E-01  0.3244E-01  0.2944E+01
     -5.578  0.3539E-01  0.3020E-01  0.2674E+01
     -5.517  0.3689E-01  0.3303E-01  0.3346E+01
     -5.456  0.4307E-01  0.3460E-01  0.3745E+01
     -5.396  0.4329E-01  0.2549E-01  0.2958E+01
     -5.335  0.4014E-01  0.1830E-01  0.2443E+01
     -5.274  0.4218E-01  0.2410E-01  0.3328E+01
     -5.213  0.4611E-01  0.3605E-01  0.4590E+01
     -5.152  0.5283E-01  0.4622E-01  0.4966E+01
     -5.092  0.5135E-01  0.4182E-01  0.3968E+01
     -5.031  0.4873E-01  0.3164E-01  0.2724E+01
     -4.970  0.5118E-01  0.3588E-01  0.2323E+01
     -4.909  0.5212E-01  0.4733E-01  0.2563E+01
     -4.848  0.5649E-01  0.5158E-01  0.2875E+01
     -4.788  0.6024E-01  0.4748E-01  0.2910E+01
     -4.727  0.5901E-01  0.4686E-01  0.3237E+01
     -4.666  0.5724E-01  0.4681E-01  0.4344E+01
     -4.605  0.7856E-01  0.4259E-01  0.5844E+01
     -4.544  0.1043E+00  0.4353E-01  0.6482E+01
     -4.484  0.9142E-01  0.4393E-01  0.5209E+01
     -4.423  0.6205E-01  0.4604E-01  0.3553E+01
     -4.362  0.4218E-01  0.5294E-01  0.3446E+01
     -4.301  0.2802E-01  0.4309E-01  0.3670E+01
     -4.240  0.1838E-01  0.2497E-01  0.2963E+01
     -4.180  0.1454E-01  0.2315E-01  0.2680E+01
     -4.119  0.8397E-02  0.2507E-01  0.2962E+01
     -4.058  0.1989E-02  0.1841E-01  0.2845E+01
     -3.997  0.9522E-02  0.1545E-01  0.3731E+01
     -3.936  0.2791E-01  0.1675E-01  0.5290E+01
     -3.876  0.3482E-01  0.1469E-01  0.4697E+01
     -3.815  0.5287E-01  0.1779E-01  0.3092E+01
     -3.754  0.8465E-01  0.2786E-01  0.2549E+01
     -3.693  0.7034E-01  0.2678E-01  0.1845E+01
     -3.632  0.3687E-01  0.1628E-01  0.7367E+00
     -3.572  0.5025E-01  0.1022E-01  0.1411E+00
     -3.511  0.7139E-01  0.9132E-02  0.5408E-01
     -3.450  0.4980E-01  0.6658E-02  0.4446E-01
     -3.389  0.2884E-01  0.4661E-02  0.2614E-01
     -3.328  0.1047E-01  0.1659E-02  0.9412E-02
     -3.268  0.4545E-02  0.7099E-03  0.3812E-02
     -3.207  0.4788E-01  0.9214E-02  0.3879E-01
     -3.146  0.1020E+00  0.2116E-01  0.8440E-01
     -3.085  0.1046E+00  0.3010E-01  0.1492E+00
     -3.024  0.8442E-01  0.4226E-01  0.2460E+00
     -2.964  0.7636E-01  0.4584E-01  0.2223E+00
     -2.903  0.5760E-01  0.2841E-01  0.9061E-01
     -2.842  0.2010E-01  0.6692E-02  0.7928E-02
     -2.781 -0.5316E-02 -0.2980E-02 -0.9969E-02
     -2.720 -0.2097E-02 -0.1061E-02 -0.2134E-02
     -2.660  0.5125E-01  0.2073E-01  0.4433E-01
     -2.599  0.1166E+00  0.4816E-01  0.9794E-01
     -2.538  0.1128E+00  0.4670E-01  0.8102E-01
     -2.477  0.8162E-01  0.3325E-01  0.4105E-01
     -2.416  0.3764E-01  0.1509E-01  0.1525E-01
     -2.356 -0.6052E-03 -0.7130E-03 -0.1800E-02
     -2.295 -0.3257E-02 -0.1683E-02 -0.6985E-02
     -2.234  0.2587E-01  0.1413E-01  0.1087E-01
     -2.173  0.7304E-01  0.4482E-01  0.9011E-01
     -2.112  0.9462E-01  0.6561E-01  0.1715E+00
     -2.052  0.5970E-01  0.4623E-01  0.1278E+00
     -1.991  0.1413E-01  0.1340E-01  0.3442E-01
     -1.930  0.3455E-01  0.2802E-01  0.3931E-01
     -1.869  0.1217E+00  0.8415E-01  0.1194E+00
     -1.808  0.1615E+00  0.9959E-01  0.1352E+00
     -1.748  0.8915E-01  0.5019E-01  0.6048E-01
     -1.687  0.4184E-01  0.2749E-01  0.1624E-01
     -1.626  0.7961E-01  0.5789E-01  0.4220E-01
     -1.565  0.7825E-01  0.5569E-01  0.5614E-01
     -1.505  0.3023E-01  0.2235E-01  0.3143E-01
     -1.444  0.2010E-01  0.2191E-01  0.3030E-01
     -1.383  0.2362E-01  0.2840E-01  0.3420E-01
     -1.322  0.1756E-01  0.2095E-01  0.1309E-01
     -1.261  0.2981E-01  0.2960E-01  0.7469E-02
     -1.201  0.4812E-01  0.4037E-01  0.3484E-01
     -1.140  0.7233E-01  0.5452E-01  0.9442E-01
     -1.079  0.8070E-01  0.6356E-01  0.1310E+00
     -1.018  0.4933E-01  0.4438E-01  0.9136E-01
     -0.957  0.6165E-01  0.5766E-01  0.7946E-01
     -0.897  0.1299E+00  0.1093E+00  0.1222E+00
     -0.836  0.1327E+00  0.1096E+00  0.1006E+00
     -0.775  0.7985E-01  0.7711E-01  0.5629E-01
     -0.714  0.6120E-01  0.8074E-01  0.6716E-01
     -0.653  0.8102E-01  0.1111E+00  0.8098E-01
     -0.593  0.9006E-01  0.1145E+00  0.6910E-01
     -0.532  0.5770E-01  0.7085E-01  0.4845E-01
     -0.471  0.1204E-01  0.1987E-01  0.1547E-01
     -0.410 -0.2598E-02  0.5683E-03 -0.5740E-03
     -0.349  0.9941E-02  0.1586E-01  0.9341E-02
     -0.289  0.2595E-01  0.6095E-01  0.2066E-01
     -0.228  0.2365E-01  0.7606E-01  0.1393E-01
     -0.167  0.1879E-01  0.4013E-01  0.1192E-01
     -0.106  0.3732E-01  0.2974E-01  0.3378E-01
     -0.045  0.4814E-01  0.5160E-01  0.5090E-01
      0.015  0.4529E-01  0.7884E-01  0.6552E-01
      0.076  0.7532E-01  0.1101E+00  0.1082E+00
      0.137  0.1187E+00  0.1527E+00  0.1435E+00
      0.198  0.1489E+00  0.2202E+00  0.1468E+00
      0.259  0.1226E+00  0.2526E+00  0.1046E+00
      0.319  0.4879E-01  0.1861E+00  0.3929E-01
      0.380  0.1440E-01  0.7476E-01  0.1114E-01
      0.441  0.1124E-01  0.1421E-01  0.8578E-02
      0.502  0.4982E-02  0.2209E-01  0.1036E-01
      0.563  0.1676E-01  0.6572E-01  0.2979E-01
      0.623  0.4461E-01  0.8715E-01  0.5024E-01
      0.684  0.5471E-01  0.9887E-01  0.5437E-01
      0.745  0.3566E-01  0.9628E-01  0.4160E-01
      0.806  0.1635E-01  0.6552E-01  0.2502E-01
      0.867  0.2490E-01  0.5278E-01  0.2483E-01
      0.927  0.2352E-01  0.3238E-01  0.1797E-01
      0.988  0.5256E-02  0.2860E-02  0.2474E-02
      1.049  0.5654E-02  0.2215E-01  0.8007E-02
      1.110  0.2554E-01  0.1075E+00  0.4159E-01
      1.171  0.4528E-01  0.2051E+00  0.8243E-01
      1.231  0.4074E-01  0.1997E+00  0.8509E-01
      1.292  0.3789E-01  0.1253E+00  0.6816E-01
      1.353  0.7343E-01  0.1351E+00  0.8808E-01
      1.414  0.9552E-01  0.1608E+00  0.9795E-01
      1.475  0.8521E-01  0.1533E+00  0.8014E-01
      1.535  0.6262E-01  0.1715E+00  0.7006E-01
      1.596  0.2769E-01  0.1324E+00  0.5015E-01
      1.657  0.1552E-02  0.3686E-01  0.1537E-01
      1.718  0.1689E-02  0.9872E-02  0.4459E-02
      1.779  0.2643E-01  0.7923E-01  0.3615E-01
      1.839  0.3974E-01  0.1320E+00  0.6322E-01
      1.900  0.1787E-01  0.8610E-01  0.4147E-01
      1.961 -0.1733E-03  0.2358E-01  0.1057E-01
      2.022 -0.1484E-02  0.2734E-01  0.1152E-01
      2.083 -0.3642E-03  0.4714E-01  0.2038E-01
      2.143 -0.8378E-03  0.2085E-01  0.9190E-02
      2.204 -0.7361E-04  0.1376E-02  0.3875E-04
      2.265  0.8859E-02  0.3598E-01  0.1270E-01
      2.326  0.2414E-01  0.8857E-01  0.3639E-01
      2.386  0.3372E-01  0.1064E+00  0.4922E-01
      2.447  0.2854E-01  0.8320E-01  0.4022E-01
      2.508  0.1170E-01  0.5623E-01  0.2736E-01
      2.569  0.7643E-02  0.8409E-01  0.4230E-01
      2.630  0.1403E-01  0.9961E-01  0.5087E-01
      2.690  0.9498E-02  0.7869E-01  0.3944E-01
      2.751  0.2136E-01  0.7620E-01  0.4252E-01
      2.812  0.6399E-01  0.8896E-01  0.5983E-01
      2.873  0.5950E-01  0.7724E-01  0.5164E-01
      2.934  0.1654E-01  0.5733E-01  0.2965E-01
      2.994  0.1189E-01  0.3828E-01  0.2140E-01
      3.055  0.3153E-01  0.1065E-01  0.1720E-01
      3.116  0.8408E-01  0.1179E-01  0.3499E-01
      3.177  0.1517E+00  0.3205E-01  0.6754E-01
      3.238  0.1218E+00  0.3306E-01  0.6018E-01
      3.298  0.5743E-01  0.3393E-01  0.3797E-01
      3.359  0.5136E-01  0.4596E-01  0.3958E-01
      3.420  0.7203E-01  0.7331E-01  0.5913E-01
      3.481  0.1368E+00  0.1272E+00  0.1013E+00
      3.542  0.1581E+00  0.1282E+00  0.1000E+00
      3.602  0.7813E-01  0.8965E-01  0.5747E-01
      3.663  0.3816E-01  0.5613E-01  0.3676E-01
      3.724  0.1114E+00  0.4649E-01  0.5558E-01
      3.785  0.1585E+00  0.8275E-01  0.8057E-01
      3.846  0.1420E+00  0.1179E+00  0.8734E-01
      3.906  0.1052E+00  0.8513E-01  0.6662E-01
      3.967  0.6962E-01  0.3593E-01  0.3392E-01
      4.028  0.1757E+00  0.6723E-01  0.6159E-01
      4.089  0.2906E+00  0.1178E+00  0.1084E+00
      4.150  0.1744E+00  0.7634E-01  0.7125E-01
      4.210  0.2089E-01  0.8726E-02  0.1052E-01
      4.271  0.4546E-02  0.2226E-01  0.1227E-01
      4.332  0.8618E-01  0.1420E+00  0.8441E-01
      4.393  0.1632E+00  0.2321E+00  0.1468E+00
      4.454  0.1172E+00  0.1450E+00  0.9642E-01
      4.514  0.4968E-01  0.3784E-01  0.2641E-01
      4.575  0.8910E-01  0.6186E-01  0.4166E-01
      4.636  0.1282E+00  0.1125E+00  0.7412E-01
      4.697  0.9463E-01  0.8894E-01  0.5752E-01
      4.758  0.7329E-01  0.6128E-01  0.3880E-01
      4.818  0.9686E-01  0.9347E-01  0.5306E-01
      4.879  0.1198E+00  0.1377E+00  0.6675E-01
      4.940  0.9867E-01  0.1254E+00  0.6231E-01
      5.001  0.5163E-01  0.6746E-01  0.4573E-01
      5.062  0.2226E-01  0.3489E-01  0.2420E-01
      5.122  0.2258E-01  0.4930E-01  0.1944E-01
      5.183  0.4078E-01  0.9337E-01  0.3882E-01
      5.244  0.5898E-01  0.1304E+00  0.6529E-01
      5.305  0.6750E-01  0.1412E+00  0.7405E-01
      5.366  0.6182E-01  0.1561E+00  0.6126E-01
      5.426  0.4389E-01  0.1209E+00  0.4043E-01
      5.487  0.3872E-01  0.7339E-01  0.3711E-01
      5.548  0.5871E-01  0.1155E+00  0.6148E-01
      5.609  0.9631E-01  0.2074E+00  0.9011E-01
      5.670  0.1217E+00  0.2339E+00  0.9701E-01
      5.730  0.1028E+00  0.1670E+00  0.7711E-01
      5.791  0.9320E-01  0.1179E+00  0.5728E-01
      5.852  0.1102E+00  0.1145E+00  0.4974E-01
      5.913  0.9261E-01  0.1027E+00  0.4818E-01
      5.974  0.5197E-01  0.8106E-01  0.4130E-01
      6.034  0.3347E-01  0.8114E-01  0.3005E-01
      6.095  0.2502E-01  0.7248E-01  0.2181E-01
      6.156  0.1160E-01  0.4275E-01  0.1738E-01
      6.217  0.1501E-01  0.6269E-01  0.2826E-01
      6.277  0.2922E-01  0.1051E+00  0.4312E-01
      6.338  0.5040E-01  0.1011E+00  0.4879E-01
      6.399  0.7982E-01  0.1043E+00  0.6278E-01
      6.460  0.7443E-01  0.1156E+00  0.6398E-01
      6.521  0.4884E-01  0.8055E-01  0.3741E-01
      6.581  0.4542E-01  0.5549E-01  0.2710E-01
      6.642  0.3918E-01  0.6286E-01  0.3885E-01
      6.703  0.3867E-01  0.7414E-01  0.4914E-01
      6.764  0.7413E-01  0.8830E-01  0.6819E-01
      6.825  0.1018E+00  0.9106E-01  0.9834E-01
      6.885  0.9776E-01  0.8706E-01  0.9259E-01
      6.946  0.7874E-01  0.1022E+00  0.6165E-01
      7.007  0.6380E-01  0.1164E+00  0.6172E-01
      7.068  0.7344E-01  0.1338E+00  0.8389E-01
      7.129  0.9167E-01  0.1570E+00  0.8711E-01
      7.189  0.8420E-01  0.1355E+00  0.6954E-01
      7.250  0.6583E-01  0.1178E+00  0.7359E-01
      7.311  0.6053E-01  0.1293E+00  0.9456E-01
      7.372  0.5751E-01  0.1234E+00  0.8826E-01
      7.433  0.5378E-01  0.9956E-01  0.6137E-01
      7.493  0.4502E-01  0.7646E-01  0.3973E-01
      7.554  0.5876E-01  0.9495E-01  0.4343E-01
      7.615  0.6010E-01  0.8672E-01  0.4070E-01
      7.676  0.2601E-01  0.3267E-01  0.1661E-01
      7.737  0.1200E-01  0.2161E-01  0.9543E-02
      7.797  0.1560E-01  0.3248E-01  0.1299E-01
      7.858  0.1894E-01  0.3103E-01  0.1085E-01
      7.919  0.2160E-01  0.3136E-01  0.9964E-02
      7.980  0.1081E-01  0.1945E-01  0.6897E-02
      8.041  0.3927E-03  0.5860E-02  0.2888E-02
      8.101 -0.8651E-03  0.6055E-03  0.5526E-03
      8.162 -0.1987E-03 -0.4725E-03 -0.1866E-03
      8.223 -0.2460E-04 -0.2133E-03 -0.1035E-03
      8.284 -0.2140E-04 -0.6778E-04 -0.3374E-04
      8.345  0.6799E-05  0.1215E-04  0.6034E-05
      8.405  0.2429E-03  0.4848E-03  0.2411E-03
      8.466  0.4721E-03  0.9423E-03  0.4686E-03
      8.527  0.2770E-03  0.5528E-03  0.2749E-03
      8.588  0.1962E-04  0.3917E-04  0.1948E-04
      8.649 -0.2164E-04 -0.4319E-04 -0.2147E-04
      8.709 -0.5163E-05 -0.1030E-04 -0.5124E-05
      8.770 -0.4140E-06 -0.8263E-06 -0.4109E-06
      8.831 -0.1395E-07 -0.2785E-07 -0.1385E-07
      8.892 -0.2104E-09 -0.4200E-09 -0.2088E-09
      8.953 -0.1458E-11 -0.2910E-11 -0.1447E-11
      9.013 -0.4700E-14 -0.9381E-14 -0.4664E-14
      9.074 -0.7084E-17 -0.1414E-16 -0.7031E-17
      9.135  0.0000E+00  0.0000E+00  0.0000E+00
      9.196  0.0000E+00  0.0000E+00  0.0000E+00
      9.257  0.0000E+00  0.0000E+00  0.0000E+00
      9.317  0.0000E+00  0.0000E+00  0.0000E+00
      9.378  0.0000E+00  0.0000E+00  0.0000E+00
      9.439  0.0000E+00  0.0000E+00  0.0000E+00
      9.43893537     -8.80013600  301     -0.90989925      1.00000000
     -8.800  0.0000E+00  0.0000E+00  0.0000E+00
     -8.739  0.0000E+00  0.0000E+00  0.0000E+00
     -8.679  0.0000E+00  0.0000E+00  0.0000E+00
     -8.618 -0.2325E-30 -0.1851E-31 -0.1588E-32
     -8.557 -0.3090E-26 -0.2460E-27 -0.2110E-28
     -8.496 -0.1948E-22 -0.1551E-23 -0.1330E-24
     -8.435 -0.5818E-19 -0.4633E-20 -0.3974E-21
     -8.375 -0.7980E-16 -0.6354E-17 -0.5452E-18
     -8.314 -0.5280E-13 -0.4204E-14 -0.3609E-15
     -8.253 -0.1640E-10 -0.1306E-11 -0.1123E-12
     -8.192 -0.2377E-08 -0.1894E-09 -0.1634E-10
     -8.131 -0.1595E-06 -0.1273E-07 -0.1109E-08
     -8.071 -0.4896E-05 -0.3923E-06 -0.3512E-07
     -8.010 -0.6768E-04 -0.5482E-05 -0.5279E-06
     -7.949 -0.4070E-03 -0.3397E-04 -0.3886E-05
     -7.888 -0.8246E-03 -0.7564E-04 -0.1270E-04
     -7.827  0.2247E-02  0.1701E-03  0.8841E-05
     -7.767  0.1618E-01  0.1384E-02  0.1753E-03
     -7.706  0.3112E-01  0.2713E-02  0.3656E-03
     -7.645  0.2418E-01  0.2158E-02  0.3248E-03
     -7.584  0.2326E-01  0.2451E-02  0.7165E-03
     -7.523  0.4295E-01  0.4815E-02  0.1702E-02
     -7.463  0.4267E-01  0.4878E-02  0.1839E-02
     -7.402  0.1606E-01  0.1809E-02  0.6027E-03
     -7.341  0.8077E-02  0.1173E-02  0.8680E-03
     -7.280  0.4084E-01  0.6033E-02  0.4681E-02
     -7.219  0.5708E-01  0.8461E-02  0.6793E-02
     -7.159  0.3874E-01  0.6046E-02  0.5922E-02
     -7.098  0.2262E-01  0.3708E-02  0.4026E-02
     -7.037  0.6897E-02  0.1121E-02 -0.5201E-03
     -6.976  0.2115E-01  0.4333E-02  0.1033E-02
     -6.915  0.6443E-01  0.1297E-01  0.2237E-01
     -6.855  0.7014E-01  0.1375E-01  0.8860E-01
     -6.794  0.4805E-01  0.8450E-02  0.1967E+00
     -6.733  0.6080E-01  0.7747E-02  0.3260E+00
     -6.672  0.1249E+00  0.2096E-01  0.5712E+00
     -6.611  0.1855E+00  0.4252E-01  0.9423E+00
     -6.551  0.1987E+00  0.4804E-01  0.1361E+01
     -6.490  0.1887E+00  0.4699E-01  0.1694E+01
     -6.429  0.1786E+00  0.5718E-01  0.1984E+01
     -6.368  0.1947E+00  0.7050E-01  0.2403E+01
     -6.307  0.2067E+00  0.7398E-01  0.2567E+01
     -6.247  0.1606E+00  0.6347E-01  0.2326E+01
     -6.186  0.1065E+00  0.4687E-01  0.1976E+01
     -6.125  0.1129E+00  0.3492E-01  0.1512E+01
     -6.064  0.1430E+00  0.3270E-01  0.1376E+01
     -6.003  0.1087E+00  0.3287E-01  0.1578E+01
     -5.943  0.5057E-01  0.2978E-01  0.1618E+01
     -5.882  0.2730E-01  0.2401E-01  0.1397E+01
     -5.821  0.2620E-01  0.1665E-01  0.1295E+01
     -5.760  0.3206E-01  0.1700E-01  0.2118E+01
     -5.699  0.4449E-01  0.2834E-01  0.3164E+01
     -5.639  0.4278E-01  0.3244E-01  0.2944E+01
     -5.578  0.3539E-01  0.3020E-01  0.2674E+01
     -5.517  0.3689E-01  0.3303E-01  0.3346E+01
     -5.456  0.4307E-01  0.3460E-01  0.3745E+01
     -5.396  0.4329E-01  0.2549E-01  0.2958E+01
     -5.335  0.4014E-01  0.1830E-01  0.2443E+01
     -5.274  0.4218E-01  0.2410E-01  0.3328E+01
     -5.213  0.4611E-01  0.3605E-01  0.4590E+01
     -5.152  0.5283E-01  0.4622E-01  0.4966E+01
     -5.092  0.5135E-01  0.4182E-01  0.3968E+01
     -5.031  0.4873E-01  0.3164E-01  0.2724E+01
     -4.970  0.5118E-01  0.3588E-01  0.2323E+01
     -4.909  0.5212E-01  0.4733E-01  0.2563E+01
     -4.848  0.5649E-01  0.5158E-01  0.2875E+01
     -4.788  0.6024E-01  0.4748E-01  0.2910E+01
     -4.727  0.5901E-01  0.4686E-01  0.3237E+01
     -4.666  0.5724E-01  0.4681E-01  0.4344E+01
     -4.605  0.7856E-01  0.4259E-01  0.5844E+01
     -4.544  0.1043E+00  0.4353E-01  0.6482E+01
     -4.484  0.9142E-01  0.4393E-01  0.5209E+01
     -4.423  0.6205E-01  0.4604E-01  0.3553E+01
     -4.362  0.4218E-01  0.5294E-01  0.3446E+01
     -4.301  0.2802E-01  0.4309E-01  0.3670E+01
     -4.240  0.1838E-01  0.2497E-01  0.2963E+01
     -4.180  0.1454E-01  0.2315E-01  0.2680E+01
     -4.119  0.8397E-02  0.2507E-01  0.2962E+01
     -4.058  0.1989E-02  0.1841E-01  0.2845E+01
     -3.997  0.9522E-02  0.1545E-01  0.3731E+01
     -3.936  0.2791E-01  0.1675E-01  0.5290E+01
     -3.876  0.3482E-01  0.1469E-01  0.4697E+01
     -3.815  0.5287E-01  0.1779E-01  0.3092E+01
     -3.754  0.8465E-01  0.2786E-01  0.2549E+01
     -3.693  0.7034E-01  0.2678E-01  0.1845E+01
     -3.632  0.3687E-01  0.1628E-01  0.7367E+00
     -3.572  0.5025E-01  0.1022E-01  0.1411E+00
     -3.511  0.7139E-01  0.9132E-02  0.5408E-01
     -3.450  0.4980E-01  0.6658E-02  0.4446E-01
     -3.389  0.2884E-01  0.4661E-02  0.2614E-01