       N       E                     dE             d eps       ncg     rms          rms(c)
DAV:   1     0.677059466352E+03    0.67706E+03   -0.49958E+04  2304   0.926E+02
DAV:   2    -0.123723596548E+02   -0.68943E+03   -0.65600E+03  2592   0.220E+02
DAV:   3    -0.319483685077E+02   -0.19576E+02   -0.19393E+02  2856   0.397E+01
DAV:   4    -0.321148040826E+02   -0.16644E+00   -0.16642E+00  2808   0.398E+00
DAV:   5    -0.321172403140E+02   -0.24362E-02   -0.24362E-02  3096   0.425E-01    0.139E+01
DAV:   6    -0.299026614626E+02    0.22146E+01   -0.75974E+00  2688   0.112E+01    0.930E+00
DAV:   7    -0.298308911873E+02    0.71770E-01   -0.16700E-01  2760   0.126E+00    0.522E+00
DAV:   8    -0.298086031647E+02    0.22288E-01   -0.14850E-02  2616   0.398E-01    0.141E-01
DAV:   9    -0.298083813246E+02    0.22184E-03   -0.84220E-04  2904   0.136E-01    0.749E-02
DAV:  10    -0.298081545404E+02    0.22678E-03   -0.25177E-04  2448   0.794E-02    0.433E-02
DAV:  11    -0.298079485608E+02    0.20598E-03   -0.14919E-04  2064   0.404E-02    0.179E-02
DAV:  12    -0.298080088771E+02   -0.60316E-04   -0.24615E-05  2016   0.148E-02
   1 F= -.29808009E+02 E0= -.29805865E+02  d E =-.643057E-02
