 vasp.5.4.1 05Feb16 (build Feb 08 2018 09:21:51) complex                        
  
 executed on             LinuxIFC date 2019.11.21  23:49:19
 running on   24 total cores
 distrk:  each k-point on   24 cores,    1 groups
 distr:  one band on NCORES_PER_BAND=   1 cores,   24 groups


--------------------------------------------------------------------------------------------------------


 INCAR:
 POTCAR:    PAW_PBE Ag 02Apr2005                  

 ----------------------------------------------------------------------------- 
|                                                                             |
|           W    W    AA    RRRRR   N    N  II  N    N   GGGG   !!!           |
|           W    W   A  A   R    R  NN   N  II  NN   N  G    G  !!!           |
|           W    W  A    A  R    R  N N  N  II  N N  N  G       !!!           |
|           W WW W  AAAAAA  RRRRR   N  N N  II  N  N N  G  GGG   !            |
|           WW  WW  A    A  R   R   N   NN  II  N   NN  G    G                |
|           W    W  A    A  R    R  N    N  II  N    N   GGGG   !!!           |
|                                                                             |
|      For optimal performance we recommend to set                            |
|        NCORE= 4 - approx SQRT( number of cores)                             |
|      NCORE specifies how many cores store one orbital (NPAR=cpu/NCORE).     |
|      This setting can  greatly improve the performance of VASP for DFT.     |
|      The default, NPAR=number of cores might be grossly inefficient         |
|      on modern multi-core architectures or massively parallel machines.     |
|      Do your own testing !!!!                                               |
|      Unfortunately you need to use the default for GW and RPA calculations. |
|      (for HF NCORE is supported but not extensively tested yet)             |
|                                                                             |
 ----------------------------------------------------------------------------- 

 POTCAR:    PAW_PBE Ag 02Apr2005                  
   VRHFIN =Ag : s1 d10                                                          
   LEXCH  = PE                                                                  
   EATOM  =  1037.2675 eV,   76.2370 Ry                                         
                                                                                
   TITEL  = PAW_PBE Ag 02Apr2005                                                
   LULTRA =        F    use ultrasoft PP ?                                      
   IUNSCR =        1    unscreen: 0-lin 1-nonlin 2-no                           
   RPACOR =    2.000    partial core radius                                     
   POMASS =  107.868; ZVAL   =   11.000    mass and valenz                      
   RCORE  =    2.500    outmost cutoff radius                                   
   RWIGS  =    2.840; RWIGS  =    1.503    wigner-seitz radius (au A)           
   ENMAX  =  249.844; ENMIN  =  187.383 eV                                      
   ICORE  =        3    local potential                                         
   LCOR   =        T    correct aug charges                                     
   LPAW   =        T    paw PP                                                  
   EAUG   =  412.496                                                            
   DEXC   =    0.000                                                            
   RMAX   =    2.560    core radius for proj-oper                               
   RAUG   =    1.300    factor for augmentation sphere                          
   RDEP   =    2.576    radius for radial grids                                 
   RDEPT  =    2.072    core radius for aug-charge                              
                                                                                
   Atomic configuration                                                         
   12 entries                                                                   
     n  l   j            E        occ.                                          
     1  0  0.50    -25324.9161   2.0000                                         
     2  0  0.50     -3728.5341   2.0000                                         
     2  1  1.50     -3344.0404   6.0000                                         
     3  0  0.50      -683.5581   2.0000                                         
     3  1  1.50      -557.3225   6.0000                                         
     3  2  2.50      -358.3853  10.0000                                         
     4  0  0.50       -95.0341   2.0000                                         
     4  1  1.50       -58.5511   6.0000                                         
     4  2  2.50        -7.4440  10.0000                                         
     5  0  0.50        -4.4045   1.0000                                         
     5  1  0.50        -1.3606   0.0000                                         
     4  3  2.50        -1.3606   0.0000                                         
   Description                                                                  
     l       E           TYP  RCUT    TYP  RCUT                                 
     2     -7.4439781     23  2.400                                             
     2     -8.8045607     23  2.400                                             
     0     -4.4044681     23  2.400                                             
     0      1.9520038     23  2.400                                             
     1     -1.3605826     23  2.500                                             
     1     27.2116520     23  2.500                                             
     3     -4.0817478     23  2.400                                             
  local pseudopotential read in
  partial core-charges read in
  partial kinetic energy density read in
  atomic valenz-charges read in
  non local Contribution for L=           2  read in
    real space projection operators read in
  non local Contribution for L=           2  read in
    real space projection operators read in
  non local Contribution for L=           0  read in
    real space projection operators read in
  non local Contribution for L=           0  read in
    real space projection operators read in
  non local Contribution for L=           1  read in
    real space projection operators read in
  non local Contribution for L=           1  read in
    real space projection operators read in
    PAW grid and wavefunctions read in
 
   number of l-projection  operators is LMAX  =           6
   number of lm-projection operators is LMMAX =          18
 
  PAW_PBE Ag 02Apr2005                  :
 energy of atom  1       EATOM=-1037.2675
 kinetic energy error for atom=    0.0091 (will be added to EATOM!!)
 
 
 POSCAR: Ag                                      
  positions in cartesian coordinates
  No initial velocities read in
 exchange correlation table for  LEXCH =        8
   RHO(1)=    0.500       N(1)  =     2000
   RHO(2)=  100.500       N(2)  =     4000
 


--------------------------------------------------------------------------------------------------------


 ion  position               nearest neighbor table
   1  0.167  0.167  0.404-   6 2.92   5 2.92   8 2.92   2 2.93   2 2.93   3 2.93   4 2.93   3 2.93
                             4 2.93
   2  0.667  0.167  0.404-   5 2.92   6 2.92   7 2.92   1 2.93   1 2.93   3 2.93   4 2.93   4 2.93
                             3 2.93
   3  0.167  0.667  0.404-   8 2.92   7 2.92   6 2.92   4 2.93   4 2.93   1 2.93   2 2.93   2 2.93
                             1 2.93
   4  0.667  0.667  0.404-   7 2.92   8 2.92   5 2.92   3 2.93   3 2.93   1 2.93   2 2.93   1 2.93
                             2 2.93
   5  0.833  0.333  0.500-   2 2.92  12 2.92   9 2.92  11 2.92   1 2.92   4 2.92   6 2.93   6 2.93
                             7 2.93   8 2.93   7 2.93   8 2.93
   6  0.333  0.333  0.500-   1 2.92  11 2.92  10 2.92  12 2.92   2 2.92   3 2.92   5 2.93   5 2.93
                             7 2.93   8 2.93   8 2.93   7 2.93
   7  0.833  0.833  0.500-   4 2.92  10 2.92  11 2.92   9 2.92   3 2.92   2 2.92   8 2.93   8 2.93
                             5 2.93   6 2.93   6 2.93   5 2.93
   8  0.333  0.833  0.500-   3 2.92   9 2.92  12 2.92  10 2.92   4 2.92   1 2.92   7 2.93   7 2.93
                             5 2.93   6 2.93   5 2.93   6 2.93
   9  0.000  0.000  0.596-   8 2.92   5 2.92   7 2.92  10 2.93  10 2.93  11 2.93  12 2.93  11 2.93
                            12 2.93
  10  0.500  0.000  0.596-   7 2.92   6 2.92   8 2.92   9 2.93   9 2.93  11 2.93  12 2.93  12 2.93
                            11 2.93
  11  0.000  0.500  0.596-   6 2.92   7 2.92   5 2.92  12 2.93  12 2.93   9 2.93  10 2.93  10 2.93
                             9 2.93
  12  0.500  0.500  0.596-   5 2.92   8 2.92   6 2.92  11 2.93  11 2.93   9 2.93  10 2.93   9 2.93
                            10 2.93
 
  LATTYP: Found a hexagonal cell.
 ALAT       =     5.8647436409
 C/A-ratio  =     4.2267053170
  
  Lattice vectors:
  
 A1 = (   2.9323718200,  -5.0790169800,   0.0000000000)
 A2 = (  -5.8647436400,   0.0000000000,   0.0000000000)
 A3 = (   0.0000000000,   0.0000000000, -24.7885431300)


Analysis of symmetry for initial positions (statically):
=====================================================================
 Subroutine PRICEL returns following result:
 
  LATTYP: Found a hexagonal cell.
 ALAT       =     2.9323718205
 C/A-ratio  =     8.4534106340
  
  Lattice vectors:
  
 A1 = (   1.4661859100,  -2.5395084900,   0.0000000000)
 A2 = (  -2.9323718200,   0.0000000000,   0.0000000000)
 A3 = (   0.0000000000,   0.0000000000, -24.7885431300)
 
   4 primitive cells build up your supercell.
 

 Routine SETGRP: Setting up the symmetry group for a 
 hexagonal supercell.


 Subroutine GETGRP returns: Found 12 space group operations
 (whereof  6 operations were pure point group operations)
 out of a pool of 24 trial point group operations.


The static configuration has the point symmetry C_3v.
 The point group associated with its full space group is D_3d.


Analysis of symmetry for dynamics (positions and initial velocities):
=====================================================================
 Subroutine PRICEL returns following result:
 
  LATTYP: Found a hexagonal cell.
 ALAT       =     2.9323718205
 C/A-ratio  =     8.4534106340
  
  Lattice vectors:
  
 A1 = (   1.4661859100,  -2.5395084900,   0.0000000000)
 A2 = (  -2.9323718200,   0.0000000000,   0.0000000000)
 A3 = (   0.0000000000,   0.0000000000, -24.7885431300)
 
   4 primitive cells build up your supercell.
 

 Routine SETGRP: Setting up the symmetry group for a 
 hexagonal supercell.


 Subroutine GETGRP returns: Found 12 space group operations
 (whereof  6 operations were pure point group operations)
 out of a pool of 24 trial point group operations.


The dynamic configuration has the point symmetry C_3v.
 The point group associated with its full space group is D_3d.


 Subroutine INISYM returns: Found 12 space group operations
 (whereof  6 operations are pure point group operations),
 and found     4 'primitive' translations

 
 
 KPOINTS: KPOINTS created by Atomic Simulation Env

Automatic generation of k-mesh.
Space group operators:
 irot       det(A)        alpha          n_x          n_y          n_z        tau_x        tau_y        tau_z
    1     1.000000     0.000000     1.000000     0.000000     0.000000     0.000000     0.000000     0.000000
    2     1.000000   120.000000     0.000000     0.000000     1.000000     0.000000     0.000000     0.000000
    3     1.000000   120.000000     0.000000     0.000000    -1.000000     0.000000     0.000000     0.000000
    4    -1.000000   180.000000     0.500000    -0.866025     0.000000     0.000000     0.000000     0.000000
    5    -1.000000   180.000000     1.000000     0.000000     0.000000     0.000000     0.000000     0.000000
    6    -1.000000   180.000000    -0.500000    -0.866025     0.000000     0.000000     0.000000     0.000000
    7    -1.000000     0.000000     1.000000     0.000000     0.000000     0.166667    -0.333333     0.000000
    8    -1.000000   120.000000     0.000000     0.000000     1.000000     0.166667    -0.333333     0.000000
    9    -1.000000   120.000000     0.000000     0.000000    -1.000000     0.166667    -0.333333     0.000000
   10     1.000000   180.000000     0.500000    -0.866025     0.000000     0.166667    -0.333333     0.000000
   11     1.000000   180.000000     1.000000     0.000000     0.000000     0.166667    -0.333333     0.000000
   12     1.000000   180.000000    -0.500000    -0.866025     0.000000     0.166667    -0.333333     0.000000
 
 Subroutine IBZKPT returns following result:
 ===========================================
 
 Found     12 irreducible k-points:
 
 Following reciprocal coordinates:
            Coordinates               Weight
  0.000000  0.000000  0.000000      1.000000
  0.111111  0.000000  0.000000      6.000000
  0.222222 -0.000000  0.000000      6.000000
  0.333333 -0.000000  0.000000      6.000000
  0.444444 -0.000000  0.000000      6.000000
  0.222222  0.111111  0.000000      6.000000
  0.333333  0.111111  0.000000     12.000000
  0.444444  0.111111  0.000000     12.000000
 -0.444444  0.111111  0.000000      6.000000
  0.444444  0.222222  0.000000      6.000000
 -0.444444  0.222222  0.000000     12.000000
 -0.333333  0.333333  0.000000      2.000000
 
 Following cartesian coordinates:
            Coordinates               Weight
  0.000000  0.000000  0.000000      1.000000
  0.018946 -0.010938  0.000000      6.000000
  0.037891 -0.021876  0.000000      6.000000
  0.056837 -0.032815  0.000000      6.000000
  0.075782 -0.043753  0.000000      6.000000
  0.037891 -0.000000  0.000000      6.000000
  0.056837 -0.010938  0.000000     12.000000
  0.075782 -0.021876  0.000000     12.000000
 -0.075782  0.065629  0.000000      6.000000
  0.075782  0.000000  0.000000      6.000000
 -0.075782  0.087506  0.000000     12.000000
 -0.056837  0.098444  0.000000      2.000000
 


--------------------------------------------------------------------------------------------------------




 Dimension of arrays:
   k-points           NKPTS =     12   k-points in BZ     NKDIM =     12   number of bands    NBANDS=     96
   number of dos      NEDOS =    301   number of ions     NIONS =     12
   non local maximal  LDIM  =      6   non local SUM 2l+1 LMDIM =     18
   total plane-waves  NPLWV = 113400
   max r-space proj   IRMAX =      1   max aug-charges    IRDMAX=   7750
   dimension x,y,z NGX =    30 NGY =   30 NGZ =  126
   dimension x,y,z NGXF=    60 NGYF=   60 NGZF=  252
   support grid    NGXF=    60 NGYF=   60 NGZF=  252
   ions per type =              12
 NGX,Y,Z   is equivalent  to a cutoff of   8.50,  8.50,  8.45 a.u.
 NGXF,Y,Z  is equivalent  to a cutoff of  17.01, 17.01, 16.90 a.u.


 I would recommend the setting:
   dimension x,y,z NGX =    29 NGY =   29 NGZ =  121
 SYSTEM =  unknown system                          
 POSCAR =  Ag                                      

 Startparameter for this run:
   NWRITE =      2    write-flag & timer
   PREC   = normal    normal or accurate (medium, high low for compatibility)
   ISTART =      0    job   : 0-new  1-cont  2-samecut
   ICHARG =      2    charge: 1-file 2-atom 10-const
   ISPIN  =      1    spin polarized calculation?
   LNONCOLLINEAR =      F non collinear calculations
   LSORBIT =      F    spin-orbit coupling
   INIWAV =      1    electr: 0-lowe 1-rand  2-diag
   LASPH  =      F    aspherical Exc in radial PAW
   METAGGA=      F    non-selfconsistent MetaGGA calc.

 Electronic Relaxation 1
   ENCUT  =  400.0 eV  29.40 Ry    5.42 a.u.   9.56  9.56 40.42*2*pi/ulx,y,z
   ENINI  =  400.0     initial cutoff
   ENAUG  =  412.5 eV  augmentation charge cutoff
   NELM   =     60;   NELMIN=  2; NELMDL= -5     # of ELM steps 
   EDIFF  = 0.1E-03   stopping-criterion for ELM
   LREAL  =      F    real-space projection
   NLSPLINE    = F    spline interpolate recip. space projectors
   LCOMPAT=      F    compatible to vasp.4.4
   GGA_COMPAT  = T    GGA compatible to vasp.4.4-vasp.4.6
   LMAXPAW     = -100 max onsite density
   LMAXMIX     =    2 max onsite mixed and CHGCAR
   VOSKOWN=      0    Vosko Wilk Nusair interpolation
   ROPT   =    0.00000
 Ionic relaxation
   EDIFFG = 0.1E-02   stopping-criterion for IOM
   NSW    =      0    number of steps for IOM
   NBLOCK =      1;   KBLOCK =      1    inner block; outer block 
   IBRION =     -1    ionic relax: 0-MD 1-quasi-New 2-CG
   NFREE  =      0    steps in history (QN), initial steepest desc. (CG)
   ISIF   =      2    stress and relaxation
   IWAVPR =     10    prediction:  0-non 1-charg 2-wave 3-comb
   ISYM   =      2    0-nonsym 1-usesym 2-fastsym
   LCORR  =      T    Harris-Foulkes like correction to forces

   POTIM  = 0.5000    time-step for ionic-motion
   TEIN   =    0.0    initial temperature
   TEBEG  =    0.0;   TEEND  =   0.0 temperature during run
   SMASS  =  -3.00    Nose mass-parameter (am)
   estimated Nose-frequenzy (Omega)   =  0.10E-29 period in steps =****** mass=  -0.786E-27a.u.
   SCALEE = 1.0000    scale energy and forces
   NPACO  =    256;   APACO  = 16.0  distance and # of slots for P.C.
   PSTRESS=    0.0 pullay stress

  Mass of Ions in am
   POMASS = 107.87
  Ionic Valenz
   ZVAL   =  11.00
  Atomic Wigner-Seitz radii
   RWIGS  =  -1.00
  virtual crystal weights 
   VCA    =   1.00
   NELECT =     132.0000    total number of electrons
   NUPDOWN=      -1.0000    fix difference up-down

 DOS related values:
   EMIN   =  10.00;   EMAX   =-10.00  energy-range for DOS
   EFERMI =   0.00
   ISMEAR =     1;   SIGMA  =   0.10  broadening in eV -4-tet -1-fermi 0-gaus

 Electronic relaxation 2 (details)
   IALGO  =     38    algorithm
   LDIAG  =      T    sub-space diagonalisation (order eigenvalues)
   LSUBROT=      F    optimize rotation matrix (better conditioning)
   TURBO    =      0    0=normal 1=particle mesh
   IRESTART =      0    0=no restart 2=restart with 2 vectors
   NREBOOT  =      0    no. of reboots
   NMIN     =      0    reboot dimension
   EREF     =   0.00    reference energy to select bands
   IMIX   =      4    mixing-type and parameters
     AMIX     =   0.40;   BMIX     =  1.00
     AMIX_MAG =   1.60;   BMIX_MAG =  1.00
     AMIN     =   0.10
     WC   =   100.;   INIMIX=   1;  MIXPRE=   1;  MAXMIX= -45

 Intra band minimization:
   WEIMIN = 0.0000     energy-eigenvalue tresh-hold
   EBREAK =  0.26E-06  absolut break condition
   DEPER  =   0.30     relativ break condition  

   TIME   =   0.40     timestep for ELM

  volume/ion in A,a.u.               =      61.53       415.24
  Fermi-wavevector in a.u.,A,eV,Ry     =   0.922231  1.742763 11.571884  0.850509
  Thomas-Fermi vector in A             =   2.047735
 
 Write flags
   LWAVE  =      F    write WAVECAR
   LCHARG =      F    write CHGCAR
   LVTOT  =      F    write LOCPOT, total local potential
   LVHAR  =      F    write LOCPOT, Hartree potential only
   LELF   =      F    write electronic localiz. function (ELF)
   LORBIT =     10    0 simple, 1 ext, 2 COOP (PROOUT)


 Dipole corrections
   LMONO  =      F    monopole corrections only (constant potential shift)
   LDIPOL =      F    correct potential (dipole corrections)
   IDIPOL =      0    1-x, 2-y, 3-z, 4-all directions 
   EPSILON=  1.0000000 bulk dielectric constant

 Exchange correlation treatment:
   GGA     =    --    GGA type
   LEXCH   =     8    internal setting for exchange type
   VOSKOWN=      0    Vosko Wilk Nusair interpolation
   LHFCALC =     F    Hartree Fock is set to
   LHFONE  =     F    Hartree Fock one center treatment
   AEXX    =    0.0000 exact exchange contribution

 Linear response parameters
   LEPSILON=     F    determine dielectric tensor
   LRPA    =     F    only Hartree local field effects (RPA)
   LNABLA  =     F    use nabla operator in PAW spheres
   LVEL    =     F    velocity operator in full k-point grid
   LINTERFAST=   F  fast interpolation
   KINTER  =     0    interpolate to denser k-point grid
   CSHIFT  =0.1000    complex shift for real part using Kramers Kronig
   OMEGAMAX=  -1.0    maximum frequency
   DEG_THRESHOLD= 0.2000000E-02 threshold for treating states as degnerate
   RTIME   =    0.100 relaxation time in fs

 Orbital magnetization related:
   ORBITALMAG=     F  switch on orbital magnetization
   LCHIMAG   =     F  perturbation theory with respect to B field
   DQ        =  0.001000  dq finite difference perturbation B field



--------------------------------------------------------------------------------------------------------


 Static calculation
 charge density and potential will be updated during run
 non-spin polarized calculation
 Variant of blocked Davidson
 Davidson routine will perform the subspace rotation
 perform sub-space diagonalisation
    after iterative eigenvector-optimisation
 modified Broyden-mixing scheme, WC =      100.0
 initial mixing is a Kerker type mixing with AMIX =  0.4000 and BMIX =      1.0000
 Hartree-type preconditioning will be used
 using additional bands           30
 reciprocal scheme for non local part
 use partial core corrections
 calculate Harris-corrections to forces 
   (improved forces if not selfconsistent)
 use gradient corrections 
 use of overlap-Matrix (Vanderbilt PP)
 Methfessel and Paxton  Order N= 1 SIGMA  =   0.10


--------------------------------------------------------------------------------------------------------


  energy-cutoff  :      400.00
  volume of cell :      738.38
      direct lattice vectors                 reciprocal lattice vectors
     5.864743640  0.000000000  0.000000000     0.170510437 -0.098444247  0.000000000
     2.932371820  5.079016980  0.000000000     0.000000000  0.196888493  0.000000000
     0.000000000  0.000000000 24.788543130     0.000000000  0.000000000  0.040341217

  length of vectors
     5.864743640  5.864743641 24.788543130     0.196888493  0.196888493  0.040341217


 
 k-points in units of 2pi/SCALE and weight: KPOINTS created by Atomic Simulation Env
   0.00000000  0.00000000  0.00000000       0.012
   0.01894560 -0.01093825  0.00000000       0.074
   0.03789121 -0.02187650  0.00000000       0.074
   0.05683681 -0.03281475  0.00000000       0.074
   0.07578242 -0.04375300  0.00000000       0.074
   0.03789121 -0.00000000  0.00000000       0.074
   0.05683681 -0.01093825  0.00000000       0.148
   0.07578242 -0.02187650  0.00000000       0.148
  -0.07578242  0.06562950  0.00000000       0.074
   0.07578242  0.00000000  0.00000000       0.074
  -0.07578242  0.08750600  0.00000000       0.148
  -0.05683681  0.09844425  0.00000000       0.025
 
 k-points in reciprocal lattice and weights: KPOINTS created by Atomic Simulation Env
   0.00000000  0.00000000  0.00000000       0.012
   0.11111111  0.00000000  0.00000000       0.074
   0.22222222 -0.00000000  0.00000000       0.074
   0.33333333 -0.00000000  0.00000000       0.074
   0.44444444 -0.00000000  0.00000000       0.074
   0.22222222  0.11111111  0.00000000       0.074
   0.33333333  0.11111111  0.00000000       0.148
   0.44444444  0.11111111  0.00000000       0.148
  -0.44444444  0.11111111  0.00000000       0.074
   0.44444444  0.22222222  0.00000000       0.074
  -0.44444444  0.22222222  0.00000000       0.148
  -0.33333333  0.33333333  0.00000000       0.025
 
 position of ions in fractional coordinates (direct lattice) 
   0.16666667  0.16666667  0.40398834
   0.66666667  0.16666667  0.40398834
   0.16666667  0.66666667  0.40398834
   0.66666667  0.66666667  0.40398834
   0.83333333  0.33333333  0.50000000
   0.33333333  0.33333333  0.50000000
   0.83333333  0.83333333  0.50000000
   0.33333333  0.83333333  0.50000000
   0.00000000  0.00000000  0.59601166
   0.50000000  0.00000000  0.59601166
   0.00000000  0.50000000  0.59601166
   0.50000000  0.50000000  0.59601166
 
 position of ions in cartesian coordinates  (Angst):
   1.46618594  0.84650285 10.01428239
   4.39855776  0.84650285 10.01428239
   2.93237185  3.38601134 10.01428239
   5.86474367  3.38601134 10.01428239
   5.86474361  1.69300564 12.39427157
   2.93237179  1.69300564 12.39427157
   7.33092952  4.23251413 12.39427157
   4.39855770  4.23251413 12.39427157
   0.00000000  0.00000000 14.77426074
   2.93237182  0.00000000 14.77426074
   1.46618591  2.53950849 14.77426074
   4.39855773  2.53950849 14.77426074
 


--------------------------------------------------------------------------------------------------------


 k-point  1 :   0.0000 0.0000 0.0000  plane waves:   13497
 k-point  2 :   0.1111 0.0000 0.0000  plane waves:   13483
 k-point  3 :   0.2222-0.0000 0.0000  plane waves:   13439
 k-point  4 :   0.3333-0.0000 0.0000  plane waves:   13402
 k-point  5 :   0.4444-0.0000 0.0000  plane waves:   13372
 k-point  6 :   0.2222 0.1111 0.0000  plane waves:   13449
 k-point  7 :   0.3333 0.1111 0.0000  plane waves:   13414
 k-point  8 :   0.4444 0.1111 0.0000  plane waves:   13388
 k-point  9 :  -0.4444 0.1111 0.0000  plane waves:   13372
 k-point 10 :   0.4444 0.2222 0.0000  plane waves:   13410
 k-point 11 :  -0.4444 0.2222 0.0000  plane waves:   13394
 k-point 12 :  -0.3333 0.3333 0.0000  plane waves:   13428

 maximum and minimum number of plane-waves per node :     13497    13372

 maximum number of plane-waves:     13497
 maximum index in each direction: 
   IXMAX=   10   IYMAX=    9   IZMAX=   40
   IXMIN=  -10   IYMIN=   -9   IZMIN=  -40

 WARNING: aliasing errors must be expected set NGX to  42 to avoid them
 WARNING: aliasing errors must be expected set NGY to  38 to avoid them
 WARNING: aliasing errors must be expected set NGZ to 162 to avoid them
 aliasing errors are usually negligible using standard VASP settings
 and one can safely disregard these warnings

 serial   3D FFT for wavefunctions
 parallel 3D FFT for charge:
    minimum data exchange during FFTs selected (reduces bandwidth)


 total amount of memory used by VASP on root node    75361. kBytes
========================================================================

   base      :      30000. kBytes
   nonl-proj :      25943. kBytes
   fftplans  :       1950. kBytes
   grid      :       6739. kBytes
   one-center:        186. kBytes
   wavefun   :      10543. kBytes
 
     INWAV:  cpu time    0.0000: real time    0.0000
 Broyden mixing: mesh for mixing (old mesh)
   NGX = 19   NGY = 19   NGZ = 81
  (NGX  = 60   NGY  = 60   NGZ  =252)
  gives a total of  29241 points

 initial charge density was supplied:
 charge density of overlapping atoms calculated
 number of electron     132.0000000 magnetization 
 keeping initial charge density in first step


--------------------------------------------------------------------------------------------------------


 Maximum index for augmentation-charges          582 (set IRDMAX)


--------------------------------------------------------------------------------------------------------


 First call to EWALD:  gamma=   0.196
 Maximum number of real-space cells 5x 5x 1
 Maximum number of reciprocal cells 2x 2x 7

 FEWALD executed in parallel
    FEWALD:  cpu time    0.0017: real time    0.0017


----------------------------------------- Iteration    1(   1)  ---------------------------------------


    POTLOK:  cpu time    0.0942: real time    0.0943
    SETDIJ:  cpu time    0.0043: real time    0.0043
     EDDAV:  cpu time    3.9014: real time    3.9023
       DOS:  cpu time    0.0013: real time    0.0013
    --------------------------------------------
      LOOP:  cpu time    4.0036: real time    4.0056

 eigenvalue-minimisations  :  2304
 total energy-change (2. order) : 0.6770595E+03  (-0.4995808E+04)
 number of electron     132.0000000 magnetization 
 augmentation part      132.0000000 magnetization 

 Free energy of the ion-electron system (eV)
  ---------------------------------------------------
  alpha Z        PSCENC =       165.88112498
  Ewald energy   TEWEN  =     46346.47699606
  -Hartree energ DENC   =    -58813.98482815
  -exchange      EXHF   =         0.00000000
  -V(xc)+E(xc)   XCENC  =      -129.38405519
  PAW double counting   =     12041.54579192   -11488.19129077
  entropy T*S    EENTRO =        -0.00052149
  eigenvalues    EBANDS =       107.61510848
  atomic energy  EATOM  =     12447.10114051
  Solvation  Ediel_sol  =         0.00000000
  ---------------------------------------------------
  free energy    TOTEN  =       677.05946635 eV

  energy without entropy =      677.05998785  energy(sigma->0) =      677.05964018


--------------------------------------------------------------------------------------------------------




----------------------------------------- Iteration    1(   2)  ---------------------------------------


     EDDAV:  cpu time    3.8764: real time    3.9132
       DOS:  cpu time    0.0007: real time    0.0007
    --------------------------------------------
      LOOP:  cpu time    3.8783: real time    3.9164

 eigenvalue-minimisations  :  2592
 total energy-change (2. order) :-0.6894318E+03  (-0.6560010E+03)
 number of electron     132.0000000 magnetization 
 augmentation part      132.0000000 magnetization 

 Free energy of the ion-electron system (eV)
  ---------------------------------------------------
  alpha Z        PSCENC =       165.88112498
  Ewald energy   TEWEN  =     46346.47699606
  -Hartree energ DENC   =    -58813.98482815
  -exchange      EXHF   =         0.00000000
  -V(xc)+E(xc)   XCENC  =      -129.38405519
  PAW double counting   =     12041.54579192   -11488.19129077
  entropy T*S    EENTRO =        -0.00369198
  eigenvalues    EBANDS =      -581.81354704
  atomic energy  EATOM  =     12447.10114051
  Solvation  Ediel_sol  =         0.00000000
  ---------------------------------------------------
  free energy    TOTEN  =       -12.37235965 eV

  energy without entropy =      -12.36866768  energy(sigma->0) =      -12.37112900


--------------------------------------------------------------------------------------------------------




----------------------------------------- Iteration    1(   3)  ---------------------------------------


     EDDAV:  cpu time    4.0644: real time    4.0642
       DOS:  cpu time    0.0009: real time    0.0009
    --------------------------------------------
      LOOP:  cpu time    4.0662: real time    4.0677

 eigenvalue-minimisations  :  2856
 total energy-change (2. order) :-0.1957601E+02  (-0.1939304E+02)
 number of electron     132.0000000 magnetization 
 augmentation part      132.0000000 magnetization 

 Free energy of the ion-electron system (eV)
  ---------------------------------------------------
  alpha Z        PSCENC =       165.88112498
  Ewald energy   TEWEN  =     46346.47699606
  -Hartree energ DENC   =    -58813.98482815
  -exchange      EXHF   =         0.00000000
  -V(xc)+E(xc)   XCENC  =      -129.38405519
  PAW double counting   =     12041.54579192   -11488.19129077
  entropy T*S    EENTRO =        -0.00023770
  eigenvalues    EBANDS =      -601.39301017
  atomic energy  EATOM  =     12447.10114051
  Solvation  Ediel_sol  =         0.00000000
  ---------------------------------------------------
  free energy    TOTEN  =       -31.94836851 eV

  energy without entropy =      -31.94813080  energy(sigma->0) =      -31.94828927


--------------------------------------------------------------------------------------------------------




----------------------------------------- Iteration    1(   4)  ---------------------------------------


     EDDAV:  cpu time    4.0078: real time    4.0082
       DOS:  cpu time    0.0007: real time    0.0007
    --------------------------------------------
      LOOP:  cpu time    4.0095: real time    4.0115

 eigenvalue-minimisations  :  2808
 total energy-change (2. order) :-0.1664356E+00  (-0.1664235E+00)
 number of electron     132.0000000 magnetization 
 augmentation part      132.0000000 magnetization 

 Free energy of the ion-electron system (eV)
  ---------------------------------------------------
  alpha Z        PSCENC =       165.88112498
  Ewald energy   TEWEN  =     46346.47699606
  -Hartree energ DENC   =    -58813.98482815
  -exchange      EXHF   =         0.00000000
  -V(xc)+E(xc)   XCENC  =      -129.38405519
  PAW double counting   =     12041.54579192   -11488.19129077
  entropy T*S    EENTRO =        -0.00028325
  eigenvalues    EBANDS =      -601.55940019
  atomic energy  EATOM  =     12447.10114051
  Solvation  Ediel_sol  =         0.00000000
  ---------------------------------------------------
  free energy    TOTEN  =       -32.11480408 eV

  energy without entropy =      -32.11452083  energy(sigma->0) =      -32.11470966


--------------------------------------------------------------------------------------------------------




----------------------------------------- Iteration    1(   5)  ---------------------------------------


     EDDAV:  cpu time    4.3033: real time    4.3034
       DOS:  cpu time    0.0007: real time    0.0007
    CHARGE:  cpu time    0.1424: real time    0.1425
    MIXING:  cpu time    0.0015: real time    0.0016
    --------------------------------------------
      LOOP:  cpu time    4.4491: real time    4.4509

 eigenvalue-minimisations  :  3096
 total energy-change (2. order) :-0.2436231E-02  (-0.2436202E-02)
 number of electron     132.0000358 magnetization 
 augmentation part       61.4187979 magnetization 

 Broyden mixing:
  rms(total) = 0.13930E+01    rms(broyden)= 0.13930E+01
  rms(prec ) = 0.14352E+01
  weight for this iteration     100.00

 Free energy of the ion-electron system (eV)
  ---------------------------------------------------
  alpha Z        PSCENC =       165.88112498
  Ewald energy   TEWEN  =     46346.47699606
  -Hartree energ DENC   =    -58813.98482815
  -exchange      EXHF   =         0.00000000
  -V(xc)+E(xc)   XCENC  =      -129.38405519
  PAW double counting   =     12041.54579192   -11488.19129077
  entropy T*S    EENTRO =        -0.00028830
  eigenvalues    EBANDS =      -601.56183138
  atomic energy  EATOM  =     12447.10114051
  Solvation  Ediel_sol  =         0.00000000
  ---------------------------------------------------
  free energy    TOTEN  =       -32.11724031 eV

  energy without entropy =      -32.11695202  energy(sigma->0) =      -32.11714421


--------------------------------------------------------------------------------------------------------




----------------------------------------- Iteration    1(   6)  ---------------------------------------


    POTLOK:  cpu time    0.0294: real time    0.0294
    SETDIJ:  cpu time    0.0036: real time    0.0036
     EDDAV:  cpu time    4.5469: real time    4.5472
       DOS:  cpu time    0.0009: real time    0.0009
    CHARGE:  cpu time    0.1576: real time    0.1576
    MIXING:  cpu time    0.0020: real time    0.0020
    --------------------------------------------
      LOOP:  cpu time    4.7417: real time    4.7558

 eigenvalue-minimisations  :  2688
 total energy-change (2. order) : 0.2214579E+01  (-0.7597362E+00)
 number of electron     132.0000370 magnetization 
 augmentation part       63.0881572 magnetization 

 Broyden mixing:
  rms(total) = 0.92979E+00    rms(broyden)= 0.92977E+00
  rms(prec ) = 0.93224E+00
  weight for this iteration     100.00

 eigenvalues of (default mixing * dielectric matrix)
  average eigenvalue GAMMA=   1.1674
  1.1674

 Free energy of the ion-electron system (eV)
  ---------------------------------------------------
  alpha Z        PSCENC =       165.88112498
  Ewald energy   TEWEN  =     46346.47699606
  -Hartree energ DENC   =    -58726.34691217
  -exchange      EXHF   =         0.00000000
  -V(xc)+E(xc)   XCENC  =      -133.05809317
  PAW double counting   =     12436.29311241   -11892.56749754
  entropy T*S    EENTRO =        -0.00466994
  eigenvalues    EBANDS =      -673.67786260
  atomic energy  EATOM  =     12447.10114051
  Solvation  Ediel_sol  =         0.00000000
  ---------------------------------------------------
  free energy    TOTEN  =       -29.90266146 eV

  energy without entropy =      -29.89799152  energy(sigma->0) =      -29.90110482


--------------------------------------------------------------------------------------------------------




----------------------------------------- Iteration    1(   7)  ---------------------------------------


    POTLOK:  cpu time    0.0289: real time    0.0289
    SETDIJ:  cpu time    0.0035: real time    0.0035
     EDDAV:  cpu time    4.6705: real time    4.6717
       DOS:  cpu time    0.0008: real time    0.0008
    CHARGE:  cpu time    0.1615: real time    0.1617
    MIXING:  cpu time    0.0014: real time    0.0014
    --------------------------------------------
      LOOP:  cpu time    4.8678: real time    4.8710

 eigenvalue-minimisations  :  2760
 total energy-change (2. order) : 0.7177028E-01  (-0.1669955E-01)
 number of electron     132.0000371 magnetization 
 augmentation part       63.2205607 magnetization 

 Broyden mixing:
  rms(total) = 0.52193E+00    rms(broyden)= 0.52193E+00
  rms(prec ) = 0.52266E+00
  weight for this iteration     100.00

 eigenvalues of (default mixing * dielectric matrix)
  average eigenvalue GAMMA=   1.7914
  1.0563  2.5265

 Free energy of the ion-electron system (eV)
  ---------------------------------------------------
  alpha Z        PSCENC =       165.88112498
  Ewald energy   TEWEN  =     46346.47699606
  -Hartree energ DENC   =    -58721.09452473
  -exchange      EXHF   =         0.00000000
  -V(xc)+E(xc)   XCENC  =      -133.67103979
  PAW double counting   =     12717.34562184   -12181.00623026
  entropy T*S    EENTRO =        -0.00679394
  eigenvalues    EBANDS =      -670.85718586
  atomic energy  EATOM  =     12447.10114051
  Solvation  Ediel_sol  =         0.00000000
  ---------------------------------------------------
  free energy    TOTEN  =       -29.83089119 eV

  energy without entropy =      -29.82409725  energy(sigma->0) =      -29.82862654


--------------------------------------------------------------------------------------------------------




----------------------------------------- Iteration    1(   8)  ---------------------------------------


    POTLOK:  cpu time    0.0302: real time    0.0302
    SETDIJ:  cpu time    0.0035: real time    0.0035
     EDDAV:  cpu time    4.4518: real time    4.4615
       DOS:  cpu time    0.0010: real time    0.0010
    CHARGE:  cpu time    0.1636: real time    0.1636
    MIXING:  cpu time    0.0014: real time    0.0014
    --------------------------------------------
      LOOP:  cpu time    4.6526: real time    4.6644

 eigenvalue-minimisations  :  2616
 total energy-change (2. order) : 0.2228802E-01  (-0.1485030E-02)
 number of electron     132.0000371 magnetization 
 augmentation part       63.2303678 magnetization 

 Broyden mixing:
  rms(total) = 0.14096E-01    rms(broyden)= 0.14091E-01
  rms(prec ) = 0.15592E-01
  weight for this iteration     100.00

 eigenvalues of (default mixing * dielectric matrix)
  average eigenvalue GAMMA=   1.5046
  2.4885  0.9499  1.0754

 Free energy of the ion-electron system (eV)
  ---------------------------------------------------
  alpha Z        PSCENC =       165.88112498
  Ewald energy   TEWEN  =     46346.47699606
  -Hartree energ DENC   =    -58720.08248625
  -exchange      EXHF   =         0.00000000
  -V(xc)+E(xc)   XCENC  =      -134.09864748
  PAW double counting   =     13067.83691323   -12539.79420567
  entropy T*S    EENTRO =        -0.00653131
  eigenvalues    EBANDS =      -663.12290723
  atomic energy  EATOM  =     12447.10114051
  Solvation  Ediel_sol  =         0.00000000
  ---------------------------------------------------
  free energy    TOTEN  =       -29.80860316 eV

  energy without entropy =      -29.80207186  energy(sigma->0) =      -29.80642606


--------------------------------------------------------------------------------------------------------




----------------------------------------- Iteration    1(   9)  ---------------------------------------


    POTLOK:  cpu time    0.0279: real time    0.0279
    SETDIJ:  cpu time    0.0031: real time    0.0031
     EDDAV:  cpu time    4.8668: real time    4.8666
       DOS:  cpu time    0.0007: real time    0.0007
    CHARGE:  cpu time    0.1580: real time    0.1580
    MIXING:  cpu time    0.0013: real time    0.0013
    --------------------------------------------
      LOOP:  cpu time    5.0595: real time    5.0612

 eigenvalue-minimisations  :  2904
 total energy-change (2. order) : 0.2218401E-03  (-0.8421993E-04)
 number of electron     132.0000371 magnetization 
 augmentation part       63.2325742 magnetization 

 Broyden mixing:
  rms(total) = 0.74874E-02    rms(broyden)= 0.74868E-02
  rms(prec ) = 0.92493E-02
  weight for this iteration     100.00

 eigenvalues of (default mixing * dielectric matrix)
  average eigenvalue GAMMA=   1.5874
  2.5139  0.9581  1.0442  1.8332

 Free energy of the ion-electron system (eV)
  ---------------------------------------------------
  alpha Z        PSCENC =       165.88112498
  Ewald energy   TEWEN  =     46346.47699606
  -Hartree energ DENC   =    -58721.16394065
  -exchange      EXHF   =         0.00000000
  -V(xc)+E(xc)   XCENC  =      -134.09001871
  PAW double counting   =     13066.88906723   -12538.68223458
  entropy T*S    EENTRO =        -0.00642008
  eigenvalues    EBANDS =      -662.21409609
  atomic energy  EATOM  =     12447.10114051
  Solvation  Ediel_sol  =         0.00000000
  ---------------------------------------------------
  free energy    TOTEN  =       -29.80838132 eV

  energy without entropy =      -29.80196125  energy(sigma->0) =      -29.80624130


--------------------------------------------------------------------------------------------------------




----------------------------------------- Iteration    1(  10)  ---------------------------------------


    POTLOK:  cpu time    0.0284: real time    0.0284
    SETDIJ:  cpu time    0.0033: real time    0.0033
     EDDAV:  cpu time    4.2785: real time    4.2783
       DOS:  cpu time    0.0011: real time    0.0011
    CHARGE:  cpu time    0.1662: real time    0.1661
    MIXING:  cpu time    0.0016: real time    0.0016
    --------------------------------------------
      LOOP:  cpu time    4.4802: real time    4.4819

 eigenvalue-minimisations  :  2448
 total energy-change (2. order) : 0.2267843E-03  (-0.2517672E-04)
 number of electron     132.0000371 magnetization 
 augmentation part       63.2329041 magnetization 

 Broyden mixing:
  rms(total) = 0.43344E-02    rms(broyden)= 0.43343E-02
  rms(prec ) = 0.58396E-02
  weight for this iteration     100.00

 eigenvalues of (default mixing * dielectric matrix)
  average eigenvalue GAMMA=   1.6289
  2.7892  2.4316  1.0692  1.0692  0.7851

 Free energy of the ion-electron system (eV)
  ---------------------------------------------------
  alpha Z        PSCENC =       165.88112498
  Ewald energy   TEWEN  =     46346.47699606
  -Hartree energ DENC   =    -58723.58278690
  -exchange      EXHF   =         0.00000000
  -V(xc)+E(xc)   XCENC  =      -134.08393936
  PAW double counting   =     13072.30978214   -12544.05728442
  entropy T*S    EENTRO =        -0.00647158
  eigenvalues    EBANDS =      -659.84671596
  atomic energy  EATOM  =     12447.10114051
  Solvation  Ediel_sol  =         0.00000000
  ---------------------------------------------------
  free energy    TOTEN  =       -29.80815454 eV

  energy without entropy =      -29.80168296  energy(sigma->0) =      -29.80599735


--------------------------------------------------------------------------------------------------------




----------------------------------------- Iteration    1(  11)  ---------------------------------------


    POTLOK:  cpu time    0.0294: real time    0.0294
    SETDIJ:  cpu time    0.0033: real time    0.0033
     EDDAV:  cpu time    3.7609: real time    3.7648
       DOS:  cpu time    0.0007: real time    0.0007
    CHARGE:  cpu time    0.1596: real time    0.1599
    MIXING:  cpu time    0.0016: real time    0.0016
    --------------------------------------------
      LOOP:  cpu time    3.9570: real time    3.9791

 eigenvalue-minimisations  :  2064
 total energy-change (2. order) : 0.2059796E-03  (-0.1491912E-04)
 number of electron     132.0000371 magnetization 
 augmentation part       63.2324972 magnetization 

 Broyden mixing:
  rms(total) = 0.17861E-02    rms(broyden)= 0.17860E-02
  rms(prec ) = 0.28916E-02
  weight for this iteration     100.00

 eigenvalues of (default mixing * dielectric matrix)
  average eigenvalue GAMMA=   1.5505
  2.7800  2.4969  1.1209  1.0455  1.0455  0.8141

 Free energy of the ion-electron system (eV)
  ---------------------------------------------------
  alpha Z        PSCENC =       165.88112498
  Ewald energy   TEWEN  =     46346.47699606
  -Hartree energ DENC   =    -58726.72211484
  -exchange      EXHF   =         0.00000000
  -V(xc)+E(xc)   XCENC  =      -134.07396238
  PAW double counting   =     13075.50682673   -12547.18812941
  entropy T*S    EENTRO =        -0.00646507
  eigenvalues    EBANDS =      -656.78336514
  atomic energy  EATOM  =     12447.10114051
  Solvation  Ediel_sol  =         0.00000000
  ---------------------------------------------------
  free energy    TOTEN  =       -29.80794856 eV

  energy without entropy =      -29.80148349  energy(sigma->0) =      -29.80579354


--------------------------------------------------------------------------------------------------------




----------------------------------------- Iteration    1(  12)  ---------------------------------------


    POTLOK:  cpu time    0.0305: real time    0.0307
    SETDIJ:  cpu time    0.0033: real time    0.0033
     EDDAV:  cpu time    3.6850: real time    3.6953
       DOS:  cpu time    0.0008: real time    0.0008
    --------------------------------------------
      LOOP:  cpu time    3.7207: real time    3.7334

 eigenvalue-minimisations  :  2016
 total energy-change (2. order) :-0.6031629E-04  (-0.2461525E-05)
 number of electron     132.0000371 magnetization 
 augmentation part       63.2324972 magnetization 

 Free energy of the ion-electron system (eV)
  ---------------------------------------------------
  alpha Z        PSCENC =       165.88112498
  Ewald energy   TEWEN  =     46346.47699606
  -Hartree energ DENC   =    -58728.04779015
  -exchange      EXHF   =         0.00000000
  -V(xc)+E(xc)   XCENC  =      -134.06966355
  PAW double counting   =     13074.08092559   -12545.74404774
  entropy T*S    EENTRO =        -0.00643057
  eigenvalues    EBANDS =      -655.48026401
  atomic energy  EATOM  =     12447.10114051
  Solvation  Ediel_sol  =         0.00000000
  ---------------------------------------------------
  free energy    TOTEN  =       -29.80800888 eV

  energy without entropy =      -29.80157831  energy(sigma->0) =      -29.80586535


--------------------------------------------------------------------------------------------------------




 average (electrostatic) potential at core
  the test charge radii are     1.1249
  (the norm of the test charge is              1.0000)
       1 -79.8186       2 -79.8186       3 -79.8186       4 -79.8186       5 -79.9989
       6 -79.9989       7 -79.9989       8 -79.9989       9 -79.8186      10 -79.8186
      11 -79.8186      12 -79.8186
 
 
 
 E-fermi :  -0.9099     XC(G=0):  -4.2238     alpha+bet : -3.7304


 k-point     1 :       0.0000    0.0000    0.0000
  band No.  band energies     occupation 
      1      -7.8001      2.00000
      2      -6.8742      2.00000
      3      -6.8453      2.00000
      4      -6.8453      2.00000
      5      -6.8453      2.00000
      6      -6.7642      2.00000
      7      -6.7080      2.00000
      8      -6.7080      2.00000
      9      -6.7080      2.00000
     10      -6.6041      2.00000
     11      -6.6041      2.00000
     12      -6.6041      2.00000
     13      -6.4143      2.00000
     14      -6.4143      2.00000
     15      -6.4143      2.00000
     16      -5.7558      2.00000
     17      -5.7558      2.00000
     18      -5.7558      2.00000
     19      -5.6002      2.00000
     20      -5.6002      2.00000
     21      -5.6002      2.00000
     22      -5.5222      2.00000
     23      -5.4877      2.00000
     24      -5.4877      2.00000
     25      -5.3456      2.00000
     26      -5.3456      2.00000
     27      -5.2917      2.00000
     28      -5.2917      2.00000
     29      -5.2917      2.00000
     30      -5.2203      2.00000
     31      -5.2203      2.00000
     32      -4.8559      2.00000
     33      -4.7251      2.00000
     34      -4.7251      2.00000
     35      -4.7251      2.00000
     36      -4.5612      2.00000
     37      -4.5612      2.00000
     38      -4.5608      2.00000
     39      -4.5608      2.00000
     40      -4.5608      2.00000
     41      -4.2993      2.00000
     42      -4.2993      2.00000
     43      -4.2993      2.00000
     44      -4.2839      2.00000
     45      -4.2839      2.00000
     46      -4.0076      2.00000
     47      -4.0076      2.00000
     48      -4.0076      2.00000
     49      -3.9467      2.00000
     50      -3.9467      2.00000
     51      -3.9217      2.00000
     52      -3.9217      2.00000
     53      -3.9217      2.00000
     54      -3.8256      2.00000
     55      -3.8256      2.00000
     56      -3.8256      2.00000
     57      -3.6702      2.00000
     58      -3.6702      2.00000
     59      -3.6702      2.00000
     60      -3.6428      2.00000
     61      -3.6428      2.00000
     62      -3.6428      2.00000
     63      -2.2300      2.00000
     64      -0.5412     -0.00000
     65      -0.5412     -0.00000
     66      -0.5412     -0.00000
     67      -0.4431     -0.00000
     68       0.3168     -0.00000
     69       0.3168     -0.00000
     70       0.3168     -0.00000
     71       0.7094     -0.00000
     72       0.7094     -0.00000
     73       0.7094     -0.00000
     74       3.0008      0.00000
     75       3.0094      0.00000
     76       3.0094      0.00000
     77       3.0094      0.00000
     78       3.3037      0.00000
     79       3.8238      0.00000
     80       3.8238      0.00000
     81       3.8238      0.00000
     82       3.8669      0.00000
     83       4.6053      0.00000
     84       4.6053      0.00000
     85       4.6053      0.00000
     86       4.8227      0.00000
     87       5.0760      0.00000
     88       6.9016      0.00000
     89       6.9473      0.00000
     90       7.0245      0.00000
     91       7.0245      0.00000
     92       7.0245      0.00000
     93       7.4388      0.00000
     94       7.4388      0.00000
     95       7.4388      0.00000
     96       8.4389      0.00000

 k-point     2 :       0.1111    0.0000    0.0000
  band No.  band energies     occupation 
      1      -7.7190      2.00000
      2      -6.8209      2.00000
      3      -6.8204      2.00000
      4      -6.7953      2.00000
      5      -6.7953      2.00000
      6      -6.6926      2.00000
      7      -6.6808      2.00000
      8      -6.6716      2.00000
      9      -6.6716      2.00000
     10      -6.5823      2.00000
     11      -6.5745      2.00000
     12      -6.5745      2.00000
     13      -6.3873      2.00000
     14      -6.3606      2.00000
     15      -6.3606      2.00000
     16      -5.7535      2.00000
     17      -5.7535      2.00000
     18      -5.7362      2.00000
     19      -5.5800      2.00000
     20      -5.5782      2.00000
     21      -5.5782      2.00000
     22      -5.5216      2.00000
     23      -5.5175      2.00000
     24      -5.4487      2.00000
     25      -5.3919      2.00000
     26      -5.3151      2.00000
     27      -5.3111      2.00000
     28      -5.3111      2.00000
     29      -5.2799      2.00000
     30      -5.2326      2.00000
     31      -5.1798      2.00000
     32      -4.9226      2.00000
     33      -4.7639      2.00000
     34      -4.7592      2.00000
     35      -4.7592      2.00000
     36      -4.5900      2.00000
     37      -4.5900      2.00000
     38      -4.5765      2.00000
     39      -4.5581      2.00000
     40      -4.5351      2.00000
     41      -4.3309      2.00000
     42      -4.3293      2.00000
     43      -4.3276      2.00000
     44      -4.3276      2.00000
     45      -4.2834      2.00000
     46      -4.0377      2.00000
     47      -4.0377      2.00000
     48      -4.0205      2.00000
     49      -3.9703      2.00000
     50      -3.9647      2.00000
     51      -3.9446      2.00000
     52      -3.9442      2.00000
     53      -3.9442      2.00000
     54      -3.8936      2.00000
     55      -3.8936      2.00000
     56      -3.8681      2.00000
     57      -3.7380      2.00000
     58      -3.7380      2.00000
     59      -3.7179      2.00000
     60      -3.7121      2.00000
     61      -3.7121      2.00000
     62      -3.6939      2.00000
     63      -2.1268      2.00000
     64      -1.4232      2.00000
     65      -0.7144     -0.01846
     66      -0.7144     -0.01846
     67      -0.2836     -0.00000
     68      -0.2549     -0.00000
     69       0.2831     -0.00000
     70       0.2831     -0.00000
     71       1.0819     -0.00000
     72       1.0819     -0.00000
     73       1.3628     -0.00000
     74       3.0669      0.00000
     75       3.1695      0.00000
     76       3.1695      0.00000
     77       3.1943      0.00000
     78       3.3782      0.00000
     79       3.7290      0.00000
     80       3.7290      0.00000
     81       3.8849      0.00000
     82       3.9340      0.00000
     83       4.8962      0.00000
     84       4.8984      0.00000
     85       4.8984      0.00000
     86       5.0916      0.00000
     87       5.1387      0.00000
     88       6.6535      0.00000
     89       6.8209      0.00000
     90       6.8209      0.00000
     91       6.9690      0.00000
     92       7.0180      0.00000
     93       7.3415      0.00000
     94       7.7517      0.00000
     95       7.7517      0.00000
     96       7.9894      0.00000

 k-point     3 :       0.2222   -0.0000    0.0000
  band No.  band energies     occupation 
      1      -7.4860      2.00000
      2      -6.7520      2.00000
      3      -6.6758      2.00000
      4      -6.6522      2.00000
      5      -6.6522      2.00000
      6      -6.6081      2.00000
      7      -6.5770      2.00000
      8      -6.5769      2.00000
      9      -6.5150      2.00000
     10      -6.4953      2.00000
     11      -6.4834      2.00000
     12      -6.4834      2.00000
     13      -6.3100      2.00000
     14      -6.2062      2.00000
     15      -6.2062      2.00000
     16      -5.7595      2.00000
     17      -5.7595      2.00000
     18      -5.6802      2.00000
     19      -5.5998      2.00000
     20      -5.5478      2.00000
     21      -5.5242      2.00000
     22      -5.5104      2.00000
     23      -5.5104      2.00000
     24      -5.4905      2.00000
     25      -5.3578      2.00000
     26      -5.3578      2.00000
     27      -5.3371      2.00000
     28      -5.2471      2.00000
     29      -5.2463      2.00000
     30      -5.2316      2.00000
     31      -5.0616      2.00000
     32      -5.0510      2.00000
     33      -4.8816      2.00000
     34      -4.8798      2.00000
     35      -4.8798      2.00000
     36      -4.6583      2.00000
     37      -4.6583      2.00000
     38      -4.6074      2.00000
     39      -4.5761      2.00000
     40      -4.5552      2.00000
     41      -4.4398      2.00000
     42      -4.4222      2.00000
     43      -4.4222      2.00000
     44      -4.4104      2.00000
     45      -4.2860      2.00000
     46      -4.1636      2.00000
     47      -4.1636      2.00000
     48      -4.1254      2.00000
     49      -4.1254      2.00000
     50      -4.1173      2.00000
     51      -4.0903      2.00000
     52      -4.0181      2.00000
     53      -4.0181      2.00000
     54      -3.9671      2.00000
     55      -3.9391      2.00000
     56      -3.9214      2.00000
     57      -3.8987      2.00000
     58      -3.8987      2.00000
     59      -3.8626      2.00000
     60      -3.8090      2.00000
     61      -3.7655      2.00000
     62      -3.7655      2.00000
     63      -2.6184      2.00000
     64      -1.8473      2.00000
     65      -1.2739      2.00000
     66      -0.9411      1.49995
     67      -0.9410      1.49991
     68       0.1527     -0.00000
     69       0.2357     -0.00000
     70       0.2357     -0.00000
     71       1.1570     -0.00000
     72       1.7814     -0.00000
     73       1.7814     -0.00000
     74       3.2649      0.00000
     75       3.3330      0.00000
     76       3.3330      0.00000
     77       3.6018      0.00000
     78       3.8899      0.00000
     79       4.0529      0.00000
     80       4.0529      0.00000
     81       4.1355      0.00000
     82       4.3891      0.00000
     83       5.1165      0.00000
     84       5.3285      0.00000
     85       5.3490      0.00000
     86       5.3490      0.00000
     87       5.5141      0.00000
     88       6.3846      0.00000
     89       6.8258      0.00000
     90       6.8258      0.00000
     91       6.9004      0.00000
     92       7.1716      0.00000
     93       7.2299      0.00000
     94       7.2562      0.00000
     95       7.5466      0.00000
     96       7.5466      0.00000

 k-point     4 :       0.3333   -0.0000    0.0000
  band No.  band energies     occupation 
      1      -7.1428      2.00000
      2      -6.6642      2.00000
      3      -6.5228      2.00000
      4      -6.4974      2.00000
      5      -6.4819      2.00000
      6      -6.4819      2.00000
      7      -6.4106      2.00000
      8      -6.4106      2.00000
      9      -6.3900      2.00000
     10      -6.3512      2.00000
     11      -6.3512      2.00000
     12      -6.2409      2.00000
     13      -6.1934      2.00000
     14      -5.9841      2.00000
     15      -5.9841      2.00000
     16      -5.7782      2.00000
     17      -5.7782      2.00000
     18      -5.7487      2.00000
     19      -5.6658      2.00000
     20      -5.5980      2.00000
     21      -5.4848      2.00000
     22      -5.4623      2.00000
     23      -5.4323      2.00000
     24      -5.4323      2.00000
     25      -5.3920      2.00000
     26      -5.3920      2.00000
     27      -5.2068      2.00000
     28      -5.1974      2.00000
     29      -5.1887      2.00000
     30      -5.1629      2.00000
     31      -5.1087      2.00000
     32      -5.0846      2.00000
     33      -5.0846      2.00000
     34      -5.0598      2.00000
     35      -4.8752      2.00000
     36      -4.7270      2.00000
     37      -4.7270      2.00000
     38      -4.7180      2.00000
     39      -4.6112      2.00000
     40      -4.5802      2.00000
     41      -4.5802      2.00000
     42      -4.5779      2.00000
     43      -4.5541      2.00000
     44      -4.5292      2.00000
     45      -4.5292      2.00000
     46      -4.5149      2.00000
     47      -4.3672      2.00000
     48      -4.3225      2.00000
     49      -4.3225      2.00000
     50      -4.2943      2.00000
     51      -4.2460      2.00000
     52      -4.1672      2.00000
     53      -4.1672      2.00000
     54      -4.1215      2.00000
     55      -4.0721      2.00000
     56      -3.9326      2.00000
     57      -3.9326      2.00000
     58      -3.9315      2.00000
     59      -3.8883      2.00000
     60      -3.7730      2.00000
     61      -3.7730      2.00000
     62      -3.7324      2.00000
     63      -3.6644      2.00000
     64      -2.2126      2.00000
     65      -1.4411      2.00000
     66      -1.0650      2.05068
     67      -1.0650      2.05068
     68       0.1999     -0.00000
     69       0.1999     -0.00000
     70       0.3941     -0.00000
     71       0.7856     -0.00000
     72       2.2872      0.00000
     73       2.2872      0.00000
     74       3.3120      0.00000
     75       3.5945      0.00000
     76       3.7255      0.00000
     77       3.7255      0.00000
     78       3.9738      0.00000
     79       4.4728      0.00000
     80       4.8040      0.00000
     81       4.8040      0.00000
     82       5.3334      0.00000
     83       5.4830      0.00000
     84       5.6180      0.00000
     85       5.6180      0.00000
     86       5.6491      0.00000
     87       5.7507      0.00000
     88       6.0324      0.00000
     89       6.3132      0.00000
     90       7.1274      0.00000
     91       7.1274      0.00000
     92       7.2135      0.00000
     93       7.2887      0.00000
     94       7.2887      0.00000
     95       7.4186      0.00000
     96       7.5104      0.00000

 k-point     5 :       0.4444   -0.0000    0.0000
  band No.  band energies     occupation 
      1      -6.8016      2.00000
      2      -6.6357      2.00000
      3      -6.4493      2.00000
      4      -6.4096      2.00000
      5      -6.3782      2.00000
      6      -6.3782      2.00000
      7      -6.2692      2.00000
      8      -6.2692      2.00000
      9      -6.2109      2.00000
     10      -6.1706      2.00000
     11      -6.1706      2.00000
     12      -6.0759      2.00000
     13      -6.0604      2.00000
     14      -5.9405      2.00000
     15      -5.8843      2.00000
     16      -5.8843      2.00000
     17      -5.7197      2.00000
     18      -5.6629      2.00000
     19      -5.6629      2.00000
     20      -5.5758      2.00000
     21      -5.5758      2.00000
     22      -5.5650      2.00000
     23      -5.4884      2.00000
     24      -5.4350      2.00000
     25      -5.2493      2.00000
     26      -5.2493      2.00000
     27      -5.2174      2.00000
     28      -5.2174      2.00000
     29      -5.1482      2.00000
     30      -5.1468      2.00000
     31      -5.1371      2.00000
     32      -5.1252      2.00000
     33      -5.0397      2.00000
     34      -4.9100      2.00000
     35      -4.9030      2.00000
     36      -4.9030      2.00000
     37      -4.8397      2.00000
     38      -4.8397      2.00000
     39      -4.8164      2.00000
     40      -4.7367      2.00000
     41      -4.6975      2.00000
     42      -4.6628      2.00000
     43      -4.6628      2.00000
     44      -4.6377      2.00000
     45      -4.6061      2.00000
     46      -4.5814      2.00000
     47      -4.5320      2.00000
     48      -4.5033      2.00000
     49      -4.5033      2.00000
     50      -4.4441      2.00000
     51      -4.3995      2.00000
     52      -4.3653      2.00000
     53      -4.2967      2.00000
     54      -4.2425      2.00000
     55      -4.2171      2.00000
     56      -4.2171      2.00000
     57      -3.9364      2.00000
     58      -3.9364      2.00000
     59      -3.9233      2.00000
     60      -3.9129      2.00000
     61      -3.7700      2.00000
     62      -3.7700      2.00000
     63      -3.4150      2.00000
     64      -2.9301      2.00000
     65      -1.1118      2.01502
     66      -1.1118      2.01502
     67      -0.9333      1.38493
     68      -0.3234     -0.00000
     69       0.1822     -0.00000
     70       0.1822     -0.00000
     71       1.5516     -0.00000
     72       2.4083      0.00000
     73       2.4114      0.00000
     74       2.4114      0.00000
     75       4.0558      0.00000
     76       4.4930      0.00000
     77       4.6480      0.00000
     78       4.6549      0.00000
     79       4.6549      0.00000
     80       4.9480      0.00000
     81       5.1544      0.00000
     82       5.2248      0.00000
     83       5.2248      0.00000
     84       5.5620      0.00000
     85       5.8187      0.00000
     86       5.8187      0.00000
     87       5.9935      0.00000
     88       6.1055      0.00000
     89       6.4249      0.00000
     90       6.4249      0.00000
     91       6.6362      0.00000
     92       6.6981      0.00000
     93       7.1651      0.00000
     94       7.1651      0.00000
     95       7.5701      0.00000
     96       7.5701      0.00000

 k-point     6 :       0.2222    0.1111    0.0000
  band No.  band energies     occupation 
      1      -7.5615      2.00000
      2      -6.7462      2.00000
      3      -6.7462      2.00000
      4      -6.7205      2.00000
      5      -6.6787      2.00000
      6      -6.6178      2.00000
      7      -6.6178      2.00000
      8      -6.6036      2.00000
      9      -6.5573      2.00000
     10      -6.5342      2.00000
     11      -6.5342      2.00000
     12      -6.4995      2.00000
     13      -6.3076      2.00000
     14      -6.3076      2.00000
     15      -6.2329      2.00000
     16      -5.7707      2.00000
     17      -5.7198      2.00000
     18      -5.7198      2.00000
     19      -5.5760      2.00000
     20      -5.5380      2.00000
     21      -5.5380      2.00000
     22      -5.5339      2.00000
     23      -5.5250      2.00000
     24      -5.4762      2.00000
     25      -5.3702      2.00000
     26      -5.3665      2.00000
     27      -5.2887      2.00000
     28      -5.2887      2.00000
     29      -5.2683      2.00000
     30      -5.2403      2.00000
     31      -5.0996      2.00000
     32      -5.0132      2.00000
     33      -4.8433      2.00000
     34      -4.8433      2.00000
     35      -4.8302      2.00000
     36      -4.6667      2.00000
     37      -4.6163      2.00000
     38      -4.5822      2.00000
     39      -4.5822      2.00000
     40      -4.5365      2.00000
     41      -4.3917      2.00000
     42      -4.3917      2.00000
     43      -4.3885      2.00000
     44      -4.3821      2.00000
     45      -4.3086      2.00000
     46      -4.1293      2.00000
     47      -4.0980      2.00000
     48      -4.0980      2.00000
     49      -4.0412      2.00000
     50      -4.0412      2.00000
     51      -4.0299      2.00000
     52      -3.9750      2.00000
     53      -3.9750      2.00000
     54      -3.9583      2.00000
     55      -3.9496      2.00000
     56      -3.9372      2.00000
     57      -3.8936      2.00000
     58      -3.8294      2.00000
     59      -3.8294      2.00000
     60      -3.7782      2.00000
     61      -3.7730      2.00000
     62      -3.7730      2.00000
     63      -1.9363      2.00000
     64      -1.8864      2.00000
     65      -1.8864      2.00000
     66      -0.6299     -0.00055
     67      -0.6298     -0.00055
     68      -0.0048     -0.00000
     69       0.0134     -0.00000
     70       0.6967     -0.00000
     71       1.1844     -0.00000
     72       1.5275     -0.00000
     73       1.5275     -0.00000
     74       3.1258      0.00000
     75       3.1989      0.00000
     76       3.4559      0.00000
     77       3.4559      0.00000
     78       3.5273      0.00000
     79       4.0347      0.00000
     80       4.0683      0.00000
     81       4.3706      0.00000
     82       4.3706      0.00000
     83       4.8213      0.00000
     84       5.0431      0.00000
     85       5.1899      0.00000
     86       5.1899      0.00000
     87       5.2650      0.00000
     88       6.8574      0.00000
     89       6.8574      0.00000
     90       7.0509      0.00000
     91       7.0509      0.00000
     92       7.1040      0.00000
     93       7.1592      0.00000
     94       7.2875      0.00000
     95       7.5654      0.00000
     96       7.5716      0.00000

 k-point     7 :       0.3333    0.1111    0.0000
  band No.  band energies     occupation 
      1      -7.2688      2.00000
      2      -6.6609      2.00000
      3      -6.5780      2.00000
      4      -6.5486      2.00000
      5      -6.5304      2.00000
      6      -6.5297      2.00000
      7      -6.4995      2.00000
      8      -6.4545      2.00000
      9      -6.4475      2.00000
     10      -6.4384      2.00000
     11      -6.3688      2.00000
     12      -6.3250      2.00000
     13      -6.2085      2.00000
     14      -6.1292      2.00000
     15      -6.0319      2.00000
     16      -5.8012      2.00000
     17      -5.7236      2.00000
     18      -5.6877      2.00000
     19      -5.6561      2.00000
     20      -5.6132      2.00000
     21      -5.5279      2.00000
     22      -5.4735      2.00000
     23      -5.4528      2.00000
     24      -5.4464      2.00000
     25      -5.4186      2.00000
     26      -5.3388      2.00000
     27      -5.2785      2.00000
     28      -5.2525      2.00000
     29      -5.2193      2.00000
     30      -5.1575      2.00000
     31      -5.1437      2.00000
     32      -5.0202      2.00000
     33      -5.0046      2.00000
     34      -4.9872      2.00000
     35      -4.9250      2.00000
     36      -4.7507      2.00000
     37      -4.6597      2.00000
     38      -4.6410      2.00000
     39      -4.6312      2.00000
     40      -4.5796      2.00000
     41      -4.5247      2.00000
     42      -4.5066      2.00000
     43      -4.4935      2.00000
     44      -4.4534      2.00000
     45      -4.3868      2.00000
     46      -4.3790      2.00000
     47      -4.3277      2.00000
     48      -4.3211      2.00000
     49      -4.2642      2.00000
     50      -4.2039      2.00000
     51      -4.1594      2.00000
     52      -4.1270      2.00000
     53      -4.1226      2.00000
     54      -4.0549      2.00000
     55      -3.9899      2.00000
     56      -3.9661      2.00000
     57      -3.9556      2.00000
     58      -3.9123      2.00000
     59      -3.8717      2.00000
     60      -3.8158      2.00000
     61      -3.8075      2.00000
     62      -3.7983      2.00000
     63      -2.9788      2.00000
     64      -2.0869      2.00000
     65      -1.6470      2.00000
     66      -1.5960      2.00000
     67      -0.8201     -0.02215
     68       0.1330     -0.00000
     69       0.5441     -0.00000
     70       0.8636     -0.00000
     71       1.1726     -0.00000
     72       1.5112     -0.00000
     73       1.8032     -0.00000
     74       3.4628      0.00000
     75       3.4950      0.00000
     76       3.8077      0.00000
     77       3.8252      0.00000
     78       4.0837      0.00000
     79       4.0937      0.00000
     80       4.3377      0.00000
     81       4.5990      0.00000
     82       4.9618      0.00000
     83       5.3366      0.00000
     84       5.3668      0.00000
     85       5.5204      0.00000
     86       5.7103      0.00000
     87       5.7889      0.00000
     88       6.3856      0.00000
     89       6.5684      0.00000
     90       6.5787      0.00000
     91       6.9023      0.00000
     92       6.9538      0.00000
     93       7.1220      0.00000
     94       7.3436      0.00000
     95       7.3752      0.00000
     96       7.4415      0.00000

 k-point     8 :       0.4444    0.1111    0.0000
  band No.  band energies     occupation 
      1      -6.9093      2.00000
      2      -6.5832      2.00000
      3      -6.4489      2.00000
      4      -6.4130      2.00000
      5      -6.3929      2.00000
      6      -6.3914      2.00000
      7      -6.3395      2.00000
      8      -6.3096      2.00000
      9      -6.2964      2.00000
     10      -6.2529      2.00000
     11      -6.2104      2.00000
     12      -6.0950      2.00000
     13      -6.0784      2.00000
     14      -5.9385      2.00000
     15      -5.8994      2.00000
     16      -5.8606      2.00000
     17      -5.7322      2.00000
     18      -5.7289      2.00000
     19      -5.6972      2.00000
     20      -5.5823      2.00000
     21      -5.5066      2.00000
     22      -5.4957      2.00000
     23      -5.4788      2.00000
     24      -5.4720      2.00000
     25      -5.3103      2.00000
     26      -5.3100      2.00000
     27      -5.2608      2.00000
     28      -5.2248      2.00000
     29      -5.2213      2.00000
     30      -5.2021      2.00000
     31      -5.1633      2.00000
     32      -5.1338      2.00000
     33      -5.1022      2.00000
     34      -4.9906      2.00000
     35      -4.8505      2.00000
     36      -4.8297      2.00000
     37      -4.7974      2.00000
     38      -4.7275      2.00000
     39      -4.7168      2.00000
     40      -4.7034      2.00000
     41      -4.6998      2.00000
     42      -4.6649      2.00000
     43      -4.6157      2.00000
     44      -4.6027      2.00000
     45      -4.5951      2.00000
     46      -4.5562      2.00000
     47      -4.5006      2.00000
     48      -4.4938      2.00000
     49      -4.4252      2.00000
     50      -4.3947      2.00000
     51      -4.3100      2.00000
     52      -4.2849      2.00000
     53      -4.1963      2.00000
     54      -4.1642      2.00000
     55      -4.1555      2.00000
     56      -3.9938      2.00000
     57      -3.9531      2.00000
     58      -3.9280      2.00000
     59      -3.9262      2.00000
     60      -3.8192      2.00000
     61      -3.8087      2.00000
     62      -3.7936      2.00000
     63      -3.5383      2.00000
     64      -2.5030      2.00000
     65      -2.1441      2.00000
     66      -1.1414      2.00508
     67      -0.8954      0.75680
     68       0.0710     -0.00000
     69       0.0901     -0.00000
     70       1.2387     -0.00000
     71       1.3601     -0.00000
     72       1.4585     -0.00000
     73       2.8024      0.00000
     74       2.9300      0.00000
     75       3.8335      0.00000
     76       3.8585      0.00000
     77       4.2711      0.00000
     78       4.3369      0.00000
     79       4.5783      0.00000
     80       4.7442      0.00000
     81       5.0418      0.00000
     82       5.2743      0.00000
     83       5.5878      0.00000
     84       5.6419      0.00000
     85       5.7758      0.00000
     86       5.9094      0.00000
     87       5.9709      0.00000
     88       6.0416      0.00000
     89       6.2182      0.00000
     90       6.7356      0.00000
     91       6.7620      0.00000
     92       6.9577      0.00000
     93       7.0780      0.00000
     94       7.1407      0.00000
     95       7.2667      0.00000
     96       7.2789      0.00000

 k-point     9 :      -0.4444    0.1111    0.0000
  band No.  band energies     occupation 
      1      -6.6380      2.00000
      2      -6.6380      2.00000
      3      -6.3782      2.00000
      4      -6.3782      2.00000
      5      -6.3414      2.00000
      6      -6.3303      2.00000
      7      -6.2800      2.00000
      8      -6.2304      2.00000
      9      -6.1382      2.00000
     10      -6.1057      2.00000
     11      -6.1057      2.00000
     12      -6.0454      2.00000
     13      -5.9577      2.00000
     14      -5.9577      2.00000
     15      -5.9551      2.00000
     16      -5.8712      2.00000
     17      -5.7183      2.00000
     18      -5.7183      2.00000
     19      -5.6393      2.00000
     20      -5.6169      2.00000
     21      -5.6123      2.00000
     22      -5.5421      2.00000
     23      -5.4622      2.00000
     24      -5.4622      2.00000
     25      -5.2799      2.00000
     26      -5.2179      2.00000
     27      -5.2028      2.00000
     28      -5.1984      2.00000
     29      -5.1809      2.00000
     30      -5.1809      2.00000
     31      -5.1515      2.00000
     32      -5.1515      2.00000
     33      -5.0217      2.00000
     34      -5.0111      2.00000
     35      -5.0111      2.00000
     36      -4.9755      2.00000
     37      -4.9486      2.00000
     38      -4.9027      2.00000
     39      -4.8156      2.00000
     40      -4.8156      2.00000
     41      -4.7531      2.00000
     42      -4.7531      2.00000
     43      -4.6724      2.00000
     44      -4.6078      2.00000
     45      -4.5698      2.00000
     46      -4.5698      2.00000
     47      -4.5582      2.00000
     48      -4.5147      2.00000
     49      -4.4398      2.00000
     50      -4.4398      2.00000
     51      -4.3620      2.00000
     52      -4.3620      2.00000
     53      -4.2263      2.00000
     54      -4.2209      2.00000
     55      -4.2209      2.00000
     56      -4.1942      2.00000
     57      -3.9926      2.00000
     58      -3.9434      2.00000
     59      -3.9434      2.00000
     60      -3.9304      2.00000
     61      -3.8185      2.00000
     62      -3.8067      2.00000
     63      -3.1270      2.00000
     64      -3.1270      2.00000
     65      -2.1539      2.00000
     66      -0.9140      1.06963
     67      -0.5818     -0.00004
     68      -0.5818     -0.00004
     69       0.0445     -0.00000
     70       1.3850     -0.00000
     71       1.4366     -0.00000
     72       2.0466      0.00000
     73       2.0467      0.00000
     74       3.4426      0.00000
     75       4.3248      0.00000
     76       4.3362      0.00000
     77       4.3528      0.00000
     78       4.3863      0.00000
     79       4.3863      0.00000
     80       4.8625      0.00000
     81       4.8625      0.00000
     82       5.2897      0.00000
     83       5.2897      0.00000
     84       5.5659      0.00000
     85       5.8549      0.00000
     86       6.1393      0.00000
     87       6.3492      0.00000
     88       6.3562      0.00000
     89       6.3562      0.00000
     90       6.4363      0.00000
     91       6.4363      0.00000
     92       6.4838      0.00000
     93       6.6414      0.00000
     94       6.8606      0.00000
     95       7.1551      0.00000
     96       7.8851      0.00000

 k-point    10 :       0.4444    0.2222    0.0000
  band No.  band energies     occupation 
      1      -6.9466      2.00000
      2      -6.4794      2.00000
      3      -6.4794      2.00000
      4      -6.4259      2.00000
      5      -6.3976      2.00000
      6      -6.3976      2.00000
      7      -6.3701      2.00000
      8      -6.3528      2.00000
      9      -6.3528      2.00000
     10      -6.2422      2.00000
     11      -6.2255      2.00000
     12      -6.1152      2.00000
     13      -6.0110      2.00000
     14      -6.0110      2.00000
     15      -5.9664      2.00000
     16      -5.8290      2.00000
     17      -5.7112      2.00000
     18      -5.6755      2.00000
     19      -5.6684      2.00000
     20      -5.6684      2.00000
     21      -5.5712      2.00000
     22      -5.4714      2.00000
     23      -5.4609      2.00000
     24      -5.4609      2.00000
     25      -5.3487      2.00000
     26      -5.3268      2.00000
     27      -5.3031      2.00000
     28      -5.3031      2.00000
     29      -5.2787      2.00000
     30      -5.1622      2.00000
     31      -5.1622      2.00000
     32      -5.1291      2.00000
     33      -5.1145      2.00000
     34      -5.0124      2.00000
     35      -4.8423      2.00000
     36      -4.7743      2.00000
     37      -4.7716      2.00000
     38      -4.7716      2.00000
     39      -4.7058      2.00000
     40      -4.6524      2.00000
     41      -4.6488      2.00000
     42      -4.6331      2.00000
     43      -4.6331      2.00000
     44      -4.5919      2.00000
     45      -4.5437      2.00000
     46      -4.5437      2.00000
     47      -4.5040      2.00000
     48      -4.5040      2.00000
     49      -4.3977      2.00000
     50      -4.3612      2.00000
     51      -4.3392      2.00000
     52      -4.1840      2.00000
     53      -4.1840      2.00000
     54      -4.0697      2.00000
     55      -4.0605      2.00000
     56      -3.9907      2.00000
     57      -3.9907      2.00000
     58      -3.9823      2.00000
     59      -3.9032      2.00000
     60      -3.9032      2.00000
     61      -3.8829      2.00000
     62      -3.5668      2.00000
[...]
     82       5.5512      0.00000
     83       5.5512      0.00000
     84       5.5579      0.00000
     85       5.7032      0.00000
     86       5.8445      0.00000
     87       5.9251      0.00000
     88       5.9251      0.00000
     89       6.2304      0.00000
     90       6.2304      0.00000
     91       6.5253      0.00000
     92       6.5253      0.00000
     93       7.1067      0.00000
     94       7.4026      0.00000
     95       7.4026      0.00000
     96       7.6424      0.00000

 k-point    11 :      -0.4444    0.2222    0.0000
  band No.  band energies     occupation 
      1      -6.6176      2.00000
      2      -6.4510      2.00000
      3      -6.3180      2.00000
      4      -6.3110      2.00000
      5      -6.3043      2.00000
      6      -6.2707      2.00000
      7      -6.2465      2.00000
      8      -6.1988      2.00000
      9      -6.1923      2.00000
     10      -6.1816      2.00000
     11      -6.0464      2.00000
     12      -6.0181      2.00000
     13      -5.9841      2.00000
     14      -5.9622      2.00000
     15      -5.8687      2.00000
     16      -5.8633      2.00000
     17      -5.7546      2.00000
     18      -5.7339      2.00000
     19      -5.6931      2.00000
     20      -5.6024      2.00000
     21      -5.5742      2.00000
     22      -5.5153      2.00000
     23      -5.4735      2.00000
     24      -5.4623      2.00000
     25      -5.4050      2.00000
     26      -5.3209      2.00000
     27      -5.3119      2.00000
     28      -5.2663      2.00000
     29      -5.2294      2.00000
     30      -5.1948      2.00000
     31      -5.1884      2.00000
     32      -5.1649      2.00000
     33      -5.1451      2.00000
     34      -5.0925      2.00000
     35      -5.0786      2.00000
     36      -4.9748      2.00000
     37      -4.9393      2.00000
     38      -4.9199      2.00000
     39      -4.9121      2.00000
     40      -4.8638      2.00000
     41      -4.8018      2.00000
     42      -4.6618      2.00000
     43      -4.6435      2.00000
     44      -4.5896      2.00000
     45      -4.5496      2.00000
     46      -4.5240      2.00000
     47      -4.5229      2.00000
     48      -4.4878      2.00000
     49      -4.4485      2.00000
     50      -4.3242      2.00000
     51      -4.3053      2.00000
     52      -4.2308      2.00000
     53      -4.2029      2.00000
     54      -4.1455      2.00000
     55      -4.1279      2.00000
     56      -4.0594      2.00000
     57      -3.9949      2.00000
     58      -3.9923      2.00000
     59      -3.9715      2.00000
     60      -3.9142      2.00000
     61      -3.9116      2.00000
     62      -3.7494      2.00000
     63      -3.1927      2.00000
     64      -3.0385      2.00000
     65      -2.6128      2.00000
     66      -1.8608      2.00000
     67      -0.7052     -0.01368
     68      -0.0766     -0.00000
     69       0.5952     -0.00000
     70       1.3127     -0.00000
     71       1.8615      0.00000
     72       2.5588      0.00000
     73       2.6948      0.00000
     74       2.8108      0.00000
     75       3.4665      0.00000
     76       4.0343      0.00000
     77       4.2560      0.00000
     78       4.3843      0.00000
     79       4.7162      0.00000
     80       4.8527      0.00000
     81       4.8800      0.00000
     82       5.1540      0.00000
     83       5.3781      0.00000
     84       5.4569      0.00000
     85       5.6376      0.00000
     86       5.7718      0.00000
     87       6.0346      0.00000
     88       6.2145      0.00000
     89       6.2683      0.00000
     90       6.3054      0.00000
     91       6.3947      0.00000
     92       6.8601      0.00000
     93       6.9044      0.00000
     94       7.0407      0.00000
     95       7.5071      0.00000
     96       7.5370      0.00000

 k-point    12 :      -0.3333    0.3333    0.0000
  band No.  band energies     occupation 
      1      -6.3847      2.00000
      2      -6.3847      2.00000
      3      -6.3847      2.00000
      4      -6.1847      2.00000
      5      -6.1847      2.00000
      6      -6.1517      2.00000
      7      -6.1391      2.00000
      8      -6.1391      2.00000
      9      -6.1391      2.00000
     10      -6.0665      2.00000
     11      -6.0665      2.00000
     12      -6.0665      2.00000
     13      -6.0576      2.00000
     14      -6.0576      2.00000
     15      -6.0576      2.00000
     16      -5.7676      2.00000
     17      -5.7676      2.00000
     18      -5.5768      2.00000
     19      -5.5768      2.00000
     20      -5.5768      2.00000
     21      -5.5709      2.00000
     22      -5.5709      2.00000
     23      -5.5709      2.00000
     24      -5.3966      2.00000
     25      -5.3966      2.00000
     26      -5.3966      2.00000
     27      -5.3647      2.00000
     28      -5.3647      2.00000
     29      -5.3647      2.00000
     30      -5.3391      2.00000
     31      -5.1269      2.00000
     32      -5.1210      2.00000
     33      -5.1156      2.00000
     34      -5.1156      2.00000
     35      -5.0777      2.00000
     36      -5.0777      2.00000
     37      -5.0777      2.00000
     38      -5.0345      2.00000
     39      -5.0345      2.00000
     40      -5.0345      2.00000
     41      -4.6607      2.00000
     42      -4.6607      2.00000
     43      -4.6607      2.00000
     44      -4.5830      2.00000
     45      -4.5830      2.00000
     46      -4.5026      2.00000
     47      -4.5026      2.00000
     48      -4.5026      2.00000
     49      -4.3222      2.00000
     50      -4.3222      2.00000
     51      -4.3222      2.00000
     52      -4.1382      2.00000
     53      -4.1382      2.00000
     54      -4.1382      2.00000
     55      -4.0937      2.00000
     56      -4.0937      2.00000
     57      -3.9941      2.00000
     58      -3.9941      2.00000
     59      -3.9941      2.00000
     60      -3.9749      2.00000
     61      -3.7300      2.00000
     62      -3.7300      2.00000
     63      -3.7300      2.00000
     64      -2.6386      2.00000
     65      -2.6386      2.00000
     66      -2.6386      2.00000
     67      -0.1293     -0.00000
     68      -0.1293     -0.00000
     69      -0.1293     -0.00000
     70       2.6156      0.00000
     71       2.6156      0.00000
     72       2.6156      0.00000
     73       2.6223      0.00000
     74       2.6223      0.00000
     75       2.7334      0.00000
     76       3.6334      0.00000
     77       4.4336      0.00000
     78       4.4336      0.00000
     79       4.7892      0.00000
     80       4.7892      0.00000
     81       4.7892      0.00000
     82       5.3071      0.00000
     83       5.3071      0.00000
     84       5.3071      0.00000
     85       5.7048      0.00000
     86       5.7048      0.00000
     87       5.7048      0.00000
     88       5.9107      0.00000
     89       5.9107      0.00000
     90       6.7966      0.00000
     91       6.7966      0.00000
     92       6.7966      0.00000
     93       6.8407      0.00000
     94       6.8407      0.00000
     95       6.8407      0.00000
     96       6.9509      0.00000


--------------------------------------------------------------------------------------------------------


 soft charge-density along one line, spin component           1
         0         1         2         3         4         5         6         7         8         9
 total charge-density along one line
 
 pseudopotential strength for first ion, spin component:           1
 -9.018   0.000   0.000  -0.003   0.000  -9.046   0.000   0.000
  0.000  -9.006   0.000  -0.000  -0.003   0.000  -9.034   0.000
  0.000   0.000  -9.007   0.000   0.000   0.000   0.000  -9.035
 -0.003  -0.000   0.000  -9.006   0.000  -0.002  -0.000   0.000
  0.000  -0.003   0.000   0.000  -9.018   0.000  -0.002   0.000
 -9.046   0.000   0.000  -0.002   0.000  -9.047   0.000   0.000
  0.000  -9.034   0.000  -0.000  -0.002   0.000  -9.035   0.000
  0.000   0.000  -9.035   0.000   0.000   0.000   0.000  -9.037
 -0.002  -0.000   0.000  -9.034   0.000  -0.002  -0.000   0.000
  0.000  -0.002   0.000   0.000  -9.046   0.000  -0.002   0.000
  0.000  -0.000  -0.005  -0.000   0.000   0.000  -0.000  -0.005
  0.000  -0.000  -0.008  -0.000   0.000   0.000  -0.000  -0.008
  0.000  -0.011  -0.000  -0.000   0.000   0.000  -0.011  -0.000
 -0.000   0.000  -0.013   0.000  -0.000  -0.000   0.000  -0.013
  0.000  -0.000  -0.000  -0.011   0.000   0.000  -0.000  -0.000
  0.000  -0.014  -0.000  -0.000   0.000   0.000  -0.013  -0.000
 -0.000   0.000  -0.016   0.000  -0.000  -0.000   0.000  -0.015
  0.000  -0.000  -0.000  -0.014   0.000   0.000  -0.000  -0.000
 total augmentation occupancy for first ion, spin component:           1
  3.081   0.000  -0.000  -0.009   0.000  -1.101   0.000   0.000  -0.024   0.000  -0.000   0.000   0.000   0.000  -0.017  -0.000
  0.000   2.884  -0.000   0.000  -0.009  -0.000  -0.793  -0.000  -0.000  -0.024  -0.000   0.000  -0.114  -0.000  -0.000   0.002
 -0.000  -0.000   3.173  -0.000   0.000   0.000  -0.000  -1.105  -0.000  -0.000   0.425  -0.055  -0.000  -0.151   0.000   0.000
 -0.009   0.000   0.000   2.884   0.000  -0.024  -0.000   0.000  -0.793  -0.000   0.000   0.000  -0.000   0.000  -0.114   0.000
  0.000  -0.009   0.000   0.000   3.081   0.000  -0.024  -0.000  -0.000  -1.101   0.000  -0.000  -0.017  -0.000  -0.000   0.001
 -1.101  -0.000   0.000  -0.024   0.000   1.069   0.000  -0.000   0.051   0.000   0.000  -0.000  -0.000  -0.000   0.019   0.000
 -0.000  -0.793  -0.000  -0.000  -0.024  -0.000   0.671   0.000   0.000   0.051   0.000   0.000   0.116  -0.000   0.000  -0.008
  0.000  -0.000  -1.105   0.000  -0.000  -0.000   0.000   1.002  -0.000   0.000  -0.390   0.057   0.000   0.170  -0.000  -0.000
 -0.024  -0.000   0.000  -0.793  -0.000   0.051   0.000  -0.000   0.671   0.000   0.000   0.000   0.000  -0.000   0.116  -0.000
 -0.000  -0.024  -0.000  -0.000  -1.101  -0.000   0.051   0.000   0.000   1.069  -0.000   0.000   0.019   0.000   0.000  -0.001
 -0.000   0.000   0.425   0.000   0.000   0.000  -0.000  -0.390  -0.000  -0.000   1.932  -0.311   0.000   0.125  -0.000   0.000
  0.000   0.000  -0.055   0.000  -0.000  -0.000  -0.000   0.057   0.000   0.000  -0.311   0.067  -0.000  -0.035   0.000   0.000
  0.000  -0.114  -0.000  -0.000  -0.017  -0.000   0.116   0.000   0.000   0.019   0.000   0.000   0.136   0.000   0.000  -0.008
  0.000   0.000  -0.151   0.000  -0.000  -0.000  -0.000   0.170  -0.000   0.000   0.125  -0.035  -0.000   0.080  -0.000   0.000
 -0.017  -0.000   0.000  -0.114  -0.000   0.019   0.000  -0.000   0.116   0.000   0.000   0.000   0.000   0.000   0.136  -0.000
 -0.000   0.002   0.000   0.000   0.001   0.000  -0.008  -0.000  -0.000  -0.001   0.000   0.000  -0.008  -0.000  -0.000   0.001
 -0.000  -0.000  -0.000  -0.000  -0.000   0.000   0.000  -0.009   0.000  -0.000  -0.013   0.003   0.000  -0.005  -0.000  -0.000
  0.001   0.000   0.000   0.002   0.000  -0.001  -0.000   0.000  -0.008  -0.000  -0.000  -0.000  -0.000   0.000  -0.008   0.000


------------------------ aborting loop because EDIFF is reached ----------------------------------------


 


 total charge     
 
# of ion     s       p       d       tot
----------------------------------------
  1        0.414   0.203   9.180   9.797
  2        0.414   0.203   9.180   9.797
  3        0.414   0.203   9.180   9.797
  4        0.414   0.203   9.180   9.797
  5        0.406   0.263   9.172   9.841
  6        0.406   0.263   9.172   9.841
  7        0.406   0.263   9.172   9.841
  8        0.406   0.263   9.172   9.841
  9        0.414   0.203   9.180   9.797
 10        0.414   0.203   9.180   9.797
 11        0.414   0.203   9.180   9.797
 12        0.414   0.203   9.180   9.797
------------------------------------------------
tot        4.938   2.676 110.128 117.742
 
    CHARGE:  cpu time    0.1473: real time    0.1615
    FORLOC:  cpu time    0.0028: real time    0.0029
    FORNL :  cpu time    2.7282: real time    2.7295
    STRESS:  cpu time    3.7715: real time    3.7712
    FORCOR:  cpu time    0.0311: real time    0.0311
    FORHAR:  cpu time    0.0095: real time    0.0095
    MIXING:  cpu time    0.0019: real time    0.0019
    OFIELD:  cpu time    0.0001: real time    0.0001

  FORCE on cell =-STRESS in cart. coord.  units (eV):
  Direction    XX          YY          ZZ          XY          YZ          ZX
  --------------------------------------------------------------------------------------
  Alpha Z   165.88112   165.88112   165.88112
  Ewald   53990.53272 53990.53272-61634.60064     0.00000     0.00000     0.00000
  Hartree 57115.60456 57115.60456-55498.52542     0.00000     0.00000     0.00000
  E(xc)    -695.32936  -695.32934  -697.88246    -0.00002    -0.00000    -0.00000
  Local  ************************115025.98511     0.00061    -0.00000    -0.00000
  n-local  -103.90281  -123.17110  -115.87593    -9.25373     0.17881    -0.32428
  augment  1103.01410  1103.01470  1107.76815    -0.00052     0.00000     0.00001
  Kinetic  1632.20116  1634.56674  1646.38079     1.81045    -0.34191     0.52054
  Fock        0.00000     0.00000     0.00000     0.00000     0.00000     0.00000
  -------------------------------------------------------------------------------------
  Total      -3.72537    -3.72537    -0.86928     0.00000     0.00000     0.00000
  in kB      -8.08352    -8.08352    -1.88621     0.00000     0.00000     0.00000
  external pressure =       -6.02 kB  Pullay stress =        0.00 kB


 VOLUME and BASIS-vectors are now :
 -----------------------------------------------------------------------------
  energy-cutoff  :      400.00
  volume of cell :      738.38
      direct lattice vectors                 reciprocal lattice vectors
     5.864743640  0.000000000  0.000000000     0.170510437 -0.098444247  0.000000000
     2.932371820  5.079016980  0.000000000     0.000000000  0.196888493  0.000000000
     0.000000000  0.000000000 24.788543130     0.000000000  0.000000000  0.040341217

  length of vectors
     5.864743640  5.864743641 24.788543130     0.196888493  0.196888493  0.040341217


 FORCES acting on ions
    electron-ion (+dipol)            ewald-force                    non-local-force                 convergence-correction
 -----------------------------------------------------------------------------------------------
   -.809E-05 -.466E-05 0.208E+04   -.852E-06 -.499E-06 -.208E+04   -.434E-17 -.113E-16 -.163E+01   -.882E-08 -.510E-08 -.497E-01
   -.809E-05 -.466E-05 0.208E+04   -.852E-06 -.499E-06 -.208E+04   -.499E-17 0.000E+00 -.163E+01   -.882E-08 -.510E-08 -.497E-01
   -.809E-05 -.466E-05 0.208E+04   -.852E-06 -.499E-06 -.208E+04   -.347E-17 -.694E-17 -.163E+01   -.882E-08 -.510E-08 -.497E-01
   -.809E-05 -.466E-05 0.208E+04   -.852E-06 -.499E-06 -.208E+04   -.347E-17 -.260E-17 -.163E+01   -.882E-08 -.510E-08 -.497E-01
   0.746E-05 0.431E-05 -.659E-06   0.128E-05 0.737E-06 -.341E-12   0.165E-22 -.265E-22 -.112E-21   0.750E-08 0.433E-08 -.716E-09
   0.746E-05 0.431E-05 -.660E-06   0.128E-05 0.737E-06 -.227E-12   -.364E-22 0.662E-23 0.000E+00   0.750E-08 0.433E-08 -.716E-09
   0.746E-05 0.431E-05 -.659E-06   0.128E-05 0.737E-06 -.483E-12   0.215E-22 -.331E-23 -.199E-22   0.750E-08 0.433E-08 -.716E-09
   0.746E-05 0.431E-05 -.660E-06   0.128E-05 0.737E-06 -.284E-12   -.232E-22 0.199E-22 0.529E-22   0.750E-08 0.433E-08 -.716E-09
   0.329E-06 0.184E-06 -.208E+04   -.424E-06 -.237E-06 0.208E+04   0.260E-17 0.260E-17 0.163E+01   0.673E-09 0.391E-09 0.497E-01
   0.329E-06 0.184E-06 -.208E+04   -.424E-06 -.237E-06 0.208E+04   0.520E-17 0.694E-17 0.163E+01   0.673E-09 0.391E-09 0.497E-01
   0.329E-06 0.184E-06 -.208E+04   -.424E-06 -.237E-06 0.208E+04   0.152E-17 0.694E-17 0.163E+01   0.673E-09 0.391E-09 0.497E-01
   0.329E-06 0.184E-06 -.208E+04   -.424E-06 -.237E-06 0.208E+04   0.607E-17 0.260E-17 0.163E+01   0.673E-09 0.391E-09 0.497E-01
 -----------------------------------------------------------------------------------------------
   -.119E-05 -.686E-06 -.625E-05   0.111E-13 -.129E-14 0.000E+00   -.867E-18 -.173E-17 -.155E-14   -.260E-08 -.150E-08 -.611E-08
 
 
 POSITION                                       TOTAL-FORCE (eV/Angst)
 -----------------------------------------------------------------------------------
      1.46619      0.84650     10.01428        -0.000000      0.000000      0.024769
      4.39856      0.84650     10.01428         0.000000      0.000000      0.024769
      2.93237      3.38601     10.01428        -0.000000      0.000000      0.024769
      5.86474      3.38601     10.01428         0.000000      0.000000      0.024769
      5.86474      1.69301     12.39427        -0.000000      0.000000      0.000000
      2.93237      1.69301     12.39427         0.000000     -0.000000      0.000000
      7.33093      4.23251     12.39427        -0.000000     -0.000000      0.000000
      4.39856      4.23251     12.39427         0.000000     -0.000000      0.000000
      0.00000      0.00000     14.77426         0.000000      0.000000     -0.024769
      2.93237      0.00000     14.77426        -0.000000      0.000000     -0.024769
      1.46619      2.53951     14.77426         0.000000      0.000000     -0.024769
      4.39856      2.53951     14.77426        -0.000000      0.000000     -0.024769
 -----------------------------------------------------------------------------------
    total drift:                               -0.000001     -0.000001     -0.000006


--------------------------------------------------------------------------------------------------------



  FREE ENERGIE OF THE ION-ELECTRON SYSTEM (eV)
  ---------------------------------------------------
  free  energy   TOTEN  =       -29.80800888 eV

  energy  without entropy=      -29.80157831  energy(sigma->0) =      -29.80586535
 


--------------------------------------------------------------------------------------------------------


    POTLOK:  cpu time    0.0335: real time    0.0335


--------------------------------------------------------------------------------------------------------


     LOOP+:  cpu time   58.6293: real time   58.7750
    4ORBIT:  cpu time    0.0000: real time    0.0000
 


 total charge     
 
# of ion     s       p       d       tot
----------------------------------------
  1        0.414   0.203   9.180   9.797
  2        0.414   0.203   9.180   9.797
  3        0.414   0.203   9.180   9.797
  4        0.414   0.203   9.180   9.797
  5        0.406   0.263   9.172   9.841
  6        0.406   0.263   9.172   9.841
  7        0.406   0.263   9.172   9.841
  8        0.406   0.263   9.172   9.841
  9        0.414   0.203   9.180   9.797
 10        0.414   0.203   9.180   9.797
 11        0.414   0.203   9.180   9.797
 12        0.414   0.203   9.180   9.797
------------------------------------------------
tot        4.938   2.676 110.128 117.742
 

 total amount of memory used by VASP on root node    75361. kBytes
========================================================================

   base      :      30000. kBytes
   nonl-proj :      25943. kBytes
   fftplans  :       1950. kBytes
   grid      :       6739. kBytes
   one-center:        186. kBytes
   wavefun   :      10543. kBytes
 
  
  
 General timing and accounting informations for this job:
 ========================================================
  
                  Total CPU time used (sec):       60.985
                            User time (sec):       59.715
                          System time (sec):        1.269
                         Elapsed time (sec):       61.289
  
                   Maximum memory used (kb):      105372.
                   Average memory used (kb):           0.
  
                          Minor page faults:       124263
                          Major page faults:           11
                 Voluntary context switches:         1876
