PROCAR new format
# of k-points:   12         # of bands:  96         # of ions:  12

 k-point    1 :    0.00000000 0.00000000 0.00000000     weight = 0.01234568

band   1 # energy   -7.80013600 # occ.  2.00000000
 
ion      s      p      d    tot
  1  0.027  0.002  0.000  0.029
  2  0.027  0.002  0.000  0.029
  3  0.027  0.002  0.000  0.029
  4  0.027  0.002  0.000  0.029
  5  0.074  0.000  0.004  0.078
  6  0.074  0.000  0.004  0.078
  7  0.074  0.000  0.004  0.078
  8  0.074  0.000  0.004  0.078
  9  0.027  0.002  0.000  0.029
 10  0.027  0.002  0.000  0.029
 11  0.027  0.002  0.000  0.029
 12  0.027  0.002  0.000  0.029
tot  0.511  0.017  0.016  0.544
 
band   2 # energy   -6.87422310 # occ.  2.00000000
 
ion      s      p      d    tot
  1  0.011  0.000  0.039  0.050
  2  0.011  0.000  0.039  0.050
  3  0.011  0.000  0.039  0.050
  4  0.011  0.000  0.039  0.050
  5  0.009  0.000  0.095  0.104
  6  0.009  0.000  0.095  0.104
  7  0.009  0.000  0.095  0.104
  8  0.009  0.000  0.095  0.104
  9  0.011  0.000  0.039  0.050
 10  0.011  0.000  0.039  0.050
 11  0.011  0.000  0.039  0.050
 12  0.011  0.000  0.039  0.050
tot  0.123  0.000  0.695  0.818
 
band   3 # energy   -6.84528769 # occ.  2.00000000
 
ion      s      p      d    tot
  1  0.000  0.000  0.028  0.028
  2  0.000  0.000  0.028  0.028
  3  0.000  0.000  0.028  0.028
  4  0.000  0.000  0.028  0.028
  5  0.008  0.000  0.149  0.157
  6  0.008  0.000  0.149  0.157
  7  0.008  0.000  0.149  0.157
  8  0.008  0.000  0.149  0.157
  9  0.000  0.000  0.028  0.028
 10  0.000  0.000  0.028  0.028
 11  0.000  0.000  0.028  0.028
 12  0.000  0.000  0.028  0.028
tot  0.032  0.003  0.820  0.854
 
band   4 # energy   -6.84528448 # occ.  2.00000000
 
ion      s      p      d    tot
  1  0.000  0.000  0.028  0.028
  2  0.000  0.000  0.028  0.028
  3  0.000  0.000  0.028  0.028
  4  0.000  0.000  0.028  0.028
  5  0.008  0.000  0.149  0.157
  6  0.008  0.000  0.149  0.157
  7  0.008  0.000  0.149  0.157
  8  0.008  0.000  0.149  0.157
  9  0.000  0.000  0.028  0.028
 10  0.000  0.000  0.028  0.028
 11  0.000  0.000  0.028  0.028
 12  0.000  0.000  0.028  0.028
tot  0.032  0.003  0.820  0.854
 
band   5 # energy   -6.84528448 # occ.  2.00000000
 
ion      s      p      d    tot
  1  0.000  0.000  0.028  0.028
  2  0.000  0.000  0.028  0.028
  3  0.000  0.000  0.028  0.028
  4  0.000  0.000  0.028  0.028
  5  0.008  0.000  0.149  0.157
  6  0.008  0.000  0.149  0.157
  7  0.008  0.000  0.149  0.157
  8  0.008  0.000  0.149  0.157
  9  0.000  0.000  0.028  0.028
 10  0.000  0.000  0.028  0.028
 11  0.000  0.000  0.028  0.028
 12  0.000  0.000  0.028  0.028
tot  0.032  0.003  0.820  0.854
 
band   6 # energy   -6.76419087 # occ.  2.00000000
 
ion      s      p      d    tot
  1  0.036  0.000  0.048  0.084
  2  0.036  0.000  0.048  0.084
  3  0.036  0.000  0.048  0.084
  4  0.036  0.000  0.048  0.084
  5  0.000  0.004  0.000  0.004
  6  0.000  0.004  0.000  0.004
  7  0.000  0.004  0.000  0.004
  8  0.000  0.004  0.000  0.004
  9  0.036  0.000  0.048  0.084
 10  0.036  0.000  0.048  0.084
 11  0.036  0.000  0.048  0.084
 12  0.036  0.000  0.048  0.084
tot  0.288  0.017  0.387  0.692
 
band   7 # energy   -6.70800310 # occ.  2.00000000
 
ion      s      p      d    tot
  1  0.006  0.001  0.035  0.042
  2  0.006  0.001  0.035  0.042
  3  0.006  0.001  0.035  0.042
  4  0.006  0.001  0.035  0.042
  5  0.002  0.000  0.125  0.128
  6  0.002  0.000  0.125  0.128
  7  0.002  0.000  0.125  0.128
  8  0.002  0.000  0.125  0.128
  9  0.006  0.001  0.035  0.042
 10  0.006  0.001  0.035  0.042
 11  0.006  0.001  0.035  0.042
 12  0.006  0.001  0.035  0.042
tot  0.055  0.008  0.785  0.848
 
band   8 # energy   -6.70800110 # occ.  2.00000000
 
ion      s      p      d    tot
  1  0.006  0.001  0.035  0.042
  2  0.006  0.001  0.035  0.042
  3  0.006  0.001  0.035  0.042
  4  0.006  0.001  0.035  0.042
  5  0.002  0.000  0.125  0.128
  6  0.002  0.000  0.125  0.128
  7  0.002  0.000  0.125  0.128
  8  0.002  0.000  0.125  0.128
  9  0.006  0.001  0.035  0.042
 10  0.006  0.001  0.035  0.042
 11  0.006  0.001  0.035  0.042
 12  0.006  0.001  0.035  0.042
tot  0.055  0.008  0.785  0.848
 
band   9 # energy   -6.70800110 # occ.  2.00000000
 
ion      s      p      d    tot
  1  0.006  0.001  0.035  0.042
  2  0.006  0.001  0.035  0.042
  3  0.006  0.001  0.035  0.042
  4  0.006  0.001  0.035  0.042
  5  0.002  0.000  0.125  0.128
  6  0.002  0.000  0.125  0.128
  7  0.002  0.000  0.125  0.128
  8  0.002  0.000  0.125  0.128
  9  0.006  0.001  0.035  0.042
 10  0.006  0.001  0.035  0.042
 11  0.006  0.001  0.035  0.042
 12  0.006  0.001  0.035  0.042
tot  0.055  0.008  0.785  0.848
 
band  10 # energy   -6.60407547 # occ.  2.00000000
 
ion      s      p      d    tot
  1  0.001  0.001  0.073  0.075
  2  0.001  0.001  0.073  0.075
  3  0.001  0.001  0.073  0.075
  4  0.001  0.001  0.073  0.075
  5  0.005  0.000  0.063  0.068
  6  0.005  0.000  0.063  0.068
  7  0.005  0.000  0.063  0.068
  8  0.005  0.000  0.063  0.068
  9  0.001  0.001  0.073  0.075
 10  0.001  0.001  0.073  0.075
 11  0.001  0.001  0.073  0.075
 12  0.001  0.001  0.073  0.075
tot  0.025  0.007  0.838  0.869
 
band  11 # energy   -6.60407449 # occ.  2.00000000
 
ion      s      p      d    tot
  1  0.001  0.001  0.073  0.075
  2  0.001  0.001  0.073  0.075
  3  0.001  0.001  0.073  0.075
  4  0.001  0.001  0.073  0.075
  5  0.005  0.000  0.063  0.068
  6  0.005  0.000  0.063  0.068
  7  0.005  0.000  0.063  0.068
  8  0.005  0.000  0.063  0.068
  9  0.001  0.001  0.073  0.075
 10  0.001  0.001  0.073  0.075
 11  0.001  0.001  0.073  0.075
 12  0.001  0.001  0.073  0.075
tot  0.025  0.007  0.838  0.869
 
band  12 # energy   -6.60407449 # occ.  2.00000000
 
ion      s      p      d    tot
  1  0.001  0.001  0.073  0.075
  2  0.001  0.001  0.073  0.075
  3  0.001  0.001  0.073  0.075
  4  0.001  0.001  0.073  0.075
  5  0.005  0.000  0.063  0.068
  6  0.005  0.000  0.063  0.068
  7  0.005  0.000  0.063  0.068
  8  0.005  0.000  0.063  0.068
  9  0.001  0.001  0.073  0.075
 10  0.001  0.001  0.073  0.075
 11  0.001  0.001  0.073  0.075
 12  0.001  0.001  0.073  0.075
tot  0.025  0.007  0.838  0.869
 
band  13 # energy   -6.41429395 # occ.  2.00000000
 
ion      s      p      d    tot
  1  0.004  0.000  0.105  0.109
  2  0.004  0.000  0.105  0.109
  3  0.004  0.000  0.105  0.109
  4  0.004  0.000  0.105  0.109
  5  0.000  0.001  0.000  0.001
  6  0.000  0.001  0.000  0.001
  7  0.000  0.001  0.000  0.001
  8  0.000  0.001  0.000  0.001
  9  0.004  0.000  0.105  0.109
 10  0.004  0.000  0.105  0.109
 11  0.004  0.000  0.105  0.109
 12  0.004  0.000  0.105  0.109
tot  0.031  0.004  0.839  0.873
 
band  14 # energy   -6.41429068 # occ.  2.00000000
 
ion      s      p      d    tot
  1  0.004  0.000  0.106  0.109
  2  0.004  0.000  0.104  0.108
  3  0.004  0.000  0.104  0.108
  4  0.004  0.000  0.106  0.109
  5  0.000  0.001  0.000  0.001
  6  0.000  0.001  0.000  0.001
  7  0.000  0.001  0.000  0.001
  8  0.000  0.001  0.000  0.001
  9  0.004  0.000  0.106  0.109
 10  0.004  0.000  0.104  0.108
 11  0.004  0.000  0.104  0.108
 12  0.004  0.000  0.106  0.109
tot  0.031  0.004  0.839  0.873
 
band  15 # energy   -6.41429068 # occ.  2.00000000
 
ion      s      p      d    tot
  1  0.004  0.000  0.104  0.108
  2  0.004  0.000  0.106  0.109
  3  0.004  0.000  0.106  0.109
  4  0.004  0.000  0.104  0.108
  5  0.000  0.001  0.000  0.001
  6  0.000  0.001  0.000  0.001
  7  0.000  0.001  0.000  0.001
  8  0.000  0.001  0.000  0.001
  9  0.004  0.000  0.104  0.108
 10  0.004  0.000  0.106  0.109
 11  0.004  0.000  0.106  0.109
 12  0.004  0.000  0.104  0.108
tot  0.031  0.004  0.839  0.873
 
band  16 # energy   -5.75584381 # occ.  2.00000000
 
ion      s      p      d    tot
  1  0.000  0.000  0.107  0.107
  2  0.000  0.000  0.107  0.107
  3  0.000  0.000  0.107  0.107
  4  0.000  0.000  0.107  0.107
  5  0.000  0.004  0.000  0.004
  6  0.000  0.004  0.000  0.004
  7  0.000  0.004  0.000  0.004
  8  0.000  0.004  0.000  0.004
  9  0.000  0.000  0.107  0.107
 10  0.000  0.000  0.107  0.107
 11  0.000  0.000  0.107  0.107
 12  0.000  0.000  0.107  0.107
tot  0.000  0.019  0.858  0.877
 
band  17 # energy   -5.75584372 # occ.  2.00000000
 
ion      s      p      d    tot
  1  0.000  0.000  0.117  0.117
  2  0.000  0.000  0.098  0.098
  3  0.000  0.000  0.098  0.098
  4  0.000  0.000  0.117  0.117
  5  0.000  0.005  0.000  0.005
  6  0.000  0.004  0.000  0.004
  7  0.000  0.004  0.000  0.004
  8  0.000  0.005  0.000  0.005
  9  0.000  0.000  0.117  0.117
 10  0.000  0.000  0.098  0.098
 11  0.000  0.000  0.098  0.098
 12  0.000  0.000  0.117  0.117
tot  0.000  0.019  0.858  0.877
 
band  18 # energy   -5.75584372 # occ.  2.00000000
 
ion      s      p      d    tot
  1  0.000  0.000  0.098  0.098
  2  0.000  0.000  0.117  0.117
  3  0.000  0.000  0.117  0.117
  4  0.000  0.000  0.098  0.098
  5  0.000  0.004  0.000  0.004
  6  0.000  0.005  0.000  0.005
  7  0.000  0.005  0.000  0.005
  8  0.000  0.004  0.000  0.004
  9  0.000  0.000  0.098  0.098
 10  0.000  0.000  0.117  0.117
 11  0.000  0.000  0.117  0.117
 12  0.000  0.000  0.098  0.098
tot  0.000  0.019  0.858  0.877
 
band  19 # energy   -5.60018112 # occ.  2.00000000
 
ion      s      p      d    tot
  1  0.000  0.000  0.061  0.062
  2  0.000  0.000  0.061  0.062
  3  0.000  0.000  0.061  0.062
  4  0.000  0.000  0.061  0.062
  5  0.000  0.000  0.108  0.108
  6  0.000  0.000  0.108  0.108
  7  0.000  0.000  0.108  0.108
  8  0.000  0.000  0.108  0.108
  9  0.000  0.000  0.061  0.062
 10  0.000  0.000  0.061  0.062
 11  0.000  0.000  0.061  0.062
 12  0.000  0.000  0.061  0.062
tot  0.001  0.002  0.924  0.926
 
band  20 # energy   -5.60018045 # occ.  2.00000000
 
ion      s      p      d    tot
  1  0.000  0.000  0.061  0.062
  2  0.000  0.000  0.061  0.062
  3  0.000  0.000  0.061  0.062
  4  0.000  0.000  0.061  0.062
  5  0.000  0.000  0.108  0.108
  6  0.000  0.000  0.108  0.108
  7  0.000  0.000  0.108  0.108
  8  0.000  0.000  0.108  0.108
  9  0.000  0.000  0.061  0.062
 10  0.000  0.000  0.061  0.062
 11  0.000  0.000  0.061  0.062
 12  0.000  0.000  0.061  0.062
tot  0.001  0.002  0.924  0.926
 
band  21 # energy   -5.60018045 # occ.  2.00000000
 
ion      s      p      d    tot
  1  0.000  0.000  0.061  0.062
  2  0.000  0.000  0.061  0.062
  3  0.000  0.000  0.061  0.062
  4  0.000  0.000  0.061  0.062
  5  0.000  0.000  0.108  0.108
  6  0.000  0.000  0.108  0.108
  7  0.000  0.000  0.108  0.108
  8  0.000  0.000  0.108  0.108
  9  0.000  0.000  0.061  0.062
 10  0.000  0.000  0.061  0.062
 11  0.000  0.000  0.061  0.062
 12  0.000  0.000  0.061  0.062
tot  0.001  0.002  0.924  0.926
 
band  22 # energy   -5.52217258 # occ.  2.00000000
 
ion      s      p      d    tot
  1  0.000  0.001  0.060  0.061
  2  0.000  0.001  0.060  0.061
  3  0.000  0.001  0.060  0.061
  4  0.000  0.001  0.060  0.061
  5  0.002  0.000  0.110  0.111
  6  0.002  0.000  0.110  0.111
  7  0.002  0.000  0.110  0.111
  8  0.002  0.000  0.110  0.111
  9  0.000  0.001  0.060  0.061
 10  0.000  0.001  0.060  0.061
 11  0.000  0.001  0.060  0.061
 12  0.000  0.001  0.060  0.061
tot  0.007  0.005  0.919  0.931
 
band  23 # energy   -5.48769414 # occ.  2.00000000
 
ion      s      p      d    tot
  1  0.000  0.000  0.014  0.014
  2  0.000  0.000  0.014  0.014
  3  0.000  0.000  0.014  0.014
  4  0.000  0.000  0.014  0.014
  5  0.000  0.000  0.207  0.207
  6  0.000  0.000  0.207  0.207
  7  0.000  0.000  0.207  0.207
  8  0.000  0.000  0.207  0.207
  9  0.000  0.000  0.014  0.014
 10  0.000  0.000  0.014  0.014
 11  0.000  0.000  0.014  0.014
 12  0.000  0.000  0.014  0.014
tot  0.000  0.000  0.943  0.943
 
band  24 # energy   -5.48769286 # occ.  2.00000000
 
ion      s      p      d    tot
  1  0.000  0.000  0.014  0.014
  2  0.000  0.000  0.014  0.014
  3  0.000  0.000  0.014  0.014
  4  0.000  0.000  0.014  0.014
  5  0.000  0.000  0.207  0.207
  6  0.000  0.000  0.207  0.207
  7  0.000  0.000  0.207  0.207
  8  0.000  0.000  0.207  0.207
  9  0.000  0.000  0.014  0.014
 10  0.000  0.000  0.014  0.014
 11  0.000  0.000  0.014  0.014
 12  0.000  0.000  0.014  0.014
tot  0.000  0.000  0.943  0.943
 
band  25 # energy   -5.34558307 # occ.  2.00000000
 
ion      s      p      d    tot
  1  0.000  0.000  0.095  0.095
  2  0.000  0.000  0.095  0.095
  3  0.000  0.000  0.095  0.095
  4  0.000  0.000  0.095  0.095
  5  0.000  0.000  0.046  0.046
  6  0.000  0.000  0.046  0.046
  7  0.000  0.000  0.046  0.046
  8  0.000  0.000  0.046  0.046
  9  0.000  0.000  0.095  0.095
 10  0.000  0.000  0.095  0.095
 11  0.000  0.000  0.095  0.095
 12  0.000  0.000  0.095  0.095
tot  0.000  0.000  0.946  0.946
 
band  26 # energy   -5.34558204 # occ.  2.00000000
 
ion      s      p      d    tot
  1  0.000  0.000  0.095  0.095
  2  0.000  0.000  0.095  0.095
  3  0.000  0.000  0.095  0.095
  4  0.000  0.000  0.095  0.095
  5  0.000  0.000  0.046  0.046
  6  0.000  0.000  0.046  0.046
  7  0.000  0.000  0.046  0.046
  8  0.000  0.000  0.046  0.046
  9  0.000  0.000  0.095  0.095
 10  0.000  0.000  0.095  0.095
 11  0.000  0.000  0.095  0.095
 12  0.000  0.000  0.095  0.095
tot  0.000  0.000  0.946  0.946
 
band  27 # energy   -5.29169727 # occ.  2.00000000
 
ion      s      p      d    tot
  1  0.000  0.000  0.046  0.047
  2  0.000  0.000  0.049  0.049
  3  0.000  0.000  0.049  0.049
  4  0.000  0.000  0.046  0.047
  5  0.000  0.000  0.144  0.144
  6  0.000  0.000  0.136  0.136
  7  0.000  0.000  0.136  0.136
  8  0.000  0.000  0.144  0.144
  9  0.000  0.000  0.046  0.047
 10  0.000  0.000  0.049  0.049
 11  0.000  0.000  0.049  0.049
 12  0.000  0.000  0.046  0.047
tot  0.000  0.001  0.942  0.943
 
band  28 # energy   -5.29169727 # occ.  2.00000000
 
ion      s      p      d    tot
  1  0.000  0.000  0.049  0.049
  2  0.000  0.000  0.046  0.047
  3  0.000  0.000  0.046  0.047
  4  0.000  0.000  0.049  0.049
  5  0.000  0.000  0.136  0.136
  6  0.000  0.000  0.144  0.144
  7  0.000  0.000  0.144  0.144
  8  0.000  0.000  0.136  0.136
  9  0.000  0.000  0.049  0.049
 10  0.000  0.000  0.046  0.047
 11  0.000  0.000  0.046  0.047
 12  0.000  0.000  0.049  0.049
tot  0.000  0.001  0.942  0.943
 
band  29 # energy   -5.29169633 # occ.  2.00000000
 
ion      s      p      d    tot
  1  0.000  0.000  0.048  0.048
  2  0.000  0.000  0.048  0.048
  3  0.000  0.000  0.048  0.048
  4  0.000  0.000  0.048  0.048
  5  0.000  0.000  0.140  0.140
  6  0.000  0.000  0.140  0.140
  7  0.000  0.000  0.140  0.140
  8  0.000  0.000  0.140  0.140
  9  0.000  0.000  0.048  0.048
 10  0.000  0.000  0.048  0.048
 11  0.000  0.000  0.048  0.048
 12  0.000  0.000  0.048  0.048
tot  0.000  0.001  0.942  0.943
 
band  30 # energy   -5.22030208 # occ.  2.00000000
 
ion      s      p      d    tot
  1  0.000  0.000  0.118  0.118
  2  0.000  0.000  0.118  0.118
  3  0.000  0.000  0.118  0.118
  4  0.000  0.000  0.118  0.118
  5  0.000  0.000  0.000  0.000
  6  0.000  0.000  0.000  0.000
  7  0.000  0.000  0.000  0.000
  8  0.000  0.000  0.000  0.000
  9  0.000  0.000  0.118  0.118
 10  0.000  0.000  0.118  0.118
 11  0.000  0.000  0.118  0.118
 12  0.000  0.000  0.118  0.118
tot  0.000  0.000  0.948  0.948
 
band  31 # energy   -5.22030115 # occ.  2.00000000
 
ion      s      p      d    tot
  1  0.000  0.000  0.118  0.118
  2  0.000  0.000  0.118  0.118
  3  0.000  0.000  0.118  0.118
  4  0.000  0.000  0.118  0.118
  5  0.000  0.000  0.000  0.000
  6  0.000  0.000  0.000  0.000
  7  0.000  0.000  0.000  0.000
  8  0.000  0.000  0.000  0.000
  9  0.000  0.000  0.118  0.118
 10  0.000  0.000  0.118  0.118
 11  0.000  0.000  0.118  0.118
 12  0.000  0.000  0.118  0.118
tot  0.000  0.000  0.948  0.948
 
band  32 # energy   -4.85594555 # occ.  2.00000000
 
ion      s      p      d    tot
  1  0.020  0.000  0.064  0.085
  2  0.020  0.000  0.064  0.085
  3  0.020  0.000  0.064  0.085
  4  0.020  0.000  0.064  0.085
  5  0.000  0.014  0.000  0.014
  6  0.000  0.014  0.000  0.014
  7  0.000  0.014  0.000  0.014
  8  0.000  0.014  0.000  0.014
  9  0.020  0.000  0.064  0.085
 10  0.020  0.000  0.064  0.085
 11  0.020  0.000  0.064  0.085
 12  0.020  0.000  0.064  0.085
tot  0.161  0.059  0.514  0.734
 
band  33 # energy   -4.72512652 # occ.  2.00000000
 
ion      s      p      d    tot
  1  0.003  0.000  0.107  0.110
  2  0.003  0.000  0.106  0.110
  3  0.003  0.000  0.107  0.110
  4  0.003  0.000  0.106  0.109
  5  0.000  0.007  0.000  0.007
  6  0.000  0.007  0.000  0.007
  7  0.000  0.007  0.000  0.007
  8  0.000  0.007  0.000  0.007
  9  0.003  0.000  0.106  0.109
 10  0.003  0.000  0.107  0.110
 11  0.003  0.000  0.106  0.110
 12  0.003  0.000  0.107  0.110
tot  0.023  0.029  0.852  0.904
 
band  34 # energy   -4.72512648 # occ.  2.00000000
 
ion      s      p      d    tot
  1  0.001  0.000  0.048  0.049
  2  0.005  0.000  0.165  0.170
  3  0.005  0.000  0.165  0.170
  4  0.001  0.000  0.048  0.050
  5  0.000  0.005  0.000  0.005
  6  0.000  0.008  0.000  0.008
  7  0.000  0.008  0.000  0.008
  8  0.000  0.005  0.000  0.005
  9  0.001  0.000  0.048  0.050
 10  0.005  0.000  0.165  0.170
 11  0.005  0.000  0.165  0.170
 12  0.001  0.000  0.048  0.049
tot  0.023  0.029  0.852  0.904
 
band  35 # energy   -4.72512648 # occ.  2.00000000
 
ion      s      p      d    tot
  1  0.005  0.000  0.165  0.170
  2  0.001  0.000  0.048  0.050
  3  0.001  0.000  0.048  0.050
  4  0.005  0.000  0.165  0.170
  5  0.000  0.008  0.000  0.008
  6  0.000  0.005  0.000  0.005
  7  0.000  0.005  0.000  0.005
  8  0.000  0.008  0.000  0.008
  9  0.005  0.000  0.165  0.170
 10  0.001  0.000  0.048  0.050
 11  0.001  0.000  0.048  0.050
 12  0.005  0.000  0.165  0.170
tot  0.023  0.029  0.852  0.904
 
band  36 # energy   -4.56116734 # occ.  2.00000000
 
ion      s      p      d    tot
  1  0.000  0.000  0.052  0.052
  2  0.000  0.000  0.052  0.052
  3  0.000  0.000  0.052  0.052
  4  0.000  0.000  0.052  0.052
  5  0.000  0.000  0.138  0.138
  6  0.000  0.000  0.138  0.138
  7  0.000  0.000  0.138  0.138
  8  0.000  0.000  0.138  0.138
  9  0.000  0.000  0.052  0.052
 10  0.000  0.000  0.052  0.052
 11  0.000  0.000  0.052  0.052
 12  0.000  0.000  0.052  0.052
tot  0.000  0.000  0.970  0.970
 
band  37 # energy   -4.56116636 # occ.  2.00000000
 
ion      s      p      d    tot
  1  0.000  0.000  0.052  0.052
  2  0.000  0.000  0.052  0.052
  3  0.000  0.000  0.052  0.052
  4  0.000  0.000  0.052  0.052
  5  0.000  0.000  0.138  0.138
  6  0.000  0.000  0.138  0.138
  7  0.000  0.000  0.138  0.138
  8  0.000  0.000  0.138  0.138
  9  0.000  0.000  0.052  0.052
 10  0.000  0.000  0.052  0.052
 11  0.000  0.000  0.052  0.052
 12  0.000  0.000  0.052  0.052
tot  0.000  0.000  0.970  0.970
 
band  38 # energy   -4.56080566 # occ.  2.00000000
 
ion      s      p      d    tot
  1  0.000  0.000  0.120  0.120
  2  0.000  0.000  0.118  0.118
  3  0.000  0.000  0.118  0.118
  4  0.000  0.000  0.120  0.120
  5  0.000  0.001  0.000  0.001
  6  0.000  0.001  0.000  0.001
  7  0.000  0.001  0.000  0.001
  8  0.000  0.001  0.000  0.001
  9  0.000  0.000  0.120  0.120
 10  0.000  0.000  0.118  0.118
 11  0.000  0.000  0.118  0.118
 12  0.000  0.000  0.120  0.120
tot  0.000  0.002  0.955  0.957
 
band  39 # energy   -4.56080566 # occ.  2.00000000
 
ion      s      p      d    tot
  1  0.000  0.000  0.118  0.118
  2  0.000  0.000  0.120  0.120
  3  0.000  0.000  0.120  0.120
  4  0.000  0.000  0.118  0.118
  5  0.000  0.001  0.000  0.001
  6  0.000  0.001  0.000  0.001
  7  0.000  0.001  0.000  0.001
  8  0.000  0.001  0.000  0.001
  9  0.000  0.000  0.118  0.118
 10  0.000  0.000  0.120  0.120
 11  0.000  0.000  0.120  0.120
 12  0.000  0.000  0.118  0.118
tot  0.000  0.002  0.955  0.957
 
band  40 # energy   -4.56080486 # occ.  2.00000000
 
ion      s      p      d    tot
  1  0.000  0.000  0.119  0.119
  2  0.000  0.000  0.119  0.119
  3  0.000  0.000  0.119  0.119
  4  0.000  0.000  0.119  0.119
  5  0.000  0.001  0.000  0.001
  6  0.000  0.001  0.000  0.001
  7  0.000  0.001  0.000  0.001
  8  0.000  0.001  0.000  0.001
  9  0.000  0.000  0.119  0.119
 10  0.000  0.000  0.119  0.119
 11  0.000  0.000  0.119  0.119
 12  0.000  0.000  0.119  0.119
tot  0.000  0.002  0.955  0.957
 
band  41 # energy   -4.29932985 # occ.  2.00000000
 
ion      s      p      d    tot
  1  0.000  0.002  0.048  0.051
  2  0.000  0.002  0.048  0.051
  3  0.000  0.002  0.048  0.051
  4  0.000  0.002  0.048  0.051
  5  0.001  0.000  0.132  0.133
  6  0.001  0.000  0.132  0.133
  7  0.001  0.000  0.132  0.133
  8  0.001  0.000  0.132  0.133
  9  0.000  0.002  0.048  0.051
 10  0.000  0.002  0.048  0.051
 11  0.000  0.002  0.048  0.051
 12  0.000  0.002  0.048  0.051
tot  0.003  0.017  0.917  0.937
 
band  42 # energy   -4.29932966 # occ.  2.00000000
 
ion      s      p      d    tot
  1  0.000  0.002  0.048  0.051
  2  0.000  0.002  0.048  0.051
  3  0.000  0.002  0.048  0.050
  4  0.000  0.002  0.048  0.051
  5  0.001  0.000  0.133  0.134
  6  0.001  0.000  0.132  0.133
  7  0.001  0.000  0.132  0.133
  8  0.001  0.000  0.133  0.133
  9  0.000  0.002  0.048  0.051
 10  0.000  0.002  0.048  0.050
 11  0.000  0.002  0.048  0.051
 12  0.000  0.002  0.048  0.051
tot  0.003  0.017  0.917  0.937
 
band  43 # energy   -4.29932966 # occ.  2.00000000
 
ion      s      p      d    tot
  1  0.000  0.002  0.048  0.050
  2  0.000  0.002  0.048  0.051
  3  0.000  0.002  0.048  0.051
  4  0.000  0.002  0.048  0.051
  5  0.001  0.000  0.132  0.133
  6  0.001  0.000  0.133  0.133
  7  0.001  0.000  0.133  0.133
  8  0.001  0.000  0.132  0.133
  9  0.000  0.002  0.048  0.051
 10  0.000  0.002  0.048  0.051
 11  0.000  0.002  0.048  0.051
 12  0.000  0.002  0.048  0.050
tot  0.003  0.017  0.917  0.937
 
band  44 # energy   -4.28388060 # occ.  2.00000000
 
ion      s      p      d    tot
  1  0.000  0.000  0.121  0.121
  2  0.000  0.000  0.121  0.121
  3  0.000  0.000  0.121  0.121
  4  0.000  0.000  0.121  0.121
  5  0.000  0.000  0.000  0.000
  6  0.000  0.000  0.000  0.000
  7  0.000  0.000  0.000  0.000
  8  0.000  0.000  0.000  0.000
  9  0.000  0.000  0.121  0.121
 10  0.000  0.000  0.121  0.121
 11  0.000  0.000  0.121  0.121
 12  0.000  0.000  0.121  0.121
tot  0.000  0.000  0.970  0.970
 
band  45 # energy   -4.28387967 # occ.  2.00000000
 
ion      s      p      d    tot
  1  0.000  0.000  0.121  0.121
  2  0.000  0.000  0.121  0.121
  3  0.000  0.000  0.121  0.121
  4  0.000  0.000  0.121  0.121
  5  0.000  0.000  0.000  0.000
  6  0.000  0.000  0.000  0.000
  7  0.000  0.000  0.000  0.000
  8  0.000  0.000  0.000  0.000
  9  0.000  0.000  0.121  0.121
 10  0.000  0.000  0.121  0.121
 11  0.000  0.000  0.121  0.121
 12  0.000  0.000  0.121  0.121
tot  0.000  0.000  0.970  0.970
 
band  46 # energy   -4.00761816 # occ.  2.00000000
 
ion      s      p      d    tot
  1  0.000  0.000  0.066  0.066
  2  0.000  0.000  0.068  0.068
  3  0.000  0.000  0.068  0.068
  4  0.000  0.000  0.066  0.066
  5  0.000  0.000  0.112  0.112
  6  0.000  0.000  0.109  0.109
  7  0.000  0.000  0.109  0.109
  8  0.000  0.000  0.112  0.112
  9  0.000  0.000  0.066  0.066
 10  0.000  0.000  0.068  0.068
 11  0.000  0.000  0.068  0.068
 12  0.000  0.000  0.066  0.066
tot  0.000  0.001  0.977  0.978
 
band  47 # energy   -4.00761816 # occ.  2.00000000
 
ion      s      p      d    tot
  1  0.000  0.000  0.068  0.068
  2  0.000  0.000  0.066  0.066
  3  0.000  0.000  0.066  0.066
  4  0.000  0.000  0.068  0.068
  5  0.000  0.000  0.109  0.109
  6  0.000  0.000  0.112  0.112
  7  0.000  0.000  0.112  0.112
  8  0.000  0.000  0.109  0.109
  9  0.000  0.000  0.068  0.068
 10  0.000  0.000  0.066  0.066
 11  0.000  0.000  0.066  0.066
 12  0.000  0.000  0.068  0.068
tot  0.000  0.001  0.977  0.978
 
band  48 # energy   -4.00761744 # occ.  2.00000000
 
ion      s      p      d    tot
  1  0.000  0.000  0.067  0.067
  2  0.000  0.000  0.067  0.067
  3  0.000  0.000  0.067  0.067
  4  0.000  0.000  0.067  0.067
  5  0.000  0.000  0.111  0.111
  6  0.000  0.000  0.111  0.111
  7  0.000  0.000  0.111  0.111
  8  0.000  0.000  0.111  0.111
  9  0.000  0.000  0.067  0.067
 10  0.000  0.000  0.067  0.067
 11  0.000  0.000  0.067  0.067
 12  0.000  0.000  0.067  0.067
tot  0.000  0.001  0.977  0.978
 
band  49 # energy   -3.94665457 # occ.  2.00000000
 
ion      s      p      d    tot
  1  0.000  0.000  0.078  0.078
  2  0.000  0.000  0.078  0.078
  3  0.000  0.000  0.078  0.078
  4  0.000  0.000  0.078  0.078
  5  0.000  0.000  0.088  0.088
  6  0.000  0.000  0.088  0.088
  7  0.000  0.000  0.088  0.088
  8  0.000  0.000  0.088  0.088
  9  0.000  0.000  0.078  0.078
 10  0.000  0.000  0.078  0.078
 11  0.000  0.000  0.078  0.078
 12  0.000  0.000  0.078  0.078
tot  0.000  0.000  0.980  0.980
 
band  50 # energy   -3.94665356 # occ.  2.00000000
 
ion      s      p      d    tot
  1  0.000  0.000  0.078  0.078
  2  0.000  0.000  0.078  0.078
  3  0.000  0.000  0.078  0.078
  4  0.000  0.000  0.078  0.078
  5  0.000  0.000  0.088  0.088
  6  0.000  0.000  0.088  0.088
  7  0.000  0.000  0.088  0.088
  8  0.000  0.000  0.088  0.088
  9  0.000  0.000  0.078  0.078
 10  0.000  0.000  0.078  0.078
 11  0.000  0.000  0.078  0.078
 12  0.000  0.000  0.078  0.078
tot  0.000  0.000  0.980  0.980
 
band  51 # energy   -3.92173886 # occ.  2.00000000
 
ion      s      p      d    tot
  1  0.000  0.001  0.087  0.087
  2  0.000  0.001  0.087  0.087
  3  0.000  0.001  0.087  0.087
  4  0.000  0.001  0.087  0.087
  5  0.000  0.000  0.066  0.066
  6  0.000  0.000  0.066  0.066
  7  0.000  0.000  0.066  0.066
  8  0.000  0.000  0.066  0.066
  9  0.000  0.001  0.087  0.087
 10  0.000  0.001  0.087  0.087
 11  0.000  0.001  0.087  0.087
 12  0.000  0.001  0.087  0.087
tot  0.003  0.004  0.957  0.964
 
band  52 # energy   -3.92173823 # occ.  2.00000000
 
ion      s      p      d    tot
  1  0.000  0.001  0.087  0.088
  2  0.000  0.001  0.087  0.087
  3  0.000  0.001  0.087  0.087
  4  0.000  0.001  0.087  0.088
  5  0.000  0.000  0.066  0.066
  6  0.000  0.000  0.066  0.066
  7  0.000  0.000  0.066  0.066
  8  0.000  0.000  0.066  0.066
  9  0.000  0.001  0.087  0.088
 10  0.000  0.001  0.087  0.087
 11  0.000  0.001  0.087  0.087
 12  0.000  0.001  0.087  0.088
tot  0.003  0.004  0.957  0.964
 
band  53 # energy   -3.92173822 # occ.  2.00000000
 
ion      s      p      d    tot
  1  0.000  0.001  0.087  0.087
  2  0.000  0.001  0.087  0.088
  3  0.000  0.001  0.087  0.088
  4  0.000  0.001  0.087  0.087
  5  0.000  0.000  0.066  0.066
  6  0.000  0.000  0.066  0.066
  7  0.000  0.000  0.066  0.066
  8  0.000  0.000  0.066  0.066
  9  0.000  0.001  0.087  0.087
 10  0.000  0.001  0.087  0.088
 11  0.000  0.001  0.087  0.088
 12  0.000  0.001  0.087  0.087
tot  0.003  0.004  0.957  0.964
 
band  54 # energy   -3.82556086 # occ.  2.00000000
 
ion      s      p      d    tot
  1  0.000  0.000  0.018  0.018
  2  0.000  0.000  0.018  0.018
  3  0.000  0.000  0.018  0.018
  4  0.000  0.000  0.018  0.018
  5  0.000  0.000  0.210  0.210
  6  0.000  0.000  0.210  0.210
  7  0.000  0.000  0.210  0.210
  8  0.000  0.000  0.210  0.210
  9  0.000  0.000  0.018  0.018
 10  0.000  0.000  0.018  0.018
 11  0.000  0.000  0.018  0.018
 12  0.000  0.000  0.018  0.018
tot  0.000  0.000  0.986  0.986
 
band  55 # energy   -3.82555993 # occ.  2.00000000
 
ion      s      p      d    tot
  1  0.000  0.000  0.018  0.018
  2  0.000  0.000  0.018  0.018
  3  0.000  0.000  0.018  0.018
  4  0.000  0.000  0.018  0.018
  5  0.000  0.000  0.210  0.210
  6  0.000  0.000  0.210  0.210
  7  0.000  0.000  0.210  0.210
  8  0.000  0.000  0.210  0.210
  9  0.000  0.000  0.018  0.018
 10  0.000  0.000  0.018  0.018
 11  0.000  0.000  0.018  0.018
 12  0.000  0.000  0.018  0.018
tot  0.000  0.000  0.986  0.986
 
band  56 # energy   -3.82555993 # occ.  2.00000000
 
ion      s      p      d    tot
  1  0.000  0.000  0.018  0.018
  2  0.000  0.000  0.018  0.018
  3  0.000  0.000  0.018  0.018
  4  0.000  0.000  0.018  0.018
  5  0.000  0.000  0.210  0.210
  6  0.000  0.000  0.210  0.210
  7  0.000  0.000  0.210  0.210
  8  0.000  0.000  0.210  0.210
  9  0.000  0.000  0.018  0.018
 10  0.000  0.000  0.018  0.018
 11  0.000  0.000  0.018  0.018
 12  0.000  0.000  0.018  0.018
tot  0.000  0.000  0.986  0.986
 
band  57 # energy   -3.67020161 # occ.  2.00000000
 
ion      s      p      d    tot
  1  0.000  0.000  0.123  0.123
  2  0.000  0.000  0.123  0.123
  3  0.000  0.000  0.123  0.123
  4  0.000  0.000  0.123  0.123
  5  0.000  0.000  0.000  0.000
  6  0.000  0.000  0.000  0.000
  7  0.000  0.000  0.000  0.000
  8  0.000  0.000  0.000  0.000
  9  0.000  0.000  0.123  0.123
 10  0.000  0.000  0.123  0.123
 11  0.000  0.000  0.123  0.123
 12  0.000  0.000  0.123  0.123
tot  0.000  0.000  0.987  0.987
 
band  58 # energy   -3.67020034 # occ.  2.00000000
 
ion      s      p      d    tot
  1  0.000  0.000  0.123  0.123
  2  0.000  0.000  0.123  0.123
  3  0.000  0.000  0.123  0.123
  4  0.000  0.000  0.123  0.123
  5  0.000  0.000  0.000  0.000
  6  0.000  0.000  0.000  0.000
  7  0.000  0.000  0.000  0.000
  8  0.000  0.000  0.000  0.000
  9  0.000  0.000  0.123  0.123
 10  0.000  0.000  0.123  0.123
 11  0.000  0.000  0.123  0.123
 12  0.000  0.000  0.123  0.123
tot  0.000  0.000  0.987  0.987
 
band  59 # energy   -3.67020034 # occ.  2.00000000
 
ion      s      p      d    tot
  1  0.000  0.000  0.123  0.123
  2  0.000  0.000  0.123  0.123
  3  0.000  0.000  0.123  0.123
  4  0.000  0.000  0.123  0.123
  5  0.000  0.000  0.000  0.000
  6  0.000  0.000  0.000  0.000
  7  0.000  0.000  0.000  0.000
  8  0.000  0.000  0.000  0.000
  9  0.000  0.000  0.123  0.123
 10  0.000  0.000  0.123  0.123
 11  0.000  0.000  0.123  0.123
 12  0.000  0.000  0.123  0.123
tot  0.000  0.000  0.987  0.987
 
band  60 # energy   -3.64275588 # occ.  2.00000000
 
ion      s      p      d    tot
  1  0.000  0.000  0.111  0.111
  2  0.000  0.000  0.111  0.111