<?xml version="1.0" encoding="ISO-8859-1"?>
<modeling>
 <generator>
  <i name="program" type="string">vasp </i>
  <i name="version" type="string">5.4.1  </i>
  <i name="subversion" type="string">05Feb16 (build Feb 08 2018 09:21:51) complex                          parallel </i>
  <i name="platform" type="string">LinuxIFC </i>
  <i name="date" type="string">2019 11 21 </i>
  <i name="time" type="string">23:49:19 </i>
 </generator>
 <incar>
  <i type="string" name="PREC">normal</i>
  <i name="ENCUT">    400.00000000</i>
  <i type="int" name="ISMEAR">     1</i>
  <i name="SIGMA">      0.10000000</i>
  <i type="logical" name="LWAVE"> F  </i>
  <i type="logical" name="LCHARG"> F  </i>
  <i type="logical" name="LORBIT"> F  </i>
  <v type="int" name="KPOINT_BSE">    -1     0     0     0</v>
 </incar>
 <kpoints>
  <generation param="Monkhorst-Pack">
   <v type="int" name="divisions">       9        9        1 </v>
   <v name="usershift">      0.00000000       0.00000000       0.00000000 </v>
   <v name="genvec1">      0.11111111       0.00000000       0.00000000 </v>
   <v name="genvec2">      0.00000000       0.11111111       0.00000000 </v>
   <v name="genvec3">      0.00000000       0.00000000       1.00000000 </v>
   <v name="shift">      0.00000000       0.00000000       0.00000000 </v>
  </generation>
  <varray name="kpointlist" >
   <v>       0.00000000       0.00000000       0.00000000 </v>
   <v>       0.11111111       0.00000000       0.00000000 </v>
   <v>       0.22222222      -0.00000000       0.00000000 </v>
   <v>       0.33333333      -0.00000000       0.00000000 </v>
   <v>       0.44444444      -0.00000000       0.00000000 </v>
   <v>       0.22222222       0.11111111       0.00000000 </v>
   <v>       0.33333333       0.11111111       0.00000000 </v>
   <v>       0.44444444       0.11111111       0.00000000 </v>
   <v>      -0.44444444       0.11111111       0.00000000 </v>
   <v>       0.44444444       0.22222222       0.00000000 </v>
   <v>      -0.44444444       0.22222222       0.00000000 </v>
   <v>      -0.33333333       0.33333333       0.00000000 </v>
  </varray>
  <varray name="weights" >
   <v>       0.01234568 </v>
   <v>       0.07407407 </v>
   <v>       0.07407407 </v>
   <v>       0.07407407 </v>
   <v>       0.07407407 </v>
   <v>       0.07407407 </v>
   <v>       0.14814815 </v>
   <v>       0.14814815 </v>
   <v>       0.07407407 </v>
   <v>       0.07407407 </v>
   <v>       0.14814815 </v>
   <v>       0.02469136 </v>
  </varray>
 </kpoints>
 <parameters>
  <separator name="general" >
   <i type="string" name="SYSTEM">unknown system</i>
   <i type="logical" name="LCOMPAT"> F  </i>
  </separator>
  <separator name="electronic" >
   <i type="string" name="PREC">normal</i>
   <i name="ENMAX">    400.00000000</i>
   <i name="ENAUG">    412.49600000</i>
   <i name="EDIFF">      0.00010000</i>
   <i type="int" name="IALGO">    38</i>
   <i type="int" name="IWAVPR">    10</i>
   <i type="int" name="NBANDS">    96</i>
   <i name="NELECT">    132.00000000</i>
   <i type="int" name="TURBO">     0</i>
   <i type="int" name="IRESTART">     0</i>
   <i type="int" name="NREBOOT">     0</i>
   <i type="int" name="NMIN">     0</i>
   <i name="EREF">      0.00000000</i>
   <separator name="electronic smearing" >
    <i type="int" name="ISMEAR">     1</i>
    <i name="SIGMA">      0.10000000</i>
    <i name="KSPACING">      0.50000000</i>
    <i type="logical" name="KGAMMA"> T  </i>
   </separator>
   <separator name="electronic projectors" >
    <i type="logical" name="LREAL"> F  </i>
    <v name="ROPT">      0.00000000</v>
    <i type="int" name="LMAXPAW">  -100</i>
    <i type="int" name="LMAXMIX">     2</i>
    <i type="logical" name="NLSPLINE"> F  </i>
   </separator>
   <separator name="electronic startup" >
    <i type="int" name="ISTART">     0</i>
    <i type="int" name="ICHARG">     2</i>
    <i type="int" name="INIWAV">     1</i>
   </separator>
   <separator name="electronic spin" >
    <i type="int" name="ISPIN">     1</i>
    <i type="logical" name="LNONCOLLINEAR"> F  </i>
    <v name="MAGMOM">      1.00000000      1.00000000      1.00000000      1.00000000      1.00000000      1.00000000      1.00000000      1.00000000      1.00000000      1.00000000      1.00000000      1.00000000</v>
    <i name="NUPDOWN">     -1.00000000</i>
    <i type="logical" name="LSORBIT"> F  </i>
    <v name="SAXIS">      0.00000000      0.00000000      1.00000000</v>
    <i type="logical" name="LSPIRAL"> F  </i>
    <v name="QSPIRAL">      0.00000000      0.00000000      0.00000000</v>
    <i type="logical" name="LZEROZ"> F  </i>
   </separator>
   <separator name="electronic exchange-correlation" >
    <i type="logical" name="LASPH"> F  </i>
    <i type="logical" name="LMETAGGA"> F  </i>
   </separator>
   <separator name="electronic convergence" >
    <i type="int" name="NELM">    60</i>
    <i type="int" name="NELMDL">    -5</i>
    <i type="int" name="NELMIN">     2</i>
    <i name="ENINI">    400.00000000</i>
    <separator name="electronic convergence detail" >
     <i type="logical" name="LDIAG"> T  </i>
     <i type="logical" name="LSUBROT"> F  </i>
     <i name="WEIMIN">      0.00000000</i>
     <i name="EBREAK">      0.00000026</i>
     <i name="DEPER">      0.30000000</i>
     <i type="int" name="NRMM">     4</i>
     <i name="TIME">      0.40000000</i>
    </separator>
   </separator>
   <separator name="electronic mixer" >
    <i name="AMIX">      0.40000000</i>
    <i name="BMIX">      1.00000000</i>
    <i name="AMIN">      0.10000000</i>
    <i name="AMIX_MAG">      1.60000000</i>
    <i name="BMIX_MAG">      1.00000000</i>
    <separator name="electronic mixer details" >
     <i type="int" name="IMIX">     4</i>
     <i type="logical" name="MIXFIRST"> F  </i>
     <i type="int" name="MAXMIX">   -45</i>
     <i name="WC">    100.00000000</i>
     <i type="int" name="INIMIX">     1</i>
     <i type="int" name="MIXPRE">     1</i>
     <i type="int" name="MREMOVE">     5</i>
    </separator>
   </separator>
   <separator name="electronic dipolcorrection" >
    <i type="logical" name="LDIPOL"> F  </i>
    <i type="logical" name="LMONO"> F  </i>
    <i type="int" name="IDIPOL">     0</i>
    <i name="EPSILON">      1.00000000</i>
    <v name="DIPOL">   -100.00000000   -100.00000000   -100.00000000</v>
    <i name="EFIELD">      0.00000000</i>
   </separator>
  </separator>
  <separator name="grids" >
   <i type="int" name="NGX">    30</i>
   <i type="int" name="NGY">    30</i>
   <i type="int" name="NGZ">   126</i>
   <i type="int" name="NGXF">    60</i>
   <i type="int" name="NGYF">    60</i>
   <i type="int" name="NGZF">   252</i>
   <i type="logical" name="ADDGRID"> F  </i>
  </separator>
  <separator name="ionic" >
   <i type="int" name="NSW">     0</i>
   <i type="int" name="IBRION">    -1</i>
   <i type="int" name="ISIF">     2</i>
   <i name="PSTRESS">      0.00000000</i>
   <i name="EDIFFG">      0.00100000</i>
   <i type="int" name="NFREE">     0</i>
   <i name="POTIM">      0.50000000</i>
   <i name="SMASS">     -3.00000000</i>
   <i name="SCALEE">      1.00000000</i>
  </separator>
  <separator name="ionic md" >
   <i name="TEBEG">      0.00010000</i>
   <i name="TEEND">      0.00010000</i>
   <i type="int" name="NBLOCK">     1</i>
   <i type="int" name="KBLOCK">     1</i>
   <i type="int" name="NPACO">   256</i>
   <i name="APACO">     16.00000000</i>
  </separator>
  <separator name="symmetry" >
   <i type="int" name="ISYM">     2</i>
   <i name="SYMPREC">      0.00001000</i>
  </separator>
  <separator name="dos" >
   <i type="logical" name="LORBIT"> F  </i>
   <v name="RWIGS">     -1.00000000</v>
   <i type="int" name="NEDOS">   301</i>
   <i name="EMIN">     10.00000000</i>
   <i name="EMAX">    -10.00000000</i>
   <i name="EFERMI">      0.00000000</i>
  </separator>
  <separator name="writing" >
   <i type="int" name="NWRITE">     2</i>
   <i type="logical" name="LWAVE"> F  </i>
   <i type="logical" name="LCHARG"> F  </i>
   <i type="logical" name="LPARD"> F  </i>
   <i type="logical" name="LVTOT"> F  </i>
   <i type="logical" name="LVHAR"> F  </i>
   <i type="logical" name="LELF"> F  </i>
   <i type="logical" name="LOPTICS"> F  </i>
   <v name="STM">      0.00000000      0.00000000      0.00000000      0.00000000      0.00000000      0.00000000      0.00000000</v>
  </separator>
  <separator name="performance" >
   <i type="int" name="NPAR">    24</i>
   <i type="int" name="NSIM">     4</i>
   <i type="int" name="NBLK">    -1</i>
   <i type="logical" name="LPLANE"> T  </i>
   <i type="logical" name="LSCALAPACK"> F  </i>
   <i type="logical" name="LSCAAWARE"> F  </i>
   <i type="logical" name="LSCALU"> F  </i>
   <i type="logical" name="LASYNC"> F  </i>
   <i type="logical" name="LORBITALREAL"> F  </i>
  </separator>
  <separator name="miscellaneous" >
   <i type="int" name="IDIOT">     3</i>
   <i type="logical" name="LMUSIC"> F  </i>
   <v name="POMASS">    107.86800000</v>
   <v name="DARWINR">      0.00000000</v>
   <v name="DARWINV">      1.00000000</v>
   <i type="logical" name="LCORR"> T  </i>
  </separator>
  <i type="logical" name="GGA_COMPAT"> T  </i>
  <i type="logical" name="LBERRY"> F  </i>
  <i type="int" name="ICORELEVEL">     0</i>
  <i type="logical" name="LDAU"> F  </i>
  <i type="int" name="I_CONSTRAINED_M">     0</i>
  <separator name="electronic exchange-correlation" >
   <i type="string" name="GGA">--</i>
   <i type="int" name="VOSKOWN">     0</i>
   <i type="logical" name="LHFCALC"> F  </i>
   <i type="string" name="PRECFOCK"></i>
   <i type="logical" name="LSYMGRAD"> F  </i>
   <i type="logical" name="LHFONE"> F  </i>
   <i type="logical" name="LRHFCALC"> F  </i>
   <i type="logical" name="LTHOMAS"> F  </i>
   <i type="logical" name="LMODELHF"> F  </i>
   <i name="ENCUT4O">     -1.00000000</i>
   <i type="int" name="EXXOEP">     0</i>
   <i type="int" name="FOURORBIT">     0</i>
   <i name="AEXX">      0.00000000</i>
   <i name="HFALPHA">      0.00000000</i>
   <i name="MCALPHA">      0.00000000</i>
   <i name="ALDAX">      1.00000000</i>
   <i name="AGGAX">      1.00000000</i>
   <i name="ALDAC">      1.00000000</i>
   <i name="AGGAC">      1.00000000</i>
   <i type="int" name="NKREDX">     1</i>
   <i type="int" name="NKREDY">     1</i>
   <i type="int" name="NKREDZ">     1</i>
   <i type="logical" name="SHIFTRED"> F  </i>
   <i type="logical" name="ODDONLY"> F  </i>
   <i type="logical" name="EVENONLY"> F  </i>
   <i type="int" name="LMAXFOCK">     0</i>
   <i type="int" name="NMAXFOCKAE">     0</i>
   <i type="logical" name="LFOCKAEDFT"> F  </i>
   <i name="HFSCREEN">      0.00000000</i>
   <i name="HFSCREENC">      0.00000000</i>
   <i type="int" name="NBANDSGWLOW">     0</i>
  </separator>
  <separator name="vdW DFT" >
   <i type="logical" name="LUSE_VDW"> F  </i>
   <i name="Zab_VDW">     -0.84910000</i>
   <i name="PARAM1">      0.12340000</i>
   <i name="PARAM2">      1.00000000</i>
   <i name="PARAM3">      0.00000000</i>
  </separator>
  <separator name="model GW" >
   <i type="int" name="MODEL_GW">     0</i>
   <i name="MODEL_EPS0">     36.91898097</i>
   <i name="MODEL_ALPHA">      1.00000000</i>
  </separator>
  <separator name="linear response parameters" >
   <i type="logical" name="LEPSILON"> F  </i>
   <i type="logical" name="LRPA"> F  </i>
   <i type="logical" name="LNABLA"> F  </i>
   <i type="logical" name="LVEL"> F  </i>
   <i type="int" name="KINTER">     0</i>
   <i name="CSHIFT">      0.10000000</i>
   <i name="OMEGAMAX">     -1.00000000</i>
   <i name="DEG_THRESHOLD">      0.00200000</i>
  </separator>
  <separator name="orbital magnetization" >
   <i type="logical" name="NUCIND"> F  </i>
   <v name="MAGPOS">      0.00000000      0.00000000      0.00000000</v>
   <i type="logical" name="LNICSALL"> T  </i>
   <i type="logical" name="ORBITALMAG"> F  </i>
   <i type="logical" name="LMAGBLOCH"> F  </i>
   <i type="logical" name="LCHIMAG"> F  </i>
   <i type="logical" name="LGAUGE"> T  </i>
   <i type="int" name="MAGATOM">     0</i>
   <v name="MAGDIPOL">      0.00000000      0.00000000      0.00000000</v>
   <v name="AVECCONST">      0.00000000      0.00000000      0.00000000</v>
  </separator>
  <separator name="response functions" >
   <i type="logical" name="LADDER"> F  </i>
   <i type="logical" name="LFXC"> F  </i>
   <i type="logical" name="LHARTREE"> T  </i>
   <i type="int" name="IBSE">     0</i>
   <v type="int" name="KPOINT">    -1     0     0     0</v>
   <i type="logical" name="LTCTE"> F  </i>
   <i type="logical" name="LTETE"> F  </i>
   <i type="logical" name="LTRIPLET"> F  </i>
   <i type="logical" name="LFXCEPS"> F  </i>
   <i type="logical" name="LFXHEG"> F  </i>
   <i type="int" name="NATURALO">     0</i>
   <i type="logical" name="L2ORDER"> F  </i>
   <i type="logical" name="LUSEW"> F  </i>
   <i name="ENCUTGW">     -2.00000000</i>
   <i name="ENCUTGWSOFT">     -2.00000000</i>
   <i name="ENCUTLF">     -1.00000000</i>
   <i type="int" name="LMAXMP2">    -1</i>
   <i name="SCISSOR">      0.00000000</i>
   <i type="int" name="NOMEGA">     0</i>
   <i type="int" name="NOMEGAR">     0</i>
   <i type="int" name="NBANDSGW">    -1</i>
   <i type="int" name="NBANDSO">    -1</i>
   <i type="int" name="NBANDSV">    -1</i>
   <i type="int" name="NELM">     1</i>
   <i type="int" name="NELMHF">     1</i>
   <i type="int" name="DIM">     3</i>
   <i type="int" name="ANTIRES">     0</i>
   <i name="OMEGAMAX">    -30.00000000</i>
   <i name="OMEGAMIN">    -30.00000000</i>
   <i name="OMEGATL">   -200.00000000</i>
   <i type="int" name="OMEGAGRID">     0</i>
   <i name="CSHIFT">     -0.10000000</i>
   <i type="logical" name="SELFENERGY"> F  </i>
   <i type="logical" name="LSPECTRAL"> F  </i>
   <i type="logical" name="LSPECTRALGW"> F  </i>
   <i type="logical" name="LSINGLES"> F  </i>
   <i type="logical" name="LFERMIGW"> F  </i>
   <i type="logical" name="ODDONLYGW"> F  </i>
   <i type="logical" name="EVENONLYGW"> F  </i>
   <i type="int" name="NKREDLFX">     1</i>
   <i type="int" name="NKREDLFY">     1</i>
   <i type="int" name="NKREDLFZ">     1</i>
   <i type="int" name="MAXMEM">  1800</i>
   <i type="int" name="TELESCOPE">     0</i>
   <i type="int" name="TAUPAR">     1</i>
   <i type="int" name="OMEGAPAR">    -1</i>
   <i name="LAMBDA">      1.00000000</i>
  </separator>
  <separator name="External order field" >
   <i name="OFIELD_KAPPA">      0.00000000</i>
   <v name="OFIELD_K">      0.00000000      0.00000000      0.00000000</v>
   <i name="OFIELD_Q6_NEAR">      0.00000000</i>
   <i name="OFIELD_Q6_FAR">      0.00000000</i>
   <i name="OFIELD_A">      0.00000000</i>
  </separator>
 </parameters>
 <atominfo>
  <atoms>      12 </atoms>
  <types>       1 </types>
  <array name="atoms" >
   <dimension dim="1">ion</dimension>
   <field type="string">element</field>
   <field type="int">atomtype</field>
   <set>
    <rc><c>Ag</c><c>   1</c></rc>
    <rc><c>Ag</c><c>   1</c></rc>
    <rc><c>Ag</c><c>   1</c></rc>
    <rc><c>Ag</c><c>   1</c></rc>
    <rc><c>Ag</c><c>   1</c></rc>
    <rc><c>Ag</c><c>   1</c></rc>
    <rc><c>Ag</c><c>   1</c></rc>
    <rc><c>Ag</c><c>   1</c></rc>
    <rc><c>Ag</c><c>   1</c></rc>
    <rc><c>Ag</c><c>   1</c></rc>
    <rc><c>Ag</c><c>   1</c></rc>
    <rc><c>Ag</c><c>   1</c></rc>
   </set>
  </array>
  <array name="atomtypes" >
   <dimension dim="1">type</dimension>
   <field type="int">atomspertype</field>
   <field type="string">element</field>
   <field>mass</field>
   <field>valence</field>
   <field type="string">pseudopotential</field>
   <set>
    <rc><c>  12</c><c>Ag</c><c>    107.86800000</c><c>     11.00000000</c><c>  PAW_PBE Ag 02Apr2005                  </c></rc>
   </set>
  </array>
 </atominfo>
 <structure name="initialpos" >
  <crystal>
   <varray name="basis" >
    <v>       5.86474364       0.00000000       0.00000000 </v>
    <v>       2.93237182       5.07901698       0.00000000 </v>
    <v>       0.00000000       0.00000000      24.78854313 </v>
   </varray>
   <i name="volume">    738.37961946 </i>
   <varray name="rec_basis" >
    <v>       0.17051044      -0.09844425       0.00000000 </v>
    <v>       0.00000000       0.19688849       0.00000000 </v>
    <v>       0.00000000       0.00000000       0.04034122 </v>
   </varray>
  </crystal>
  <varray name="positions" >
   <v>       0.16666667       0.16666667       0.40398834 </v>
   <v>       0.66666667       0.16666667       0.40398834 </v>
   <v>       0.16666667       0.66666667       0.40398834 </v>
   <v>       0.66666667       0.66666667       0.40398834 </v>
   <v>       0.83333333       0.33333333       0.50000000 </v>
   <v>       0.33333333       0.33333333       0.50000000 </v>
   <v>       0.83333333       0.83333333       0.50000000 </v>
   <v>       0.33333333       0.83333333       0.50000000 </v>
   <v>       0.00000000       0.00000000       0.59601166 </v>
   <v>       0.50000000       0.00000000       0.59601166 </v>
   <v>       0.00000000       0.50000000       0.59601166 </v>
   <v>       0.50000000       0.50000000       0.59601166 </v>
  </varray>
 </structure>
 <calculation>
  <scstep>
   <time name="dav">    3.90    3.90</time>
   <time name="total">    4.00    4.01</time>
   <energy>
    <i name="alphaZ">    165.88112498 </i>
    <i name="ewald">  46346.47699606 </i>
    <i name="hartreedc"> -58813.98482815 </i>
    <i name="XCdc">   -129.38405519 </i>
    <i name="pawpsdc">  12041.54579192 </i>
    <i name="pawaedc"> -11488.19129077 </i>
    <i name="eentropy">     -0.00052149 </i>
    <i name="bandstr">    107.61510848 </i>
    <i name="atom">  12447.10114051 </i>
    <i name="e_fr_energy">    677.05946635 </i>
    <i name="e_wo_entrp">    677.05998785 </i>
    <i name="e_0_energy">    677.05964018 </i>
   </energy>
  </scstep>
  <scstep>
   <time name="dav">    3.88    3.91</time>
   <time name="total">    3.88    3.92</time>
   <energy>
    <i name="e_fr_energy">    -12.37235965 </i>
    <i name="e_wo_entrp">    -12.36866768 </i>
    <i name="e_0_energy">    -12.37112900 </i>
   </energy>
  </scstep>
  <scstep>
   <time name="dav">    4.06    4.06</time>
   <time name="total">    4.07    4.07</time>
   <energy>
    <i name="e_fr_energy">    -31.94836851 </i>
    <i name="e_wo_entrp">    -31.94813080 </i>
    <i name="e_0_energy">    -31.94828927 </i>
   </energy>
  </scstep>
  <scstep>
   <time name="dav">    4.01    4.01</time>
   <time name="total">    4.01    4.01</time>
   <energy>
    <i name="e_fr_energy">    -32.11480408 </i>
    <i name="e_wo_entrp">    -32.11452083 </i>
    <i name="e_0_energy">    -32.11470966 </i>
   </energy>
  </scstep>
  <scstep>
   <time name="dav">    4.30    4.30</time>
   <time name="total">    4.45    4.45</time>
   <energy>
    <i name="e_fr_energy">    -32.11724031 </i>
    <i name="e_wo_entrp">    -32.11695202 </i>
    <i name="e_0_energy">    -32.11714421 </i>
   </energy>
  </scstep>
  <scstep>
   <time name="dav">    4.55    4.55</time>
   <time name="total">    4.74    4.76</time>
   <energy>
    <i name="e_fr_energy">    -29.90266146 </i>
    <i name="e_wo_entrp">    -29.89799152 </i>
    <i name="e_0_energy">    -29.90110482 </i>
   </energy>
  </scstep>
  <scstep>
   <time name="dav">    4.67    4.67</time>
   <time name="total">    4.87    4.87</time>
   <energy>
    <i name="e_fr_energy">    -29.83089119 </i>
    <i name="e_wo_entrp">    -29.82409725 </i>
    <i name="e_0_energy">    -29.82862654 </i>
   </energy>
  </scstep>
  <scstep>
   <time name="dav">    4.45    4.46</time>
   <time name="total">    4.65    4.66</time>
   <energy>
    <i name="e_fr_energy">    -29.80860316 </i>
    <i name="e_wo_entrp">    -29.80207186 </i>
    <i name="e_0_energy">    -29.80642606 </i>
   </energy>
  </scstep>
  <scstep>
   <time name="dav">    4.87    4.87</time>
   <time name="total">    5.06    5.06</time>
   <energy>
    <i name="e_fr_energy">    -29.80838132 </i>
    <i name="e_wo_entrp">    -29.80196125 </i>
    <i name="e_0_energy">    -29.80624130 </i>
   </energy>
  </scstep>
  <scstep>
   <time name="dav">    4.28    4.28</time>
   <time name="total">    4.48    4.48</time>
   <energy>
    <i name="e_fr_energy">    -29.80815454 </i>
    <i name="e_wo_entrp">    -29.80168296 </i>
    <i name="e_0_energy">    -29.80599735 </i>
   </energy>
  </scstep>
  <scstep>
   <time name="dav">    3.76    3.76</time>
   <time name="total">    3.96    3.98</time>
   <energy>
    <i name="e_fr_energy">    -29.80794856 </i>
    <i name="e_wo_entrp">    -29.80148349 </i>
    <i name="e_0_energy">    -29.80579354 </i>
   </energy>
  </scstep>
  <scstep>
   <time name="dav">    3.69    3.70</time>
   <time name="total">    3.72    3.73</time>
   <energy>
    <i name="alphaZ">    165.88112498 </i>
    <i name="ewald">  46346.47699606 </i>
    <i name="hartreedc"> -58728.04779015 </i>
    <i name="XCdc">   -134.06966355 </i>
    <i name="pawpsdc">  13074.08092559 </i>
    <i name="pawaedc"> -12545.74404774 </i>
    <i name="eentropy">     -0.00643057 </i>
    <i name="bandstr">   -655.48026401 </i>
    <i name="atom">  12447.10114051 </i>
    <i name="e_fr_energy">    -29.80800888 </i>
    <i name="e_wo_entrp">    -29.80157831 </i>
    <i name="e_0_energy">    -29.80586535 </i>
   </energy>
  </scstep>
  <structure>
   <crystal>
    <varray name="basis" >
     <v>       5.86474364       0.00000000       0.00000000 </v>
     <v>       2.93237182       5.07901698       0.00000000 </v>
     <v>       0.00000000       0.00000000      24.78854313 </v>
    </varray>
    <i name="volume">    738.37961946 </i>
    <varray name="rec_basis" >
     <v>       0.17051044      -0.09844425       0.00000000 </v>
     <v>       0.00000000       0.19688849       0.00000000 </v>
     <v>       0.00000000       0.00000000       0.04034122 </v>
    </varray>
   </crystal>
   <varray name="positions" >
    <v>       0.16666667       0.16666667       0.40398834 </v>
    <v>       0.66666667       0.16666667       0.40398834 </v>
    <v>       0.16666667       0.66666667       0.40398834 </v>
    <v>       0.66666667       0.66666667       0.40398834 </v>
    <v>       0.83333333       0.33333333       0.50000000 </v>
    <v>       0.33333333       0.33333333       0.50000000 </v>
    <v>       0.83333333       0.83333333       0.50000000 </v>
    <v>       0.33333333       0.83333333       0.50000000 </v>
    <v>       0.00000000       0.00000000       0.59601166 </v>
    <v>       0.50000000       0.00000000       0.59601166 </v>
    <v>       0.00000000       0.50000000       0.59601166 </v>
    <v>       0.50000000       0.50000000       0.59601166 </v>
   </varray>
  </structure>
  <varray name="forces" >
   <v>      -0.00000000       0.00000000       0.02476903 </v>
   <v>       0.00000000       0.00000000       0.02476903 </v>
   <v>      -0.00000000       0.00000000       0.02476903 </v>
   <v>       0.00000000       0.00000000       0.02476903 </v>
   <v>      -0.00000000       0.00000000       0.00000000 </v>
   <v>       0.00000000      -0.00000000       0.00000000 </v>
   <v>      -0.00000000      -0.00000000       0.00000000 </v>
   <v>       0.00000000      -0.00000000       0.00000000 </v>
   <v>       0.00000000       0.00000000      -0.02476903 </v>
   <v>      -0.00000000       0.00000000      -0.02476903 </v>
   <v>       0.00000000       0.00000000      -0.02476903 </v>
   <v>      -0.00000000       0.00000000      -0.02476903 </v>
  </varray>
  <varray name="stress" >
   <v>      -8.08351529       0.00000000       0.00000000 </v>
   <v>       0.00000000      -8.08351530       0.00000000 </v>
   <v>       0.00000000       0.00000000      -1.88621402 </v>
  </varray>
  <energy>
   <i name="e_fr_energy">    -29.80800888 </i>
   <i name="e_wo_entrp">    -29.80586535 </i>
   <i name="e_0_energy">     -0.00643057 </i>
  </energy>
  <time name="totalsc">   58.63   58.78</time>
  <eigenvalues>
   <array>
    <dimension dim="1">band</dimension>
    <dimension dim="2">kpoint</dimension>
    <dimension dim="3">spin</dimension>
    <field>eigene</field>
    <field>occ</field>
    <set>
     <set comment="spin 1">
      <set comment="kpoint 1">
       <r>   -7.8001    1.0000 </r>
       <r>   -6.8742    1.0000 </r>
       <r>   -6.8453    1.0000 </r>
       <r>   -6.8453    1.0000 </r>
       <r>   -6.8453    1.0000 </r>
       <r>   -6.7642    1.0000 </r>
       <r>   -6.7080    1.0000 </r>
       <r>   -6.7080    1.0000 </r>
       <r>   -6.7080    1.0000 </r>
       <r>   -6.6041    1.0000 </r>
       <r>   -6.6041    1.0000 </r>
       <r>   -6.6041    1.0000 </r>
       <r>   -6.4143    1.0000 </r>
       <r>   -6.4143    1.0000 </r>
       <r>   -6.4143    1.0000 </r>
       <r>   -5.7558    1.0000 </r>
       <r>   -5.7558    1.0000 </r>
       <r>   -5.7558    1.0000 </r>
       <r>   -5.6002    1.0000 </r>
       <r>   -5.6002    1.0000 </r>
       <r>   -5.6002    1.0000 </r>
       <r>   -5.5222    1.0000 </r>
       <r>   -5.4877    1.0000 </r>
       <r>   -5.4877    1.0000 </r>
       <r>   -5.3456    1.0000 </r>
       <r>   -5.3456    1.0000 </r>
       <r>   -5.2917    1.0000 </r>
       <r>   -5.2917    1.0000 </r>
       <r>   -5.2917    1.0000 </r>
       <r>   -5.2203    1.0000 </r>
       <r>   -5.2203    1.0000 </r>
       <r>   -4.8559    1.0000 </r>
       <r>   -4.7251    1.0000 </r>
       <r>   -4.7251    1.0000 </r>
       <r>   -4.7251    1.0000 </r>
       <r>   -4.5612    1.0000 </r>
       <r>   -4.5612    1.0000 </r>
       <r>   -4.5608    1.0000 </r>
       <r>   -4.5608    1.0000 </r>
       <r>   -4.5608    1.0000 </r>
       <r>   -4.2993    1.0000 </r>
       <r>   -4.2993    1.0000 </r>
       <r>   -4.2993    1.0000 </r>
       <r>   -4.2839    1.0000 </r>
       <r>   -4.2839    1.0000 </r>
       <r>   -4.0076    1.0000 </r>
       <r>   -4.0076    1.0000 </r>
       <r>   -4.0076    1.0000 </r>
       <r>   -3.9467    1.0000 </r>
       <r>   -3.9467    1.0000 </r>
       <r>   -3.9217    1.0000 </r>
       <r>   -3.9217    1.0000 </r>
       <r>   -3.9217    1.0000 </r>
       <r>   -3.8256    1.0000 </r>
       <r>   -3.8256    1.0000 </r>
       <r>   -3.8256    1.0000 </r>
       <r>   -3.6702    1.0000 </r>
       <r>   -3.6702    1.0000 </r>
       <r>   -3.6702    1.0000 </r>
       <r>   -3.6428    1.0000 </r>
       <r>   -3.6428    1.0000 </r>
       <r>   -3.6428    1.0000 </r>
       <r>   -2.2300    1.0000 </r>
       <r>   -0.5412   -0.0000 </r>
       <r>   -0.5412   -0.0000 </r>
       <r>   -0.5412   -0.0000 </r>
       <r>   -0.4431   -0.0000 </r>
       <r>    0.3168   -0.0000 </r>
       <r>    0.3168   -0.0000 </r>
       <r>    0.3168   -0.0000 </r>
       <r>    0.7094   -0.0000 </r>
       <r>    0.7094   -0.0000 </r>
       <r>    0.7094   -0.0000 </r>
       <r>    3.0008    0.0000 </r>
       <r>    3.0094    0.0000 </r>
       <r>    3.0094    0.0000 </r>
       <r>    3.0094    0.0000 </r>
       <r>    3.3037    0.0000 </r>
       <r>    3.8238    0.0000 </r>
       <r>    3.8238    0.0000 </r>
       <r>    3.8238    0.0000 </r>
       <r>    3.8669    0.0000 </r>
       <r>    4.6053    0.0000 </r>
       <r>    4.6053    0.0000 </r>
       <r>    4.6053    0.0000 </r>
       <r>    4.8227    0.0000 </r>
       <r>    5.0760    0.0000 </r>
       <r>    6.9016    0.0000 </r>
       <r>    6.9473    0.0000 </r>
       <r>    7.0245    0.0000 </r>
       <r>    7.0245    0.0000 </r>
       <r>    7.0245    0.0000 </r>
       <r>    7.4388    0.0000 </r>
       <r>    7.4388    0.0000 </r>
       <r>    7.4388    0.0000 </r>
       <r>    8.4389    0.0000 </r>
      </set>
      <set comment="kpoint 2">
       <r>   -7.7190    1.0000 </r>
       <r>   -6.8209    1.0000 </r>
       <r>   -6.8204    1.0000 </r>
       <r>   -6.7953    1.0000 </r>
       <r>   -6.7953    1.0000 </r>
       <r>   -6.6926    1.0000 </r>
       <r>   -6.6808    1.0000 </r>
       <r>   -6.6716    1.0000 </r>
       <r>   -6.6716    1.0000 </r>
       <r>   -6.5823    1.0000 </r>
       <r>   -6.5745    1.0000 </r>
       <r>   -6.5745    1.0000 </r>
       <r>   -6.3873    1.0000 </r>
       <r>   -6.3606    1.0000 </r>
       <r>   -6.3606    1.0000 </r>
       <r>   -5.7535    1.0000 </r>
       <r>   -5.7535    1.0000 </r>
       <r>   -5.7362    1.0000 </r>
       <r>   -5.5800    1.0000 </r>
       <r>   -5.5782    1.0000 </r>
       <r>   -5.5782    1.0000 </r>
       <r>   -5.5216    1.0000 </r>
       <r>   -5.5175    1.0000 </r>
       <r>   -5.4487    1.0000 </r>
       <r>   -5.3919    1.0000 </r>
       <r>   -5.3151    1.0000 </r>
       <r>   -5.3111    1.0000 </r>
       <r>   -5.3111    1.0000 </r>
       <r>   -5.2799    1.0000 </r>
       <r>   -5.2326    1.0000 </r>
       <r>   -5.1798    1.0000 </r>
       <r>   -4.9226    1.0000 </r>
       <r>   -4.7639    1.0000 </r>
       <r>   -4.7592    1.0000 </r>
       <r>   -4.7592    1.0000 </r>
       <r>   -4.5900    1.0000 </r>
       <r>   -4.5900    1.0000 </r>
       <r>   -4.5765    1.0000 </r>
       <r>   -4.5581    1.0000 </r>
       <r>   -4.5351    1.0000 </r>
       <r>   -4.3309    1.0000 </r>
       <r>   -4.3293    1.0000 </r>
       <r>   -4.3276    1.0000 </r>
       <r>   -4.3276    1.0000 </r>
       <r>   -4.2834    1.0000 </r>
       <r>   -4.0377    1.0000 </r>
       <r>   -4.0377    1.0000 </r>
       <r>   -4.0205    1.0000 </r>
       <r>   -3.9703    1.0000 </r>
       <r>   -3.9647    1.0000 </r>
       <r>   -3.9446    1.0000 </r>
       <r>   -3.9442    1.0000 </r>
       <r>   -3.9442    1.0000 </r>
       <r>   -3.8936    1.0000 </r>
       <r>   -3.8936    1.0000 </r>
       <r>   -3.8681    1.0000 </r>
       <r>   -3.7380    1.0000 </r>
       <r>   -3.7380    1.0000 </r>
       <r>   -3.7179    1.0000 </r>
       <r>   -3.7121    1.0000 </r>
       <r>   -3.7121    1.0000 </r>
       <r>   -3.6939    1.0000 </r>
       <r>   -2.1268    1.0000 </r>
       <r>   -1.4232    1.0000 </r>
       <r>   -0.7144   -0.0092 </r>
       <r>   -0.7144   -0.0092 </r>
       <r>   -0.2836   -0.0000 </r>
       <r>   -0.2549   -0.0000 </r>
       <r>    0.2831   -0.0000 </r>
       <r>    0.2831   -0.0000 </r>
       <r>    1.0819   -0.0000 </r>
       <r>    1.0819   -0.0000 </r>
       <r>    1.3628   -0.0000 </r>
       <r>    3.0669    0.0000 </r>
       <r>    3.1695    0.0000 </r>
       <r>    3.1695    0.0000 </r>
       <r>    3.1943    0.0000 </r>
       <r>    3.3782    0.0000 </r>
       <r>    3.7290    0.0000 </r>
       <r>    3.7290    0.0000 </r>
       <r>    3.8849    0.0000 </r>
       <r>    3.9340    0.0000 </r>
       <r>    4.8962    0.0000 </r>
       <r>    4.8984    0.0000 </r>
       <r>    4.8984    0.0000 </r>
       <r>    5.0916    0.0000 </r>
       <r>    5.1387    0.0000 </r>
       <r>    6.6535    0.0000 </r>
       <r>    6.8209    0.0000 </r>
       <r>    6.8209    0.0000 </r>
       <r>    6.9690    0.0000 </r>
       <r>    7.0180    0.0000 </r>
       <r>    7.3415    0.0000 </r>
       <r>    7.7517    0.0000 </r>
       <r>    7.7517    0.0000 </r>
       <r>    7.9894    0.0000 </r>
      </set>
      <set comment="kpoint 3">
       <r>   -7.4860    1.0000 </r>
       <r>   -6.7520    1.0000 </r>
       <r>   -6.6758    1.0000 </r>
       <r>   -6.6522    1.0000 </r>
       <r>   -6.6522    1.0000 </r>
       <r>   -6.6081    1.0000 </r>
       <r>   -6.5770    1.0000 </r>
       <r>   -6.5769    1.0000 </r>
       <r>   -6.5150    1.0000 </r>
       <r>   -6.4953    1.0000 </r>
       <r>   -6.4834    1.0000 </r>
       <r>   -6.4834    1.0000 </r>
       <r>   -6.3100    1.0000 </r>
       <r>   -6.2062    1.0000 </r>
       <r>   -6.2062    1.0000 </r>
       <r>   -5.7595    1.0000 </r>
       <r>   -5.7595    1.0000 </r>
       <r>   -5.6802    1.0000 </r>
       <r>   -5.5998    1.0000 </r>
       <r>   -5.5478    1.0000 </r>
       <r>   -5.5242    1.0000 </r>
       <r>   -5.5104    1.0000 </r>
       <r>   -5.5104    1.0000 </r>
       <r>   -5.4905    1.0000 </r>
       <r>   -5.3578    1.0000 </r>
       <r>   -5.3578    1.0000 </r>
       <r>   -5.3371    1.0000 </r>
       <r>   -5.2471    1.0000 </r>
       <r>   -5.2463    1.0000 </r>
       <r>   -5.2316    1.0000 </r>
       <r>   -5.0616    1.0000 </r>
       <r>   -5.0510    1.0000 </r>
       <r>   -4.8816    1.0000 </r>
       <r>   -4.8798    1.0000 </r>
       <r>   -4.8798    1.0000 </r>
       <r>   -4.6583    1.0000 </r>
       <r>   -4.6583    1.0000 </r>
       <r>   -4.6074    1.0000 </r>
       <r>   -4.5761    1.0000 </r>
       <r>   -4.5552    1.0000 </r>
       <r>   -4.4398    1.0000 </r>
       <r>   -4.4222    1.0000 </r>
       <r>   -4.4222    1.0000 </r>
       <r>   -4.4104    1.0000 </r>
       <r>   -4.2860    1.0000 </r>
       <r>   -4.1636    1.0000 </r>
       <r>   -4.1636    1.0000 </r>
       <r>   -4.1254    1.0000 </r>
       <r>   -4.1254    1.0000 </r>
       <r>   -4.1173    1.0000 </r>
       <r>   -4.0903    1.0000 </r>
       <r>   -4.0181    1.0000 </r>
       <r>   -4.0181    1.0000 </r>
       <r>   -3.9671    1.0000 </r>
       <r>   -3.9391    1.0000 </r>
       <r>   -3.9214    1.0000 </r>
       <r>   -3.8987    1.0000 </r>
       <r>   -3.8987    1.0000 </r>
       <r>   -3.8626    1.0000 </r>
       <r>   -3.8090    1.0000 </r>
       <r>   -3.7655    1.0000 </r>
       <r>   -3.7655    1.0000 </r>
       <r>   -2.6184    1.0000 </r>
       <r>   -1.8473    1.0000 </r>
       <r>   -1.2739    1.0000 </r>
       <r>   -0.9411    0.7500 </r>
       <r>   -0.9410    0.7500 </r>
       <r>    0.1527   -0.0000 </r>
       <r>    0.2357   -0.0000 </r>
       <r>    0.2357   -0.0000 </r>
       <r>    1.1570   -0.0000 </r>
       <r>    1.7814   -0.0000 </r>
       <r>    1.7814   -0.0000 </r>
       <r>    3.2649    0.0000 </r>
       <r>    3.3330    0.0000 </r>
       <r>    3.3330    0.0000 </r>
       <r>    3.6018    0.0000 </r>
       <r>    3.8899    0.0000 </r>
       <r>    4.0529    0.0000 </r>
       <r>    4.0529    0.0000 </r>
       <r>    4.1355    0.0000 </r>
       <r>    4.3891    0.0000 </r>
       <r>    5.1165    0.0000 </r>
       <r>    5.3285    0.0000 </r>
       <r>    5.3490    0.0000 </r>
       <r>    5.3490    0.0000 </r>
       <r>    5.5141    0.0000 </r>
       <r>    6.3846    0.0000 </r>
       <r>    6.8258    0.0000 </r>
       <r>    6.8258    0.0000 </r>
       <r>    6.9004    0.0000 </r>
       <r>    7.1716    0.0000 </r>
       <r>    7.2299    0.0000 </r>
       <r>    7.2562    0.0000 </r>
       <r>    7.5466    0.0000 </r>
       <r>    7.5466    0.0000 </r>
      </set>
      <set comment="kpoint 4">
       <r>   -7.1428    1.0000 </r>
       <r>   -6.6642    1.0000 </r>
       <r>   -6.5228    1.0000 </r>
       <r>   -6.4974    1.0000 </r>
       <r>   -6.4819    1.0000 </r>
       <r>   -6.4819    1.0000 </r>
       <r>   -6.4106    1.0000 </r>
       <r>   -6.4106    1.0000 </r>
       <r>   -6.3900    1.0000 </r>
       <r>   -6.3512    1.0000 </r>
       <r>   -6.3512    1.0000 </r>
       <r>   -6.2409    1.0000 </r>
       <r>   -6.1934    1.0000 </r>
       <r>   -5.9841    1.0000 </r>
       <r>   -5.9841    1.0000 </r>
       <r>   -5.7782    1.0000 </r>
       <r>   -5.7782    1.0000 </r>
       <r>   -5.7487    1.0000 </r>
       <r>   -5.6658    1.0000 </r>
       <r>   -5.5980    1.0000 </r>
       <r>   -5.4848    1.0000 </r>
       <r>   -5.4623    1.0000 </r>
       <r>   -5.4323    1.0000 </r>
       <r>   -5.4323    1.0000 </r>
       <r>   -5.3920    1.0000 </r>
       <r>   -5.3920    1.0000 </r>
       <r>   -5.2068    1.0000 </r>
       <r>   -5.1974    1.0000 </r>
       <r>   -5.1887    1.0000 </r>
       <r>   -5.1629    1.0000 </r>
       <r>   -5.1087    1.0000 </r>
       <r>   -5.0846    1.0000 </r>
       <r>   -5.0846    1.0000 </r>
       <r>   -5.0598    1.0000 </r>
       <r>   -4.8752    1.0000 </r>
       <r>   -4.7270    1.0000 </r>
       <r>   -4.7270    1.0000 </r>
       <r>   -4.7180    1.0000 </r>
       <r>   -4.6112    1.0000 </r>
       <r>   -4.5802    1.0000 </r>
       <r>   -4.5802    1.0000 </r>
       <r>   -4.5779    1.0000 </r>
       <r>   -4.5541    1.0000 </r>
       <r>   -4.5292    1.0000 </r>
       <r>   -4.5292    1.0000 </r>
       <r>   -4.5149    1.0000 </r>
       <r>   -4.3672    1.0000 </r>
       <r>   -4.3225    1.0000 </r>
       <r>   -4.3225    1.0000 </r>
       <r>   -4.2943    1.0000 </r>
       <r>   -4.2460    1.0000 </r>
       <r>   -4.1672    1.0000 </r>
       <r>   -4.1672    1.0000 </r>
       <r>   -4.1215    1.0000 </r>
       <r>   -4.0721    1.0000 </r>
       <r>   -3.9326    1.0000 </r>
       <r>   -3.9326    1.0000 </r>
       <r>   -3.9315    1.0000 </r>
       <r>   -3.8883    1.0000 </r>
       <r>   -3.7730    1.0000 </r>
       <r>   -3.7730    1.0000 </r>
       <r>   -3.7324    1.0000 </r>
       <r>   -3.6644    1.0000 </r>
       <r>   -2.2126    1.0000 </r>
       <r>   -1.4411    1.0000 </r>
       <r>   -1.0650    1.0253 </r>
       <r>   -1.0650    1.0253 </r>
       <r>    0.1999   -0.0000 </r>
       <r>    0.1999   -0.0000 </r>
       <r>    0.3941   -0.0000 </r>
       <r>    0.7856   -0.0000 </r>
       <r>    2.2872    0.0000 </r>
       <r>    2.2872    0.0000 </r>
       <r>    3.3120    0.0000 </r>
       <r>    3.5945    0.0000 </r>
       <r>    3.7255    0.0000 </r>
       <r>    3.7255    0.0000 </r>
       <r>    3.9738    0.0000 </r>
       <r>    4.4728    0.0000 </r>
       <r>    4.8040    0.0000 </r>
       <r>    4.8040    0.0000 </r>
       <r>    5.3334    0.0000 </r>
       <r>    5.4830    0.0000 </r>
       <r>    5.6180    0.0000 </r>
       <r>    5.6180    0.0000 </r>
       <r>    5.6491    0.0000 </r>
       <r>    5.7507    0.0000 </r>
       <r>    6.0324    0.0000 </r>
       <r>    6.3132    0.0000 </r>
       <r>    7.1274    0.0000 </r>
       <r>    7.1274    0.0000 </r>
       <r>    7.2135    0.0000 </r>
       <r>    7.2887    0.0000 </r>
       <r>    7.2887    0.0000 </r>
       <r>    7.4186    0.0000 </r>
       <r>    7.5104    0.0000 </r>
      </set>
      <set comment="kpoint 5">
       <r>   -6.8016    1.0000 </r>
       <r>   -6.6357    1.0000 </r>
       <r>   -6.4493    1.0000 </r>
       <r>   -6.4096    1.0000 </r>
       <r>   -6.3782    1.0000 </r>
       <r>   -6.3782    1.0000 </r>
       <r>   -6.2692    1.0000 </r>
       <r>   -6.2692    1.0000 </r>
       <r>   -6.2109    1.0000 </r>
       <r>   -6.1706    1.0000 </r>
       <r>   -6.1706    1.0000 </r>
       <r>   -6.0759    1.0000 </r>
       <r>   -6.0604    1.0000 </r>
       <r>   -5.9405    1.0000 </r>
       <r>   -5.8843    1.0000 </r>
       <r>   -5.8843    1.0000 </r>
       <r>   -5.7197    1.0000 </r>
       <r>   -5.6629    1.0000 </r>
       <r>   -5.6629    1.0000 </r>
       <r>   -5.5758    1.0000 </r>
       <r>   -5.5758    1.0000 </r>
       <r>   -5.5650    1.0000 </r>
       <r>   -5.4884    1.0000 </r>
       <r>   -5.4350    1.0000 </r>
       <r>   -5.2493    1.0000 </r>
       <r>   -5.2493    1.0000 </r>
       <r>   -5.2174    1.0000 </r>
       <r>   -5.2174    1.0000 </r>
       <r>   -5.1482    1.0000 </r>
       <r>   -5.1468    1.0000 </r>
       <r>   -5.1371    1.0000 </r>
       <r>   -5.1252    1.0000 </r>
       <r>   -5.0397    1.0000 </r>
       <r>   -4.9100    1.0000 </r>
       <r>   -4.9030    1.0000 </r>
       <r>   -4.9030    1.0000 </r>
       <r>   -4.8397    1.0000 </r>
       <r>   -4.8397    1.0000 </r>
       <r>   -4.8164    1.0000 </r>
       <r>   -4.7367    1.0000 </r>
       <r>   -4.6975    1.0000 </r>
       <r>   -4.6628    1.0000 </r>
       <r>   -4.6628    1.0000 </r>
       <r>   -4.6377    1.0000 </r>
       <r>   -4.6061    1.0000 </r>
       <r>   -4.5814    1.0000 </r>
       <r>   -4.5320    1.0000 </r>
       <r>   -4.5033    1.0000 </r>
       <r>   -4.5033    1.0000 </r>
       <r>   -4.4441    1.0000 </r>
       <r>   -4.3995    1.0000 </r>
       <r>   -4.3653    1.0000 </r>
       <r>   -4.2967    1.0000 </r>
       <r>   -4.2425    1.0000 </r>
       <r>   -4.2171    1.0000 </r>
       <r>   -4.2171    1.0000 </r>
       <r>   -3.9364    1.0000 </r>
       <r>   -3.9364    1.0000 </r>
       <r>   -3.9233    1.0000 </r>
       <r>   -3.9129    1.0000 </r>
       <r>   -3.7700    1.0000 </r>
       <r>   -3.7700    1.0000 </r>
       <r>   -3.4150    1.0000 </r>
       <r>   -2.9301    1.0000 </r>
       <r>   -1.1118    1.0075 </r>
       <r>   -1.1118    1.0075 </r>
       <r>   -0.9333    0.6925 </r>
       <r>   -0.3234   -0.0000 </r>
       <r>    0.1822   -0.0000 </r>
       <r>    0.1822   -0.0000 </r>
       <r>    1.5516   -0.0000 </r>
       <r>    2.4083    0.0000 </r>
       <r>    2.4114    0.0000 </r>
       <r>    2.4114    0.0000 </r>
       <r>    4.0558    0.0000 </r>
       <r>    4.4930    0.0000 </r>
       <r>    4.6480    0.0000 </r>
       <r>    4.6549    0.0000 </r>
       <r>    4.6549    0.0000 </r>
       <r>    4.9480    0.0000 </r>
       <r>    5.1544    0.0000 </r>
       <r>    5.2248    0.0000 </r>
       <r>    5.2248    0.0000 </r>
       <r>    5.5620    0.0000 </r>
       <r>    5.8187    0.0000 </r>
       <r>    5.8187    0.0000 </r>
       <r>    5.9935    0.0000 </r>
       <r>    6.1055    0.0000 </r>
       <r>    6.4249    0.0000 </r>
       <r>    6.4249    0.0000 </r>
       <r>    6.6362    0.0000 </r>
       <r>    6.6981    0.0000 </r>
       <r>    7.1651    0.0000 </r>
       <r>    7.1651    0.0000 </r>
       <r>    7.5701    0.0000 </r>
       <r>    7.5701    0.0000 </r>
      </set>
      <set comment="kpoint 6">
       <r>   -7.5615    1.0000 </r>
       <r>   -6.7462    1.0000 </r>
       <r>   -6.7462    1.0000 </r>
       <r>   -6.7205    1.0000 </r>
       <r>   -6.6787    1.0000 </r>
       <r>   -6.6178    1.0000 </r>
       <r>   -6.6178    1.0000 </r>
       <r>   -6.6036    1.0000 </r>
       <r>   -6.5573    1.0000 </r>
       <r>   -6.5342    1.0000 </r>
       <r>   -6.5342    1.0000 </r>
       <r>   -6.4995    1.0000 </r>
       <r>   -6.3076    1.0000 </r>
       <r>   -6.3076    1.0000 </r>
       <r>   -6.2329    1.0000 </r>
       <r>   -5.7707    1.0000 </r>
       <r>   -5.7198    1.0000 </r>
       <r>   -5.7198    1.0000 </r>
       <r>   -5.5760    1.0000 </r>
       <r>   -5.5380    1.0000 </r>
       <r>   -5.5380    1.0000 </r>
       <r>   -5.5339    1.0000 </r>
       <r>   -5.5250    1.0000 </r>
       <r>   -5.4762    1.0000 </r>
       <r>   -5.3702    1.0000 </r>
       <r>   -5.3665    1.0000 </r>
       <r>   -5.2887    1.0000 </r>
       <r>   -5.2887    1.0000 </r>
       <r>   -5.2683    1.0000 </r>
       <r>   -5.2403    1.0000 </r>
       <r>   -5.0996    1.0000 </r>
       <r>   -5.0132    1.0000 </r>
       <r>   -4.8433    1.0000 </r>
       <r>   -4.8433    1.0000 </r>
       <r>   -4.8302    1.0000 </r>
       <r>   -4.6667    1.0000 </r>
       <r>   -4.6163    1.0000 </r>
       <r>   -4.5822    1.0000 </r>
       <r>   -4.5822    1.0000 </r>
       <r>   -4.5365    1.0000 </r>
       <r>   -4.3917    1.0000 </r>
       <r>   -4.3917    1.0000 </r>
       <r>   -4.3885    1.0000 </r>
       <r>   -4.3821    1.0000 </r>
       <r>   -4.3086    1.0000 </r>
       <r>   -4.1293    1.0000 </r>
       <r>   -4.0980    1.0000 </r>
       <r>   -4.0980    1.0000 </r>
       <r>   -4.0412    1.0000 </r>
       <r>   -4.0412    1.0000 </r>
       <r>   -4.0299    1.0000 </r>
       <r>   -3.9750    1.0000 </r>
       <r>   -3.9750    1.0000 </r>
       <r>   -3.9583    1.0000 </r>
       <r>   -3.9496    1.0000 </r>
       <r>   -3.9372    1.0000 </r>
       <r>   -3.8936    1.0000 </r>
       <r>   -3.8294    1.0000 </r>
       <r>   -3.8294    1.0000 </r>
       <r>   -3.7782    1.0000 </r>
       <r>   -3.7730    1.0000 </r>
       <r>   -3.7730    1.0000 </r>
       <r>   -1.9363    1.0000 </r>
       <r>   -1.8864    1.0000 </r>
       <r>   -1.8864    1.0000 </r>
       <r>   -0.6299   -0.0003 </r>
       <r>   -0.6298   -0.0003 </r>
       <r>   -0.0048   -0.0000 </r>
       <r>    0.0134   -0.0000 </r>
       <r>    0.6967   -0.0000 </r>
       <r>    1.1844   -0.0000 </r>
       <r>    1.5275   -0.0000 </r>
       <r>    1.5275   -0.0000 </r>
       <r>    3.1258    0.0000 </r>
       <r>    3.1989    0.0000 </r>
       <r>    3.4559    0.0000 </r>
       <r>    3.4559    0.0000 </r>
       <r>    3.5273    0.0000 </r>
       <r>    4.0347    0.0000 </r>
       <r>    4.0683    0.0000 </r>
       <r>    4.3706    0.0000 </r>
       <r>    4.3706    0.0000 </r>
       <r>    4.8213    0.0000 </r>
       <r>    5.0431    0.0000 </r>
       <r>    5.1899    0.0000 </r>
       <r>    5.1899    0.0000 </r>
       <r>    5.2650    0.0000 </r>
       <r>    6.8574    0.0000 </r>
       <r>    6.8574    0.0000 </r>
       <r>    7.0509    0.0000 </r>
       <r>    7.0509    0.0000 </r>
       <r>    7.1040    0.0000 </r>
       <r>    7.1592    0.0000 </r>
       <r>    7.2875    0.0000 </r>
       <r>    7.5654    0.0000 </r>
       <r>    7.5716    0.0000 </r>
      </set>
      <set comment="kpoint 7">
       <r>   -7.2688    1.0000 </r>
       <r>   -6.6609    1.0000 </r>
       <r>   -6.5780    1.0000 </r>
       <r>   -6.5486    1.0000 </r>
       <r>   -6.5304    1.0000 </r>
       <r>   -6.5297    1.0000 </r>
       <r>   -6.4995    1.0000 </r>
       <r>   -6.4545    1.0000 </r>
       <r>   -6.4475    1.0000 </r>
       <r>   -6.4384    1.0000 </r>
       <r>   -6.3688    1.0000 </r>
       <r>   -6.3250    1.0000 </r>
       <r>   -6.2085    1.0000 </r>
       <r>   -6.1292    1.0000 </r>
       <r>   -6.0319    1.0000 </r>
       <r>   -5.8012    1.0000 </r>
       <r>   -5.7236    1.0000 </r>
       <r>   -5.6877    1.0000 </r>
       <r>   -5.6561    1.0000 </r>
       <r>   -5.6132    1.0000 </r>
       <r>   -5.5279    1.0000 </r>
       <r>   -5.4735    1.0000 </r>
       <r>   -5.4528    1.0000 </r>
       <r>   -5.4464    1.0000 </r>
       <r>   -5.4186    1.0000 </r>
       <r>   -5.3388    1.0000 </r>
       <r>   -5.2785    1.0000 </r>
       <r>   -5.2525    1.0000 </r>
       <r>   -5.2193    1.0000 </r>
       <r>   -5.1575    1.0000 </r>
       <r>   -5.1437    1.0000 </r>
       <r>   -5.0202    1.0000 </r>
       <r>   -5.0046    1.0000 </r>
       <r>   -4.9872    1.0000 </r>
       <r>   -4.9250    1.0000 </r>
       <r>   -4.7507    1.0000 </r>
       <r>   -4.6597    1.0000 </r>
       <r>   -4.6410    1.0000 </r>
       <r>   -4.6312    1.0000 </r>
       <r>   -4.5796    1.0000 </r>
       <r>   -4.5247    1.0000 </r>
       <r>   -4.5066    1.0000 </r>
       <r>   -4.4935    1.0000 </r>
       <r>   -4.4534    1.0000 </r>
       <r>   -4.3868    1.0000 </r>
       <r>   -4.3790    1.0000 </r>
       <r>   -4.3277    1.0000 </r>
       <r>   -4.3211    1.0000 </r>
       <r>   -4.2642    1.0000 </r>
       <r>   -4.2039    1.0000 </r>
       <r>   -4.1594    1.0000 </r>
       <r>   -4.1270    1.0000 </r>
       <r>   -4.1226    1.0000 </r>
       <r>   -4.0549    1.0000 </r>
       <r>   -3.9899    1.0000 </r>
       <r>   -3.9661    1.0000 </r>
       <r>   -3.9556    1.0000 </r>
       <r>   -3.9123    1.0000 </r>
       <r>   -3.8717    1.0000 </r>
       <r>   -3.8158    1.0000 </r>
       <r>   -3.8075    1.0000 </r>
       <r>   -3.7983    1.0000 </r>
       <r>   -2.9788    1.0000 </r>
       <r>   -2.0869    1.0000 </r>
       <r>   -1.6470    1.0000 </r>
       <r>   -1.5960    1.0000 </r>
       <r>   -0.8201   -0.0111 </r>
       <r>    0.1330   -0.0000 </r>
       <r>    0.5441   -0.0000 </r>
       <r>    0.8636   -0.0000 </r>
       <r>    1.1726   -0.0000 </r>
       <r>    1.5112   -0.0000 </r>
       <r>    1.8032   -0.0000 </r>
       <r>    3.4628    0.0000 </r>
       <r>    3.4950    0.0000 </r>
       <r>    3.8077    0.0000 </r>
       <r>    3.8252    0.0000 </r>
       <r>    4.0837    0.0000 </r>
       <r>    4.0937    0.0000 </r>
       <r>    4.3377    0.0000 </r>
       <r>    4.5990    0.0000 </r>
       <r>    4.9618    0.0000 </r>
       <r>    5.3366    0.0000 </r>
       <r>    5.3668    0.0000 </r>
       <r>    5.5204    0.0000 </r>
       <r>    5.7103    0.0000 </r>
       <r>    5.7889    0.0000 </r>
       <r>    6.3856    0.0000 </r>
       <r>    6.5684    0.0000 </r>
       <r>    6.5787    0.0000 </r>
       <r>    6.9023    0.0000 </r>
       <r>    6.9538    0.0000 </r>
       <r>    7.1220    0.0000 </r>
       <r>    7.3436    0.0000 </r>
       <r>    7.3752    0.0000 </r>
       <r>    7.4415    0.0000 </r>
      </set>
      <set comment="kpoint 8">
       <r>   -6.9093    1.0000 </r>
       <r>   -6.5832    1.0000 </r>
       <r>   -6.4489    1.0000 </r>
       <r>   -6.4130    1.0000 </r>
       <r>   -6.3929    1.0000 </r>
       <r>   -6.3914    1.0000 </r>
       <r>   -6.3395    1.0000 </r>
       <r>   -6.3096    1.0000 </r>
       <r>   -6.2964    1.0000 </r>
       <r>   -6.2529    1.0000 </r>
       <r>   -6.2104    1.0000 </r>
       <r>   -6.0950    1.0000 </r>
       <r>   -6.0784    1.0000 </r>
       <r>   -5.9385    1.0000 </r>
       <r>   -5.8994    1.0000 </r>
       <r>   -5.8606    1.0000 </r>
       <r>   -5.7322    1.0000 </r>
       <r>   -5.7289    1.0000 </r>
       <r>   -5.6972    1.0000 </r>
       <r>   -5.5823    1.0000 </r>
       <r>   -5.5066    1.0000 </r>
       <r>   -5.4957    1.0000 </r>
       <r>   -5.4788    1.0000 </r>
       <r>   -5.4720    1.0000 </r>
       <r>   -5.3103    1.0000 </r>
       <r>   -5.3100    1.0000 </r>
       <r>   -5.2608    1.0000 </r>
       <r>   -5.2248    1.0000 </r>
       <r>   -5.2213    1.0000 </r>
       <r>   -5.2021    1.0000 </r>
       <r>   -5.1633    1.0000 </r>
       <r>   -5.1338    1.0000 </r>
       <r>   -5.1022    1.0000 </r>
       <r>   -4.9906    1.0000 </r>
       <r>   -4.8505    1.0000 </r>
       <r>   -4.8297    1.0000 </r>
       <r>   -4.7974    1.0000 </r>
       <r>   -4.7275    1.0000 </r>
       <r>   -4.7168    1.0000 </r>
       <r>   -4.7034    1.0000 </r>
       <r>   -4.6998    1.0000 </r>
       <r>   -4.6649    1.0000 </r>
       <r>   -4.6157    1.0000 </r>
       <r>   -4.6027    1.0000 </r>
       <r>   -4.5951    1.0000 </r>
       <r>   -4.5562    1.0000 </r>
       <r>   -4.5006    1.0000 </r>
       <r>   -4.4938    1.0000 </r>
       <r>   -4.4252    1.0000 </r>
       <r>   -4.3947    1.0000 </r>
       <r>   -4.3100    1.0000 </r>
       <r>   -4.2849    1.0000 </r>
       <r>   -4.1963    1.0000 </r>
       <r>   -4.1642    1.0000 </r>
       <r>   -4.1555    1.0000 </r>
       <r>   -3.9938    1.0000 </r>
       <r>   -3.9531    1.0000 </r>
       <r>   -3.9280    1.0000 </r>
       <r>   -3.9262    1.0000 </r>
       <r>   -3.8192    1.0000 </r>
       <r>   -3.8087    1.0000 </r>
       <r>   -3.7936    1.0000 </r>
       <r>   -3.5383    1.0000 </r>
       <r>   -2.5030    1.0000 </r>
       <r>   -2.1441    1.0000 </r>
       <r>   -1.1414    1.0025 </r>
       <r>   -0.8954    0.3784 </r>
       <r>    0.0710   -0.0000 </r>
       <r>    0.0901   -0.0000 </r>
       <r>    1.2387   -0.0000 </r>
       <r>    1.3601   -0.0000 </r>
       <r>    1.4585   -0.0000 </r>
       <r>    2.8024    0.0000 </r>
       <r>    2.9300    0.0000 </r>
       <r>    3.8335    0.0000 </r>
       <r>    3.8585    0.0000 </r>
       <r>    4.2711    0.0000 </r>
       <r>    4.3369    0.0000 </r>
       <r>    4.5783    0.0000 </r>
       <r>    4.7442    0.0000 </r>
       <r>    5.0418    0.0000 </r>
       <r>    5.2743    0.0000 </r>
       <r>    5.5878    0.0000 </r>
       <r>    5.6419    0.0000 </r>
       <r>    5.7758    0.0000 </r>
       <r>    5.9094    0.0000 </r>
       <r>    5.9709    0.0000 </r>
       <r>    6.0416    0.0000 </r>
       <r>    6.2182    0.0000 </r>
       <r>    6.7356    0.0000 </r>
       <r>    6.7620    0.0000 </r>
       <r>    6.9577    0.0000 </r>
       <r>    7.0780    0.0000 </r>
       <r>    7.1407    0.0000 </r>
       <r>    7.2667    0.0000 </r>
       <r>    7.2789    0.0000 </r>
      </set>
      <set comment="kpoint 9">
       <r>   -6.6380    1.0000 </r>
       <r>   -6.6380    1.0000 </r>
       <r>   -6.3782    1.0000 </r>
       <r>   -6.3782    1.0000 </r>
       <r>   -6.3414    1.0000 </r>
       <r>   -6.3303    1.0000 </r>
       <r>   -6.2800    1.0000 </r>
       <r>   -6.2304    1.0000 </r>
       <r>   -6.1382    1.0000 </r>
       <r>   -6.1057    1.0000 </r>
       <r>   -6.1057    1.0000 </r>
       <r>   -6.0454    1.0000 </r>
       <r>   -5.9577    1.0000 </r>
       <r>   -5.9577    1.0000 </r>
       <r>   -5.9551    1.0000 </r>
       <r>   -5.8712    1.0000 </r>
       <r>   -5.7183    1.0000 </r>
       <r>   -5.7183    1.0000 </r>
       <r>   -5.6393    1.0000 </r>
       <r>   -5.6169    1.0000 </r>
       <r>   -5.6123    1.0000 </r>
       <r>   -5.5421    1.0000 </r>
       <r>   -5.4622    1.0000 </r>
       <r>   -5.4622    1.0000 </r>
       <r>   -5.2799    1.0000 </r>
       <r>   -5.2179    1.0000 </r>
       <r>   -5.2028    1.0000 </r>
       <r>   -5.1984    1.0000 </r>
       <r>   -5.1809    1.0000 </r>
       <r>   -5.1809    1.0000 </r>
       <r>   -5.1515    1.0000 </r>
       <r>   -5.1515    1.0000 </r>
       <r>   -5.0217    1.0000 </r>
       <r>   -5.0111    1.0000 </r>
       <r>   -5.0111    1.0000 </r>
       <r>   -4.9755    1.0000 </r>
       <r>   -4.9486    1.0000 </r>
       <r>   -4.9027    1.0000 </r>
       <r>   -4.8156    1.0000 </r>
       <r>   -4.8156    1.0000 </r>
       <r>   -4.7531    1.0000 </r>
       <r>   -4.7531    1.0000 </r>
       <r>   -4.6724    1.0000 </r>
       <r>   -4.6078    1.0000 </r>
       <r>   -4.5698    1.0000 </r>
       <r>   -4.5698    1.0000 </r>
       <r>   -4.5582    1.0000 </r>
       <r>   -4.5147    1.0000 </r>
       <r>   -4.4398    1.0000 </r>
       <r>   -4.4398    1.0000 </r>
       <r>   -4.3620    1.0000 </r>
       <r>   -4.3620    1.0000 </r>
       <r>   -4.2263    1.0000 </r>
       <r>   -4.2209    1.0000 </r>
       <r>   -4.2209    1.0000 </r>
       <r>   -4.1942    1.0000 </r>
       <r>   -3.9926    1.0000 </r>
       <r>   -3.9434    1.0000 </r>
       <r>   -3.9434    1.0000 </r>
       <r>   -3.9304    1.0000 </r>
       <r>   -3.8185    1.0000 </r>
       <r>   -3.8067    1.0000 </r>
       <r>   -3.1270    1.0000 </r>
       <r>   -3.1270    1.0000 </r>
       <r>   -2.1539    1.0000 </r>
       <r>   -0.9140    0.5348 </r>
       <r>   -0.5818   -0.0000 </r>
       <r>   -0.5818   -0.0000 </r>
       <r>    0.0445   -0.0000 </r>
       <r>    1.3850   -0.0000 </r>
       <r>    1.4366   -0.0000 </r>
       <r>    2.0466    0.0000 </r>
       <r>    2.0467    0.0000 </r>
       <r>    3.4426    0.0000 </r>
       <r>    4.3248    0.0000 </r>
       <r>    4.3362    0.0000 </r>
       <r>    4.3528    0.0000 </r>
       <r>    4.3863    0.0000 </r>
       <r>    4.3863    0.0000 </r>
       <r>    4.8625    0.0000 </r>
       <r>    4.8625    0.0000 </r>
       <r>    5.2897    0.0000 </r>
       <r>    5.2897    0.0000 </r>
       <r>    5.5659    0.0000 </r>
       <r>    5.8549    0.0000 </r>
       <r>    6.1393    0.0000 </r>
       <r>    6.3492    0.0000 </r>
       <r>    6.3562    0.0000 </r>
       <r>    6.3562    0.0000 </r>
       <r>    6.4363    0.0000 </r>
       <r>    6.4363    0.0000 </r>
       <r>    6.4838    0.0000 </r>
       <r>    6.6414    0.0000 </r>
       <r>    6.8606    0.0000 </r>
       <r>    7.1551    0.0000 </r>
       <r>    7.8851    0.0000 </r>
      </set>
      <set comment="kpoint 10">
       <r>   -6.9466    1.0000 </r>
       <r>   -6.4794    1.0000 </r>
       <r>   -6.4794    1.0000 </r>
       <r>   -6.4259    1.0000 </r>
       <r>   -6.3976    1.0000 </r>
       <r>   -6.3976    1.0000 </r>
       <r>   -6.3701    1.0000 </r>
       <r>   -6.3528    1.0000 </r>
       <r>   -6.3528    1.0000 </r>
       <r>   -6.2422    1.0000 </r>
       <r>   -6.2255    1.0000 </r>
       <r>   -6.1152    1.0000 </r>
       <r>   -6.0110    1.0000 </r>
       <r>   -6.0110    1.0000 </r>
       <r>   -5.9664    1.0000 </r>
       <r>   -5.8290    1.0000 </r>
       <r>   -5.7112    1.0000 </r>
       <r>   -5.6755    1.0000 </r>
       <r>   -5.6684    1.0000 </r>
       <r>   -5.6684    1.0000 </r>
       <r>   -5.5712    1.0000 </r>
       <r>   -5.4714    1.0000 </r>
       <r>   -5.4609    1.0000 </r>
       <r>   -5.4609    1.0000 </r>
       <r>   -5.3487    1.0000 </r>
       <r>   -5.3268    1.0000 </r>
       <r>   -5.3031    1.0000 </r>
       <r>   -5.3031    1.0000 </r>
       <r>   -5.2787    1.0000 </r>
       <r>   -5.1622    1.0000 </r>
       <r>   -5.1622    1.0000 </r>
       <r>   -5.1291    1.0000 </r>
       <r>   -5.1145    1.0000 </r>
       <r>   -5.0124    1.0000 </r>
       <r>   -4.8423    1.0000 </r>
       <r>   -4.7743    1.0000 </r>
       <r>   -4.7716    1.0000 </r>
       <r>   -4.7716    1.0000 </r>
       <r>   -4.7058    1.0000 </r>
       <r>   -4.6524    1.0000 </r>
       <r>   -4.6488    1.0000 </r>
       <r>   -4.6331    1.0000 </r>
       <r>   -4.6331    1.0000 </r>
       <r>   -4.5919    1.0000 </r>
       <r>   -4.5437    1.0000 </r>
       <r>   -4.5437    1.0000 </r>
       <r>   -4.5040    1.0000 </r>
       <r>   -4.5040    1.0000 </r>
       <r>   -4.3977    1.0000 </r>
       <r>   -4.3612    1.0000 </r>
       <r>   -4.3392    1.0000 </r>
       <r>   -4.1840    1.0000 </r>
       <r>   -4.1840    1.0000 </r>
       <r>   -4.0697    1.0000 </r>
       <r>   -4.0605    1.0000 </r>
       <r>   -3.9907    1.0000 </r>
       <r>   -3.9907    1.0000 </r>
       <r>   -3.9823    1.0000 </r>
       <r>   -3.9032    1.0000 </r>
       <r>   -3.9032    1.0000 </r>
       <r>   -3.8829    1.0000 </r>
       <r>   -3.5668    1.0000 </r>
       <r>   -3.0439    1.0000 </r>
       <r>   -3.0439    1.0000 </r>
       <r>   -1.8085    1.0000 </r>
       <r>   -1.8085    1.0000 </r>
       <r>   -1.2105    1.0001 </r>
       <r>    0.6805   -0.0000 </r>
       <r>    0.6806   -0.0000 </r>
       <r>    1.1313   -0.0000 </r>
       <r>    1.1823   -0.0000 </r>
       <r>    1.5841   -0.0000 </r>
       <r>    2.3406    0.0000 </r>
       <r>    3.5438    0.0000 </r>
       <r>    3.5877    0.0000 </r>
       <r>    3.5877    0.0000 </r>
       <r>    3.7928    0.0000 </r>
       <r>    4.1971    0.0000 </r>
       <r>    4.6765    0.0000 </r>
       <r>    4.7157    0.0000 </r>
       <r>    5.4371    0.0000 </r>
       <r>    5.5512    0.0000 </r>
       <r>    5.5512    0.0000 </r>
       <r>    5.5579    0.0000 </r>
       <r>    5.7032    0.0000 </r>
       <r>    5.8445    0.0000 </r>
       <r>    5.9251    0.0000 </r>
       <r>    5.9251    0.0000 </r>
       <r>    6.2304    0.0000 </r>
       <r>    6.2304    0.0000 </r>
       <r>    6.5253    0.0000 </r>
       <r>    6.5253    0.0000 </r>
       <r>    7.1067    0.0000 </r>
       <r>    7.4026    0.0000 </r>
       <r>    7.4026    0.0000 </r>
       <r>    7.6424    0.0000 </r>
      </set>
      <set comment="kpoint 11">
       <r>   -6.6176    1.0000 </r>
       <r>   -6.4510    1.0000 </r>
       <r>   -6.3180    1.0000 </r>
       <r>   -6.3110    1.0000 </r>
       <r>   -6.3043    1.0000 </r>
       <r>   -6.2707    1.0000 </r>
       <r>   -6.2465    1.0000 </r>
       <r>   -6.1988    1.0000 </r>
       <r>   -6.1923    1.0000 </r>
       <r>   -6.1816    1.0000 </r>
       <r>   -6.0464    1.0000 </r>
       <r>   -6.0181    1.0000 </r>
       <r>   -5.9841    1.0000 </r>
       <r>   -5.9622    1.0000 </r>
       <r>   -5.8687    1.0000 </r>
       <r>   -5.8633    1.0000 </r>
       <r>   -5.7546    1.0000 </r>
       <r>   -5.7339    1.0000 </r>
       <r>   -5.6931    1.0000 </r>
       <r>   -5.6024    1.0000 </r>
       <r>   -5.5742    1.0000 </r>
       <r>   -5.5153    1.0000 </r>
       <r>   -5.4735    1.0000 </r>
       <r>   -5.4623    1.0000 </r>
       <r>   -5.4050    1.0000 </r>
       <r>   -5.3209    1.0000 </r>
       <r>   -5.3119    1.0000 </r>
       <r>   -5.2663    1.0000 </r>
       <r>   -5.2294    1.0000 </r>
       <r>   -5.1948    1.0000 </r>
       <r>   -5.1884    1.0000 </r>
       <r>   -5.1649    1.0000 </r>
       <r>   -5.1451    1.0000 </r>
       <r>   -5.0925    1.0000 </r>
       <r>   -5.0786    1.0000 </r>
       <r>   -4.9748    1.0000 </r>
       <r>   -4.9393    1.0000 </r>
       <r>   -4.9199    1.0000 </r>
       <r>   -4.9121    1.0000 </r>
       <r>   -4.8638    1.0000 </r>
       <r>   -4.8018    1.0000 </r>
       <r>   -4.6618    1.0000 </r>
       <r>   -4.6435    1.0000 </r>
       <r>   -4.5896    1.0000 </r>
       <r>   -4.5496    1.0000 </r>
       <r>   -4.5240    1.0000 </r>
       <r>   -4.5229    1.0000 </r>
       <r>   -4.4878    1.0000 </r>
       <r>   -4.4485    1.0000 </r>
       <r>   -4.3242    1.0000 </r>
       <r>   -4.3053    1.0000 </r>
       <r>   -4.2308    1.0000 </r>
       <r>   -4.2029    1.0000 </r>
       <r>   -4.1455    1.0000 </r>
       <r>   -4.1279    1.0000 </r>
       <r>   -4.0594    1.0000 </r>
       <r>   -3.9949    1.0000 </r>
       <r>   -3.9923    1.0000 </r>
       <r>   -3.9715    1.0000 </r>
       <r>   -3.9142    1.0000 </r>
       <r>   -3.9116    1.0000 </r>
       <r>   -3.7494    1.0000 </r>
       <r>   -3.1927    1.0000 </r>
       <r>   -3.0385    1.0000 </r>
       <r>   -2.6128    1.0000 </r>
       <r>   -1.8608    1.0000 </r>
       <r>   -0.7052   -0.0068 </r>
       <r>   -0.0766   -0.0000 </r>
       <r>    0.5952   -0.0000 </r>
       <r>    1.3127   -0.0000 </r>
       <r>    1.8615    0.0000 </r>
       <r>    2.5588    0.0000 </r>
       <r>    2.6948    0.0000 </r>
       <r>    2.8108    0.0000 </r>
       <r>    3.4665    0.0000 </r>
       <r>    4.0343    0.0000 </r>
       <r>    4.2560    0.0000 </r>
       <r>    4.3843    0.0000 </r>
       <r>    4.7162    0.0000 </r>
       <r>    4.8527    0.0000 </r>
       <r>    4.8800    0.0000 </r>
       <r>    5.1540    0.0000 </r>
       <r>    5.3781    0.0000 </r>
       <r>    5.4569    0.0000 </r>
       <r>    5.6376    0.0000 </r>
       <r>    5.7718    0.0000 </r>
       <r>    6.0346    0.0000 </r>
       <r>    6.2145    0.0000 </r>
       <r>    6.2683    0.0000 </r>
       <r>    6.3054    0.0000 </r>
       <r>    6.3947    0.0000 </r>
       <r>    6.8601    0.0000 </r>
       <r>    6.9044    0.0000 </r>
       <r>    7.0407    0.0000 </r>
       <r>    7.5071    0.0000 </r>
       <r>    7.5370    0.0000 </r>
      </set>
      <set comment="kpoint 12">
       <r>   -6.3847    1.0000 </r>
       <r>   -6.3847    1.0000 </r>
       <r>   -6.3847    1.0000 </r>
       <r>   -6.1847    1.0000 </r>
       <r>   -6.1847    1.0000 </r>
       <r>   -6.1517    1.0000 </r>
       <r>   -6.1391    1.0000 </r>
       <r>   -6.1391    1.0000 </r>
       <r>   -6.1391    1.0000 </r>
       <r>   -6.0665    1.0000 </r>
       <r>   -6.0665    1.0000 </r>
       <r>   -6.0665    1.0000 </r>
       <r>   -6.0576    1.0000 </r>
       <r>   -6.0576    1.0000 </r>
       <r>   -6.0576    1.0000 </r>
       <r>   -5.7676    1.0000 </r>
       <r>   -5.7676    1.0000 </r>
       <r>   -5.5768    1.0000 </r>
       <r>   -5.5768    1.0000 </r>
       <r>   -5.5768    1.0000 </r>
       <r>   -5.5709    1.0000 </r>
       <r>   -5.5709    1.0000 </r>
       <r>   -5.5709    1.0000 </r>
       <r>   -5.3966    1.0000 </r>
       <r>   -5.3966    1.0000 </r>
       <r>   -5.3966    1.0000 </r>
       <r>   -5.3647    1.0000 </r>
       <r>   -5.3647    1.0000 </r>
       <r>   -5.3647    1.0000 </r>
       <r>   -5.3391    1.0000 </r>
       <r>   -5.1269    1.0000 </r>
       <r>   -5.1210    1.0000 </r>
       <r>   -5.1156    1.0000 </r>
       <r>   -5.1156    1.0000 </r>
       <r>   -5.0777    1.0000 </r>
       <r>   -5.0777    1.0000 </r>
       <r>   -5.0777    1.0000 </r>
       <r>   -5.0345    1.0000 </r>
       <r>   -5.0345    1.0000 </r>
       <r>   -5.0345    1.0000 </r>
       <r>   -4.6607    1.0000 </r>
       <r>   -4.6607    1.0000 </r>
       <r>   -4.6607    1.0000 </r>
       <r>   -4.5830    1.0000 </r>
       <r>   -4.5830    1.0000 </r>
       <r>   -4.5026    1.0000 </r>
       <r>   -4.5026    1.0000 </r>
       <r>   -4.5026    1.0000 </r>
       <r>   -4.3222    1.0000 </r>
       <r>   -4.3222    1.0000 </r>
       <r>   -4.3222    1.0000 </r>
       <r>   -4.1382    1.0000 </r>
       <r>   -4.1382    1.0000 </r>
       <r>   -4.1382    1.0000 </r>
       <r>   -4.0937    1.0000 </r>
       <r>   -4.0937    1.0000 </r>
       <r>   -3.9941    1.0000 </r>
       <r>   -3.9941    1.0000 </r>
       <r>   -3.9941    1.0000 </r>
       <r>   -3.9749    1.0000 </r>
       <r>   -3.7300    1.0000 </r>
       <r>   -3.7300    1.0000 </r>
       <r>   -3.7300    1.0000 </r>
       <r>   -2.6386    1.0000 </r>
       <r>   -2.6386    1.0000 </r>
       <r>   -2.6386    1.0000 </r>
       <r>   -0.1293   -0.0000 </r>
       <r>   -0.1293   -0.0000 </r>
       <r>   -0.1293   -0.0000 </r>
       <r>    2.6156    0.0000 </r>
       <r>    2.6156    0.0000 </r>
       <r>    2.6156    0.0000 </r>
       <r>    2.6223    0.0000 </r>
       <r>    2.6223    0.0000 </r>
       <r>    2.7334    0.0000 </r>
       <r>    3.6334    0.0000 </r>
       <r>    4.4336    0.0000 </r>
       <r>    4.4336    0.0000 </r>
       <r>    4.7892    0.0000 </r>
       <r>    4.7892    0.0000 </r>
       <r>    4.7892    0.0000 </r>
       <r>    5.3071    0.0000 </r>
       <r>    5.3071    0.0000 </r>
       <r>    5.3071    0.0000 </r>
       <r>    5.7048    0.0000 </r>
       <r>    5.7048    0.0000 </r>
       <r>    5.7048    0.0000 </r>
       <r>    5.9107    0.0000 </r>
       <r>    5.9107    0.0000 </r>
       <r>    6.7966    0.0000 </r>
       <r>    6.7966    0.0000 </r>
       <r>    6.7966    0.0000 </r>
       <r>    6.8407    0.0000 </r>
       <r>    6.8407    0.0000 </r>
       <r>    6.8407    0.0000 </r>
       <r>    6.9509    0.0000 </r>
      </set>
     </set>
    </set>
   </array>
  </eigenvalues>
  <separator name="orbital magnetization" >
   <v name="MAGDIPOLOUT">      0.00000000      0.00000000      0.00000000</v>
  </separator>
  <dos>
   <i name="efermi">     -0.90989925 </i>
   <total>
    <array>
     <dimension dim="1">gridpoints</dimension>
     <dimension dim="2">spin</dimension>
     <field>energy</field>
     <field>total</field>
     <field>integrated</field>
     <set>
      <set comment="spin 1">
       <r>    -8.8001     0.0000     0.0000 </r>
       <r>    -8.7393     0.0000     0.0000 </r>
       <r>    -8.6785     0.0000     0.0000 </r>
       <r>    -8.6177    -0.0000    -0.0000 </r>
       <r>    -8.5569    -0.0000    -0.0000 </r>
       <r>    -8.4962    -0.0000    -0.0000 </r>
       <r>    -8.4354    -0.0000    -0.0000 </r>
       <r>    -8.3746    -0.0000    -0.0000 </r>
       <r>    -8.3138    -0.0000    -0.0000 </r>
       <r>    -8.2530    -0.0000    -0.0000 </r>
       <r>    -8.1922    -0.0000    -0.0000 </r>
       <r>    -8.1314    -0.0000    -0.0000 </r>
       <r>    -8.0706    -0.0002    -0.0000 </r>
       <r>    -8.0098    -0.0025    -0.0002 </r>
       <r>    -7.9490    -0.0153    -0.0011 </r>
       <r>    -7.8882    -0.0313    -0.0030 </r>
       <r>    -7.8274     0.0837     0.0021 </r>
       <r>    -7.7666     0.6099     0.0392 </r>
       <r>    -7.7058     1.1748     0.1106 </r>
       <r>    -7.6450     0.9152     0.1662 </r>
       <r>    -7.5842     0.8989     0.2209 </r>
       <r>    -7.5234     1.6756     0.3228 </r>
       <r>    -7.4626     1.6703     0.4243 </r>
       <r>    -7.4018     0.6265     0.4624 </r>
       <r>    -7.3410     0.3320     0.4826 </r>
       <r>    -7.2802     1.6865     0.5851 </r>
       <r>    -7.2194     2.3635     0.7288 </r>
       <r>    -7.1586     1.6391     0.8285 </r>
       <r>    -7.0978     0.9747     0.8877 </r>
       <r>    -7.0370     0.2520     0.9030 </r>
       <r>    -6.9762     0.7967     0.9515 </r>
       <r>    -6.9154     2.9413     1.1303 </r>
       <r>    -6.8546     5.0981     1.4402 </r>
       <r>    -6.7938     7.6074     1.9027 </r>
       <r>    -6.7330    11.1245     2.5791 </r>
       <r>    -6.6722    18.7869     3.7213 </r>
       <r>    -6.6114    28.4167     5.4489 </r>
       <r>    -6.5507    33.3814     7.4784 </r>
       <r>    -6.4899    36.0909     9.6726 </r>
       <r>    -6.4291    41.5925    12.2013 </r>
       <r>    -6.3683    48.1766    15.1303 </r>
       <r>    -6.3075    47.9717    18.0468 </r>
       <r>    -6.2467    41.6158    20.5769 </r>
       <r>    -6.1859    35.0664    22.7089 </r>
       <r>    -6.1251    27.1594    24.3601 </r>
       <r>    -6.0643    23.3761    25.7813 </r>
       <r>    -6.0035    24.4869    27.2700 </r>
       <r>    -5.9427    23.4904    28.6981 </r>
       <r>    -5.8819    19.5204    29.8849 </r>
       <r>    -5.8211    17.8349    30.9692 </r>
       <r>    -5.7603    27.3481    32.6319 </r>
       <r>    -5.6995    39.8472    35.0545 </r>
       <r>    -5.6387    38.6224    37.4026 </r>
       <r>    -5.5779    38.8890    39.7669 </r>
       <r>    -5.5171    49.4169    42.7713 </r>
       <r>    -5.4563    53.7636    46.0400 </r>
       <r>    -5.3955    42.3888    48.6171 </r>
       <r>    -5.3347    36.1231    50.8133 </r>
       <r>    -5.2739    47.0904    53.6762 </r>
       <r>    -5.2131    59.2361    57.2776 </r>
       <r>    -5.1523    60.3288    60.9454 </r>
       <r>    -5.0915    47.6037    63.8396 </r>
       <r>    -5.0307    33.3139    65.8649 </r>
       <r>    -4.9699    28.4263    67.5932 </r>
       <r>    -4.9091    29.4724    69.3850 </r>
       <r>    -4.8483    32.0834    71.3356 </r>
       <r>    -4.7875    32.7398    73.3260 </r>
       <r>    -4.7267    35.0024    75.4541 </r>
       <r>    -4.6659    45.2661    78.2061 </r>
       <r>    -4.6051    61.2605    81.9306 </r>
       <r>    -4.5444    69.5883    86.1613 </r>
       <r>    -4.4836    58.7188    89.7312 </r>
       <r>    -4.4228    42.2358    92.2991 </r>
       <r>    -4.3620    40.4094    94.7558 </r>
       <r>    -4.3012    42.9645    97.3679 </r>
       <r>    -4.2404    38.1645    99.6882 </r>
       <r>    -4.1796    38.0877   102.0038 </r>
       <r>    -4.1188    40.0351   104.4378 </r>
       <r>    -4.0580    36.5127   106.6577 </r>
       <r>    -3.9972    47.0697   109.5194 </r>
       <r>    -3.9364    66.7697   113.5788 </r>
       <r>    -3.8756    61.2083   117.3001 </r>
       <r>    -3.8148    43.2191   119.9276 </r>
       <r>    -3.7540    35.9183   122.1114 </r>
       <r>    -3.6932    23.6995   123.5522 </r>
       <r>    -3.6324     8.4819   124.0679 </r>
       <r>    -3.5716     2.7847   124.2372 </r>
       <r>    -3.5108     2.8636   124.4113 </r>
       <r>    -3.4500     2.0629   124.5367 </r>
       <r>    -3.3892     1.1564   124.6070 </r>
       <r>    -3.3284     0.4190   124.6325 </r>
       <r>    -3.2676     0.1611   124.6423 </r>
       <r>    -3.2068     1.7074   124.7461 </r>
       <r>    -3.1460     3.7146   124.9719 </r>
       <r>    -3.0852     5.0008   125.2760 </r>
       <r>    -3.0244     6.4940   125.6708 </r>
       <r>    -2.9636     6.1513   126.0447 </r>
       <r>    -2.9028     3.2804   126.2442 </r>
       <r>    -2.8420     0.6725   126.2851 </r>
       <r>    -2.7812    -0.3266   126.2652 </r>
       <r>    -2.7204    -0.1040   126.2589 </r>
       <r>    -2.6596     2.0466   126.3833 </r>
       <r>    -2.5989     4.6523   126.6662 </r>
       <r>    -2.5381     4.2622   126.9253 </r>
       <r>    -2.4773     2.7469   127.0923 </r>
       <r>    -2.4165     1.1909   127.1647 </r>
       <r>    -2.3557    -0.0652   127.1607 </r>
       <r>    -2.2949    -0.2262   127.1470 </r>
       <r>    -2.2341     0.9510   127.2048 </r>
       <r>    -2.1733     4.0562   127.4514 </r>
       <r>    -2.1125     6.6731   127.8571 </r>
       <r>    -2.0517     4.8117   128.1496 </r>
       <r>    -1.9909     1.3712   128.2330 </r>
       <r>    -1.9301     2.1976   128.3666 </r>
       <r>    -1.8693     6.3158   128.7506 </r>
       <r>    -1.8085     7.1934   129.1879 </r>
       <r>    -1.7477     3.3915   129.3941 </r>
       <r>    -1.6869     1.4310   129.4811 </r>
       <r>    -1.6261     3.3633   129.6856 </r>
       <r>    -1.5653     3.7571   129.9140 </r>
       <r>    -1.5045     1.8020   130.0236 </r>
       <r>    -1.4437     1.6958   130.1267 </r>
       <r>    -1.3829     2.0143   130.2491 </r>
       <r>    -1.3221     1.0865   130.3152 </r>
       <r>    -1.2613     1.2075   130.3886 </r>
       <r>    -1.2005     2.4808   130.5394 </r>
       <r>    -1.1397     4.7550   130.8285 </r>
       <r>    -1.0789     5.9970   131.1931 </r>
       <r>    -1.0181     4.1053   131.4427 </r>
       <r>    -0.9573     4.0810   131.6908 </r>
       <r>    -0.8965     6.6265   132.0937 </r>
       <r>    -0.8357     5.7543   132.4435 </r>
       <r>    -0.7749     3.6915   132.6680 </r>
       <r>    -0.7141     4.5665   132.9456 </r>
       <r>    -0.6534     5.9392   133.3067 </r>
       <r>    -0.5926     5.5675   133.6452 </r>
       <r>    -0.5318     3.7132   133.8709 </r>
       <r>    -0.4710     1.1527   133.9410 </r>
       <r>    -0.4102     0.0501   133.9441 </r>
       <r>    -0.3494     0.9231   134.0002 </r>
       <r>    -0.2886     2.6858   134.1635 </r>
       <r>    -0.2278     2.7320   134.3296 </r>
       <r>    -0.1670     1.5647   134.4247 </r>
       <r>    -0.1062     2.2338   134.5605 </r>
       <r>    -0.0454     3.5753   134.7779 </r>
       <r>     0.0154     4.8718   135.0741 </r>
       <r>     0.0762     7.3777   135.5226 </r>
       <r>     0.1370     9.3793   136.0928 </r>
       <r>     0.1978     9.8530   136.6919 </r>
       <r>     0.2586     8.3832   137.2015 </r>
       <r>     0.3194     5.0991   137.5115 </r>
       <r>     0.3802     2.2362   137.6475 </r>
       <r>     0.4410     0.9034   137.7024 </r>
       <r>     0.5018     1.2082   137.7759 </r>
       <r>     0.5626     3.3211   137.9778 </r>
       <r>     0.6234     4.7263   138.2651 </r>
       <r>     0.6842     4.8916   138.5625 </r>
       <r>     0.7450     4.1052   138.8121 </r>
       <r>     0.8058     2.8187   138.9835 </r>
       <r>     0.8666     2.7203   139.1489 </r>
       <r>     0.9274     1.8447   139.2610 </r>
       <r>     0.9882     0.2502   139.2762 </r>
       <r>     1.0490     0.8867   139.3301 </r>
       <r>     1.1098     4.1779   139.5841 </r>
       <r>     1.1706     7.6881   140.0516 </r>
       <r>     1.2314     7.7143   140.5206 </r>
       <r>     1.2922     5.6647   140.8649 </r>
       <r>     1.3529     6.0651   141.2337 </r>
       <r>     1.4137     6.7965   141.6469 </r>
       <r>     1.4745     7.1004   142.0786 </r>
       <r>     1.5353     7.8806   142.5577 </r>
       <r>     1.5961     5.6482   142.9011 </r>
       <r>     1.6569     1.4391   142.9886 </r>
       <r>     1.7177     0.3561   143.0102 </r>
       <r>     1.7785     3.4477   143.2198 </r>
       <r>     1.8393     5.9607   143.5822 </r>
       <r>     1.9001     4.0082   143.8259 </r>
       <r>     1.9609     1.1250   143.8943 </r>
       <r>     2.0217     1.2888   143.9727 </r>
       <r>     2.0825     2.2195   144.1076 </r>
       <r>     2.1433     1.0054   144.1687 </r>
       <r>     2.2041     0.0700   144.1730 </r>
       <r>     2.2649     1.3972   144.2579 </r>
       <r>     2.3257     3.4005   144.4647 </r>
       <r>     2.3865     4.3848   144.7312 </r>
       <r>     2.4473     3.8455   144.9650 </r>
       <r>     2.5081     2.2404   145.1013 </r>
       <r>     2.5689     2.7142   145.2663 </r>
       <r>     2.6297     3.8837   145.5024 </r>
       <r>     2.6905     3.7744   145.7319 </r>
       <r>     2.7513     3.9599   145.9726 </r>
       <r>     2.8121     4.9775   146.2752 </r>
       <r>     2.8729     4.3518   146.5398 </r>
       <r>     2.9337     2.9245   146.7176 </r>
       <r>     2.9945     2.3370   146.8597 </r>
       <r>     3.0553     1.9834   146.9803 </r>
       <r>     3.1161     3.0161   147.1636 </r>
       <r>     3.1769     5.1005   147.4737 </r>
       <r>     3.2377     5.3435   147.7986 </r>
       <r>     3.2984     4.4974   148.0720 </r>
       <r>     3.3592     4.7270   148.3594 </r>
       <r>     3.4200     6.7834   148.7718 </r>
       <r>     3.4808    10.9283   149.4362 </r>
       <r>     3.5416    11.0770   150.1097 </r>
       <r>     3.6024     7.6734   150.5762 </r>
       <r>     3.6632     4.6041   150.8561 </r>
       <r>     3.7240     4.6653   151.1397 </r>
       <r>     3.7848     8.7498   151.6717 </r>
       <r>     3.8456    12.5427   152.4343 </r>
       <r>     3.9064    10.2071   153.0548 </r>
       <r>     3.9672     5.5988   153.3952 </r>
       <r>     4.0280     8.0192   153.8827 </r>
       <r>     4.0888    12.4292   154.6384 </r>
       <r>     4.1496     8.7527   155.1705 </r>
       <r>     4.2104     3.8383   155.4039 </r>
       <r>     4.2712     6.1248   155.7763 </r>
       <r>     4.3320    13.1676   156.5768 </r>
       <r>     4.3928    16.3947   157.5736 </r>
       <r>     4.4536    10.2600   158.1973 </r>
       <r>     4.5144     4.0144   158.4414 </r>
       <r>     4.5752     4.5831   158.7200 </r>
       <r>     4.6360     7.9985   159.2063 </r>
       <r>     4.6968     9.4608   159.7815 </r>
       <r>     4.7576     9.3338   160.3490 </r>
       <r>     4.8184    10.5612   160.9911 </r>
       <r>     4.8792    13.0668   161.7855 </r>
       <r>     4.9400    11.3455   162.4753 </r>
       <r>     5.0008     6.8043   162.8889 </r>
       <r>     5.0616     5.5504   163.2264 </r>
       <r>     5.1224     7.3503   163.6733 </r>
       <r>     5.1832     9.1321   164.2285 </r>
       <r>     5.2439    10.1332   164.8445 </r>
       <r>     5.3047    13.3190   165.6543 </r>
       <r>     5.3655    15.2607   166.5821 </r>
       <r>     5.4263    11.1142   167.2578 </r>
       <r>     5.4871     8.3792   167.7672 </r>
       <r>     5.5479    11.5685   168.4705 </r>
       <r>     5.6087    14.5722   169.3565 </r>
       <r>     5.6695    13.4960   170.1770 </r>
       <r>     5.7303    11.8666   170.8985 </r>
       <r>     5.7911    12.3886   171.6516 </r>
       <r>     5.8519    11.0587   172.3240 </r>
       <r>     5.9127     8.8953   172.8648 </r>
       <r>     5.9735     9.0407   173.4144 </r>
       <r>     6.0343     9.3033   173.9800 </r>
       <r>     6.0951     6.9211   174.4008 </r>
       <r>     6.1559     4.5788   174.6792 </r>
       <r>     6.2167     7.2023   175.1171 </r>
       <r>     6.2775    10.4650   175.7533 </r>
       <r>     6.3383    11.7509   176.4677 </r>
       <r>     6.3991    13.4201   177.2836 </r>
       <r>     6.4599    11.4415   177.9792 </r>
       <r>     6.5207     7.6484   178.4442 </r>
       <r>     6.5815     7.3611   178.8918 </r>
       <r>     6.6423     7.1343   179.3255 </r>
       <r>     6.7031     6.0143   179.6912 </r>
       <r>     6.7639     7.5673   180.1512 </r>
       <r>     6.8247    12.7808   180.9283 </r>
       <r>     6.8855    17.1383   181.9702 </r>
       <r>     6.9463    15.5812   182.9175 </r>
       <r>     7.0071    11.7884   183.6342 </r>
       <r>     7.0679    12.4771   184.3928 </r>
       <r>     7.1287    16.4690   185.3941 </r>
       <r>     7.1894    16.0036   186.3670 </r>
       <r>     7.2502    12.8372   187.1475 </r>
       <r>     7.3110    12.5989   187.9135 </r>
       <r>     7.3718    11.7797   188.6296 </r>
       <r>     7.4326    10.0486   189.2405 </r>
       <r>     7.4934    10.0093   189.8491 </r>
       <r>     7.5542    12.1886   190.5901 </r>
       <r>     7.6150     9.6986   191.1798 </r>
       <r>     7.6758     3.6433   191.4013 </r>
       <r>     7.7366     1.7987   191.5106 </r>
[...]
        <r>  0.0115  0.0044  0.0605 </r>
        <r>  0.0115  0.0044  0.0605 </r>
        <r>  0.0065  0.0031  0.0611 </r>
        <r>  0.0065  0.0031  0.0612 </r>
        <r>  0.0065  0.0031  0.0612 </r>
        <r>  0.0065  0.0031  0.0611 </r>
       </set>
       <set comment="band 63">
        <r>  0.0065  0.0031  0.0611 </r>
        <r>  0.0065  0.0031  0.0612 </r>
        <r>  0.0065  0.0031  0.0612 </r>
        <r>  0.0065  0.0031  0.0611 </r>
        <r>  0.0115  0.0044  0.0605 </r>
        <r>  0.0115  0.0044  0.0605 </r>
        <r>  0.0115  0.0044  0.0605 </r>
        <r>  0.0115  0.0044  0.0605 </r>
        <r>  0.0065  0.0031  0.0612 </r>
        <r>  0.0065  0.0031  0.0611 </r>
        <r>  0.0065  0.0031  0.0611 </r>
        <r>  0.0065  0.0031  0.0612 </r>
       </set>
       <set comment="band 64">
        <r>  0.0291  0.0092  0.0223 </r>
        <r>  0.0291  0.0092  0.0223 </r>
        <r>  0.0291  0.0092  0.0223 </r>
        <r>  0.0291  0.0092  0.0223 </r>
        <r>  0.0000  0.0066  0.0389 </r>
        <r>  0.0000  0.0066  0.0389 </r>
        <r>  0.0000  0.0066  0.0389 </r>
        <r>  0.0000  0.0066  0.0389 </r>
        <r>  0.0291  0.0092  0.0223 </r>
        <r>  0.0291  0.0092  0.0223 </r>
        <r>  0.0291  0.0092  0.0223 </r>
        <r>  0.0291  0.0092  0.0223 </r>
       </set>
       <set comment="band 65">
        <r>  0.0333  0.0087  0.0229 </r>
        <r>  0.0249  0.0097  0.0218 </r>
        <r>  0.0249  0.0097  0.0218 </r>
        <r>  0.0333  0.0087  0.0229 </r>
        <r>  0.0000  0.0081  0.0346 </r>
        <r>  0.0000  0.0052  0.0433 </r>
        <r>  0.0000  0.0052  0.0433 </r>
        <r>  0.0000  0.0081  0.0346 </r>
        <r>  0.0314  0.0090  0.0233 </r>
        <r>  0.0268  0.0094  0.0214 </r>
        <r>  0.0268  0.0094  0.0214 </r>
        <r>  0.0314  0.0090  0.0233 </r>
       </set>
       <set comment="band 66">
        <r>  0.0249  0.0097  0.0218 </r>
        <r>  0.0333  0.0087  0.0229 </r>
        <r>  0.0333  0.0087  0.0229 </r>
        <r>  0.0249  0.0097  0.0218 </r>
        <r>  0.0000  0.0052  0.0433 </r>
        <r>  0.0000  0.0081  0.0346 </r>
        <r>  0.0000  0.0081  0.0346 </r>
        <r>  0.0000  0.0052  0.0433 </r>
        <r>  0.0268  0.0094  0.0214 </r>
        <r>  0.0314  0.0090  0.0233 </r>
        <r>  0.0314  0.0090  0.0233 </r>
        <r>  0.0268  0.0094  0.0214 </r>
       </set>
       <set comment="band 67">
        <r>  0.0159  0.0131  0.0153 </r>
        <r>  0.0159  0.0131  0.0153 </r>
        <r>  0.0159  0.0131  0.0153 </r>
        <r>  0.0159  0.0131  0.0153 </r>
        <r>  0.0258  0.0085  0.0121 </r>
        <r>  0.0258  0.0085  0.0121 </r>
        <r>  0.0258  0.0085  0.0121 </r>
        <r>  0.0258  0.0085  0.0121 </r>
        <r>  0.0159  0.0131  0.0153 </r>
        <r>  0.0159  0.0131  0.0153 </r>
        <r>  0.0159  0.0131  0.0153 </r>
        <r>  0.0159  0.0131  0.0153 </r>
       </set>
       <set comment="band 68">
        <r>  0.0157  0.0131  0.0153 </r>
        <r>  0.0161  0.0132  0.0153 </r>
        <r>  0.0161  0.0132  0.0153 </r>
        <r>  0.0157  0.0131  0.0153 </r>
        <r>  0.0256  0.0085  0.0120 </r>
        <r>  0.0259  0.0085  0.0121 </r>
        <r>  0.0259  0.0085  0.0121 </r>
        <r>  0.0256  0.0085  0.0120 </r>
        <r>  0.0160  0.0132  0.0153 </r>
        <r>  0.0158  0.0131  0.0153 </r>
        <r>  0.0158  0.0131  0.0153 </r>
        <r>  0.0160  0.0132  0.0153 </r>
       </set>
       <set comment="band 69">
        <r>  0.0161  0.0132  0.0153 </r>
        <r>  0.0157  0.0131  0.0153 </r>
        <r>  0.0157  0.0131  0.0153 </r>
        <r>  0.0161  0.0132  0.0153 </r>
        <r>  0.0259  0.0085  0.0121 </r>
        <r>  0.0256  0.0085  0.0120 </r>
        <r>  0.0256  0.0085  0.0120 </r>
        <r>  0.0259  0.0085  0.0121 </r>
        <r>  0.0158  0.0131  0.0153 </r>
        <r>  0.0160  0.0132  0.0153 </r>
        <r>  0.0160  0.0132  0.0153 </r>
        <r>  0.0158  0.0131  0.0153 </r>
       </set>
       <set comment="band 70">
        <r>  0.0000  0.0195  0.0095 </r>
        <r>  0.0000  0.0223  0.0095 </r>
        <r>  0.0000  0.0223  0.0095 </r>
        <r>  0.0000  0.0195  0.0095 </r>
        <r>  0.0000  0.0166  0.0116 </r>
        <r>  0.0000  0.0238  0.0097 </r>
        <r>  0.0000  0.0238  0.0097 </r>
        <r>  0.0000  0.0166  0.0116 </r>
        <r>  0.0000  0.0185  0.0098 </r>
        <r>  0.0000  0.0232  0.0092 </r>
        <r>  0.0000  0.0232  0.0092 </r>
        <r>  0.0000  0.0185  0.0098 </r>
       </set>
       <set comment="band 71">
        <r>  0.0000  0.0223  0.0095 </r>
        <r>  0.0000  0.0195  0.0095 </r>
        <r>  0.0000  0.0195  0.0095 </r>
        <r>  0.0000  0.0223  0.0095 </r>
        <r>  0.0000  0.0238  0.0097 </r>
        <r>  0.0000  0.0166  0.0116 </r>
        <r>  0.0000  0.0166  0.0116 </r>
        <r>  0.0000  0.0238  0.0097 </r>
        <r>  0.0000  0.0232  0.0092 </r>
        <r>  0.0000  0.0185  0.0098 </r>
        <r>  0.0000  0.0185  0.0098 </r>
        <r>  0.0000  0.0232  0.0092 </r>
       </set>
       <set comment="band 72">
        <r>  0.0000  0.0209  0.0095 </r>
        <r>  0.0000  0.0209  0.0095 </r>
        <r>  0.0000  0.0209  0.0095 </r>
        <r>  0.0000  0.0209  0.0095 </r>
        <r>  0.0000  0.0202  0.0107 </r>
        <r>  0.0000  0.0202  0.0107 </r>
        <r>  0.0000  0.0202  0.0107 </r>
        <r>  0.0000  0.0202  0.0107 </r>
        <r>  0.0000  0.0209  0.0095 </r>
        <r>  0.0000  0.0209  0.0095 </r>
        <r>  0.0000  0.0209  0.0095 </r>
        <r>  0.0000  0.0209  0.0095 </r>
       </set>
       <set comment="band 73">
        <r>  0.0192  0.0116  0.0104 </r>
        <r>  0.0192  0.0116  0.0104 </r>
        <r>  0.0192  0.0116  0.0104 </r>
        <r>  0.0192  0.0116  0.0104 </r>
        <r>  0.0000  0.0458  0.0280 </r>
        <r>  0.0000  0.0458  0.0280 </r>
        <r>  0.0000  0.0458  0.0280 </r>
        <r>  0.0000  0.0458  0.0280 </r>
        <r>  0.0187  0.0118  0.0105 </r>
        <r>  0.0187  0.0118  0.0105 </r>
        <r>  0.0187  0.0118  0.0105 </r>
        <r>  0.0187  0.0118  0.0105 </r>
       </set>
       <set comment="band 74">
        <r>  0.0187  0.0118  0.0105 </r>
        <r>  0.0187  0.0118  0.0105 </r>
        <r>  0.0187  0.0118  0.0105 </r>
        <r>  0.0187  0.0118  0.0105 </r>
        <r>  0.0000  0.0458  0.0280 </r>
        <r>  0.0000  0.0458  0.0280 </r>
        <r>  0.0000  0.0458  0.0280 </r>
        <r>  0.0000  0.0458  0.0280 </r>
        <r>  0.0192  0.0116  0.0104 </r>
        <r>  0.0192  0.0116  0.0104 </r>
        <r>  0.0192  0.0116  0.0104 </r>
        <r>  0.0192  0.0116  0.0104 </r>
       </set>
       <set comment="band 75">
        <r>  0.0000  0.0222  0.0164 </r>
        <r>  0.0000  0.0222  0.0164 </r>
        <r>  0.0000  0.0222  0.0164 </r>
        <r>  0.0000  0.0222  0.0164 </r>
        <r>  0.0763  0.0000  0.0113 </r>
        <r>  0.0763  0.0000  0.0113 </r>
        <r>  0.0763  0.0000  0.0113 </r>
        <r>  0.0763  0.0000  0.0113 </r>
        <r>  0.0000  0.0222  0.0164 </r>
        <r>  0.0000  0.0222  0.0164 </r>
        <r>  0.0000  0.0222  0.0164 </r>
        <r>  0.0000  0.0222  0.0164 </r>
       </set>
       <set comment="band 76">
        <r>  0.0000  0.0389  0.0215 </r>
        <r>  0.0000  0.0389  0.0215 </r>
        <r>  0.0000  0.0389  0.0215 </r>
        <r>  0.0000  0.0389  0.0215 </r>
        <r>  0.0000  0.0236  0.0000 </r>
        <r>  0.0000  0.0236  0.0000 </r>
        <r>  0.0000  0.0236  0.0000 </r>
        <r>  0.0000  0.0236  0.0000 </r>
        <r>  0.0000  0.0389  0.0215 </r>
        <r>  0.0000  0.0389  0.0215 </r>
        <r>  0.0000  0.0389  0.0215 </r>
        <r>  0.0000  0.0389  0.0215 </r>
       </set>
       <set comment="band 77">
        <r>  0.0341  0.0217  0.0116 </r>
        <r>  0.0341  0.0217  0.0116 </r>
        <r>  0.0341  0.0217  0.0116 </r>
        <r>  0.0341  0.0217  0.0116 </r>
        <r>  0.0000  0.0000  0.0125 </r>
        <r>  0.0000  0.0000  0.0125 </r>
        <r>  0.0000  0.0000  0.0125 </r>
        <r>  0.0000  0.0000  0.0125 </r>
        <r>  0.0341  0.0217  0.0116 </r>
        <r>  0.0341  0.0217  0.0116 </r>
        <r>  0.0341  0.0217  0.0116 </r>
        <r>  0.0341  0.0217  0.0116 </r>
       </set>
       <set comment="band 78">
        <r>  0.0341  0.0217  0.0116 </r>
        <r>  0.0341  0.0217  0.0116 </r>
        <r>  0.0341  0.0217  0.0116 </r>
        <r>  0.0341  0.0217  0.0116 </r>
        <r>  0.0000  0.0000  0.0125 </r>
        <r>  0.0000  0.0000  0.0125 </r>
        <r>  0.0000  0.0000  0.0125 </r>
        <r>  0.0000  0.0000  0.0125 </r>
        <r>  0.0341  0.0217  0.0116 </r>
        <r>  0.0341  0.0217  0.0116 </r>
        <r>  0.0341  0.0217  0.0116 </r>
        <r>  0.0341  0.0217  0.0116 </r>
       </set>
       <set comment="band 79">
        <r>  0.0037  0.0021  0.0027 </r>
        <r>  0.0037  0.0021  0.0027 </r>
        <r>  0.0037  0.0021  0.0027 </r>
        <r>  0.0037  0.0021  0.0027 </r>
        <r>  0.0047  0.0015  0.0026 </r>
        <r>  0.0047  0.0015  0.0026 </r>
        <r>  0.0047  0.0015  0.0026 </r>
        <r>  0.0047  0.0015  0.0026 </r>
        <r>  0.0037  0.0021  0.0027 </r>
        <r>  0.0037  0.0021  0.0027 </r>
        <r>  0.0037  0.0021  0.0027 </r>
        <r>  0.0037  0.0021  0.0027 </r>
       </set>
       <set comment="band 80">
        <r>  0.0030  0.0022  0.0023 </r>
        <r>  0.0044  0.0021  0.0032 </r>
        <r>  0.0044  0.0021  0.0032 </r>
        <r>  0.0030  0.0022  0.0023 </r>
        <r>  0.0037  0.0016  0.0021 </r>
        <r>  0.0056  0.0013  0.0031 </r>
        <r>  0.0056  0.0013  0.0031 </r>
        <r>  0.0037  0.0016  0.0021 </r>
        <r>  0.0037  0.0021  0.0027 </r>
        <r>  0.0038  0.0021  0.0027 </r>
        <r>  0.0038  0.0021  0.0027 </r>
        <r>  0.0037  0.0021  0.0027 </r>
       </set>
       <set comment="band 81">
        <r>  0.0044  0.0021  0.0032 </r>
        <r>  0.0030  0.0022  0.0023 </r>
        <r>  0.0030  0.0022  0.0023 </r>
        <r>  0.0044  0.0021  0.0032 </r>
        <r>  0.0056  0.0013  0.0031 </r>
        <r>  0.0037  0.0016  0.0021 </r>
        <r>  0.0037  0.0016  0.0021 </r>
        <r>  0.0056  0.0013  0.0031 </r>
        <r>  0.0038  0.0021  0.0027 </r>
        <r>  0.0037  0.0021  0.0027 </r>
        <r>  0.0037  0.0021  0.0027 </r>
        <r>  0.0038  0.0021  0.0027 </r>
       </set>
       <set comment="band 82">
        <r>  0.0005  0.0028  0.0011 </r>
        <r>  0.0006  0.0032  0.0011 </r>
        <r>  0.0005  0.0027  0.0011 </r>
        <r>  0.0006  0.0031  0.0011 </r>
        <r>  0.0000  0.0038  0.0008 </r>
        <r>  0.0000  0.0033  0.0009 </r>
        <r>  0.0000  0.0036  0.0009 </r>
        <r>  0.0000  0.0031  0.0009 </r>
        <r>  0.0006  0.0030  0.0011 </r>
        <r>  0.0005  0.0029  0.0011 </r>
        <r>  0.0006  0.0030  0.0011 </r>
        <r>  0.0006  0.0029  0.0011 </r>
       </set>
       <set comment="band 83">
        <r>  0.0007  0.0035  0.0010 </r>
        <r>  0.0005  0.0025  0.0012 </r>
        <r>  0.0005  0.0026  0.0012 </r>
        <r>  0.0006  0.0032  0.0010 </r>
        <r>  0.0000  0.0019  0.0011 </r>
        <r>  0.0000  0.0050  0.0007 </r>
        <r>  0.0000  0.0045  0.0007 </r>
        <r>  0.0000  0.0023  0.0010 </r>
        <r>  0.0003  0.0015  0.0011 </r>
        <r>  0.0009  0.0044  0.0011 </r>
        <r>  0.0009  0.0043  0.0011 </r>
        <r>  0.0003  0.0016  0.0011 </r>
       </set>
       <set comment="band 84">
        <r>  0.0005  0.0025  0.0012 </r>
        <r>  0.0006  0.0032  0.0010 </r>
        <r>  0.0007  0.0035  0.0010 </r>
        <r>  0.0005  0.0026  0.0012 </r>
        <r>  0.0000  0.0045  0.0007 </r>
        <r>  0.0000  0.0020  0.0011 </r>
        <r>  0.0000  0.0022  0.0010 </r>
        <r>  0.0000  0.0050  0.0007 </r>
        <r>  0.0009  0.0043  0.0011 </r>
        <r>  0.0003  0.0016  0.0011 </r>
        <r>  0.0003  0.0016  0.0011 </r>
        <r>  0.0009  0.0043  0.0011 </r>
       </set>
       <set comment="band 85">
        <r>  0.0017  0.0017  0.0016 </r>
        <r>  0.0017  0.0017  0.0016 </r>
        <r>  0.0017  0.0017  0.0015 </r>
        <r>  0.0017  0.0017  0.0015 </r>
        <r>  0.0026  0.0008  0.0016 </r>
        <r>  0.0026  0.0008  0.0016 </r>
        <r>  0.0026  0.0008  0.0016 </r>
        <r>  0.0027  0.0008  0.0017 </r>
        <r>  0.0017  0.0017  0.0016 </r>
        <r>  0.0017  0.0017  0.0016 </r>
        <r>  0.0016  0.0017  0.0015 </r>
        <r>  0.0017  0.0017  0.0015 </r>
       </set>
       <set comment="band 86">
        <r>  0.0029  0.0021  0.0025 </r>
        <r>  0.0004  0.0014  0.0006 </r>
        <r>  0.0004  0.0014  0.0006 </r>
        <r>  0.0030  0.0021  0.0025 </r>
        <r>  0.0052  0.0004  0.0031 </r>
        <r>  0.0001  0.0012  0.0002 </r>
        <r>  0.0002  0.0012  0.0002 </r>
        <r>  0.0050  0.0004  0.0030 </r>
        <r>  0.0020  0.0017  0.0017 </r>
        <r>  0.0013  0.0017  0.0013 </r>
        <r>  0.0014  0.0017  0.0014 </r>
        <r>  0.0020  0.0017  0.0018 </r>
       </set>
       <set comment="band 87">
        <r>  0.0004  0.0014  0.0006 </r>
        <r>  0.0029  0.0021  0.0025 </r>
        <r>  0.0030  0.0021  0.0025 </r>
        <r>  0.0004  0.0014  0.0006 </r>
        <r>  0.0001  0.0012  0.0002 </r>
        <r>  0.0051  0.0004  0.0031 </r>
        <r>  0.0051  0.0004  0.0031 </r>
        <r>  0.0002  0.0012  0.0002 </r>
        <r>  0.0014  0.0017  0.0013 </r>
        <r>  0.0020  0.0017  0.0017 </r>
        <r>  0.0020  0.0018  0.0018 </r>
        <r>  0.0014  0.0017  0.0014 </r>
       </set>
       <set comment="band 88">
        <r>  0.0102  0.0240  0.0068 </r>
        <r>  0.0102  0.0240  0.0068 </r>
        <r>  0.0102  0.0240  0.0068 </r>
        <r>  0.0102  0.0240  0.0068 </r>
        <r>  0.0000  0.0273  0.0120 </r>
        <r>  0.0000  0.0273  0.0120 </r>
        <r>  0.0000  0.0273  0.0120 </r>
        <r>  0.0000  0.0273  0.0120 </r>
        <r>  0.0144  0.0252  0.0049 </r>
        <r>  0.0144  0.0252  0.0049 </r>
        <r>  0.0144  0.0252  0.0049 </r>
        <r>  0.0144  0.0252  0.0049 </r>
       </set>
       <set comment="band 89">
        <r>  0.0144  0.0252  0.0049 </r>
        <r>  0.0144  0.0252  0.0049 </r>
        <r>  0.0144  0.0252  0.0049 </r>
        <r>  0.0144  0.0252  0.0049 </r>
        <r>  0.0000  0.0273  0.0120 </r>
        <r>  0.0000  0.0273  0.0120 </r>
        <r>  0.0000  0.0273  0.0120 </r>
        <r>  0.0000  0.0273  0.0120 </r>
        <r>  0.0102  0.0240  0.0068 </r>
        <r>  0.0102  0.0240  0.0068 </r>
        <r>  0.0102  0.0240  0.0068 </r>
        <r>  0.0102  0.0240  0.0068 </r>
       </set>
       <set comment="band 90">
        <r>  0.0015  0.0039  0.0020 </r>
        <r>  0.0008  0.0027  0.0014 </r>
        <r>  0.0008  0.0027  0.0014 </r>
        <r>  0.0015  0.0039  0.0021 </r>
        <r>  0.0000  0.0085  0.0006 </r>
        <r>  0.0000  0.0016  0.0012 </r>
        <r>  0.0000  0.0017  0.0012 </r>
        <r>  0.0000  0.0086  0.0006 </r>
        <r>  0.0016  0.0040  0.0021 </r>
        <r>  0.0007  0.0026  0.0014 </r>
        <r>  0.0007  0.0026  0.0014 </r>
        <r>  0.0016  0.0040  0.0021 </r>
       </set>
       <set comment="band 91">
        <r>  0.0009  0.0029  0.0015 </r>
        <r>  0.0014  0.0037  0.0020 </r>
        <r>  0.0016  0.0041  0.0021 </r>
        <r>  0.0007  0.0026  0.0014 </r>
        <r>  0.0000  0.0015  0.0013 </r>
        <r>  0.0000  0.0089  0.0006 </r>
        <r>  0.0000  0.0081  0.0006 </r>
        <r>  0.0000  0.0018  0.0012 </r>
        <r>  0.0007  0.0026  0.0014 </r>
        <r>  0.0015  0.0039  0.0021 </r>
        <r>  0.0016  0.0041  0.0021 </r>
        <r>  0.0007  0.0026  0.0014 </r>
       </set>
       <set comment="band 92">
        <r>  0.0011  0.0032  0.0017 </r>
        <r>  0.0013  0.0035  0.0018 </r>
        <r>  0.0011  0.0031  0.0017 </r>
        <r>  0.0012  0.0034  0.0018 </r>
        <r>  0.0000  0.0053  0.0009 </r>
        <r>  0.0000  0.0047  0.0010 </r>
        <r>  0.0000  0.0054  0.0009 </r>
        <r>  0.0000  0.0049  0.0009 </r>
        <r>  0.0012  0.0033  0.0018 </r>
        <r>  0.0012  0.0034  0.0018 </r>
        <r>  0.0011  0.0032  0.0017 </r>
        <r>  0.0011  0.0033  0.0017 </r>
       </set>
       <set comment="band 93">
        <r>  0.0021  0.0049  0.0026 </r>
        <r>  0.0021  0.0049  0.0026 </r>
        <r>  0.0020  0.0048  0.0026 </r>
        <r>  0.0020  0.0048  0.0026 </r>
        <r>  0.0046  0.0015  0.0032 </r>
        <r>  0.0047  0.0015  0.0033 </r>
        <r>  0.0047  0.0014  0.0033 </r>
        <r>  0.0048  0.0014  0.0034 </r>
        <r>  0.0021  0.0049  0.0026 </r>
        <r>  0.0021  0.0049  0.0027 </r>
        <r>  0.0020  0.0048  0.0026 </r>
        <r>  0.0020  0.0048  0.0026 </r>
       </set>
       <set comment="band 94">
        <r>  0.0037  0.0072  0.0039 </r>
        <r>  0.0004  0.0025  0.0013 </r>
        <r>  0.0004  0.0025  0.0012 </r>
        <r>  0.0037  0.0072  0.0040 </r>
        <r>  0.0091  0.0008  0.0063 </r>
        <r>  0.0004  0.0021  0.0004 </r>
        <r>  0.0004  0.0021  0.0004 </r>
        <r>  0.0089  0.0008  0.0061 </r>
        <r>  0.0023  0.0051  0.0027 </r>
        <r>  0.0018  0.0046  0.0025 </r>
        <r>  0.0018  0.0047  0.0025 </r>
        <r>  0.0023  0.0051  0.0027 </r>
       </set>
       <set comment="band 95">
        <r>  0.0004  0.0025  0.0013 </r>
        <r>  0.0037  0.0072  0.0039 </r>
        <r>  0.0037  0.0072  0.0040 </r>
        <r>  0.0004  0.0025  0.0013 </r>
        <r>  0.0003  0.0021  0.0004 </r>
        <r>  0.0090  0.0008  0.0062 </r>
        <r>  0.0090  0.0008  0.0062 </r>
        <r>  0.0004  0.0021  0.0004 </r>
        <r>  0.0018  0.0046  0.0025 </r>
        <r>  0.0023  0.0050  0.0027 </r>
        <r>  0.0024  0.0051  0.0027 </r>
        <r>  0.0018  0.0046  0.0025 </r>
       </set>
       <set comment="band 96">
        <r>  0.0000  0.0178  0.0165 </r>
        <r>  0.0000  0.0178  0.0165 </r>
        <r>  0.0000  0.0178  0.0165 </r>
        <r>  0.0000  0.0178  0.0165 </r>
        <r>  0.0631  0.0000  0.0000 </r>
        <r>  0.0631  0.0000  0.0000 </r>
        <r>  0.0631  0.0000  0.0000 </r>
        <r>  0.0631  0.0000  0.0000 </r>
        <r>  0.0000  0.0178  0.0165 </r>
        <r>  0.0000  0.0178  0.0165 </r>
        <r>  0.0000  0.0178  0.0165 </r>
        <r>  0.0000  0.0178  0.0165 </r>
       </set>
      </set>
     </set>
    </set>
   </array>
  </projected>
 </calculation>
 <structure name="finalpos" >
  <crystal>
   <varray name="basis" >
    <v>       5.86474364       0.00000000       0.00000000 </v>
    <v>       2.93237182       5.07901698       0.00000000 </v>
    <v>       0.00000000       0.00000000      24.78854313 </v>
   </varray>
   <i name="volume">    738.37961946 </i>
   <varray name="rec_basis" >
    <v>       0.17051044      -0.09844425       0.00000000 </v>
    <v>       0.00000000       0.19688849       0.00000000 </v>
    <v>       0.00000000       0.00000000       0.04034122 </v>
   </varray>
  </crystal>
  <varray name="positions" >
   <v>       0.16666667       0.16666667       0.40398834 </v>
   <v>       0.66666667       0.16666667       0.40398834 </v>
   <v>       0.16666667       0.66666667       0.40398834 </v>
   <v>       0.66666667       0.66666667       0.40398834 </v>
   <v>       0.83333333       0.33333333       0.50000000 </v>
   <v>       0.33333333       0.33333333       0.50000000 </v>
   <v>       0.83333333       0.83333333       0.50000000 </v>
   <v>       0.33333333       0.83333333       0.50000000 </v>
   <v>       0.00000000       0.00000000       0.59601166 </v>
   <v>       0.50000000       0.00000000       0.59601166 </v>
   <v>       0.00000000       0.50000000       0.59601166 </v>
   <v>       0.50000000       0.50000000       0.59601166 </v>
  </varray>
 </structure>
</modeling>
