----- GAMESS execution script 'rungms' -----
This job is running on host crcfe01.crc.nd.edu
under operating system Linux at Thu Oct 17 12:46:10 EDT 2019
Available scratch disk space (Kbyte units) at beginning of the job is
Filesystem      1K-blocks  Used  Available Use% Mounted on
AFS            2147483647     0 2147483647   0% /afs
GAMESS temporary binary files will be written to /afs/crc.nd.edu/user/c/cdrisko
GAMESS supplementary output files will be written to /afs/crc.nd.edu/user/c/cdrisko/scr
Copying input file acetaldehyde.inp to your run's scratch directory...

 Distributed Data Interface kickoff program.
 Initiating 1 compute processes on 1 nodes to run the following command:
 /afs/crc.nd.edu/x86_64_linux/g/gamess/nov-2017/gamess/gamess.00.x acetaldehyde 

          ******************************************************
          *         GAMESS VERSION = 11 NOV 2017 (R3)         *
          *             FROM IOWA STATE UNIVERSITY             *
          * M.W.SCHMIDT, K.K.BALDRIDGE, J.A.BOATZ, S.T.ELBERT, *
          *   M.S.GORDON, J.H.JENSEN, S.KOSEKI, N.MATSUNAGA,   *
          *          K.A.NGUYEN, S.J.SU, T.L.WINDUS,           *
          *       TOGETHER WITH M.DUPUIS, J.A.MONTGOMERY       *
          *         J.COMPUT.CHEM.  14, 1347-1363(1993)        *
          **************** 64 BIT INTEL VERSION ****************

  SINCE 1993, STUDENTS AND POSTDOCS WORKING AT IOWA STATE UNIVERSITY
  AND ALSO IN THEIR VARIOUS JOBS AFTER LEAVING ISU HAVE MADE IMPORTANT
  CONTRIBUTIONS TO THE CODE:
     IVANA ADAMOVIC, CHRISTINE AIKENS, YURI ALEXEEV, POOJA ARORA,
     ANDREY ASADCHEV, ROB BELL, PRADIPTA BANDYOPADHYAY, JONATHAN BENTZ,
     BRETT BODE, KURT BRORSEN, CALEB CARLIN, GALINA CHABAN, WEI CHEN,
     CHEOL HO CHOI, PAUL DAY, ALBERT DEFUSCO, NUWAN DESILVA, TIM DUDLEY,
     DMITRI FEDOROV, ALEX FINDLATER, GRAHAM FLETCHER, MARK FREITAG,
     KURT GLAESEMANN, ANASTASIA GUININA,
     DAN KEMP, GRANT MERRILL, NORIYUKI MINEZAWA, JONATHAN MULLIN,
     TAKESHI NAGATA, SEAN NEDD, HEATHER NETZLOFF, BOSILJKA NJEGIC, RYAN OLSON,
     MIKE PAK, BUU PHAM,
     SPENCER PRUITT, LUKE ROSKOP, JIM SHOEMAKER, LYUDMILA SLIPCHENKO,
     TONY SMITH, SAROM SOK LEANG, JIE SONG, TETSUYA TAKETSUGU, SIMON WEBB,
     PENG XU, SOOHAENG YOO, FEDERICO ZAHARIEV

  ADDITIONAL CODE HAS BEEN PROVIDED BY COLLABORATORS IN OTHER GROUPS:
     IOWA STATE UNIVERSITY:
          JOE IVANIC, AARON WEST, LAIMUTIS BYTAUTAS, KLAUS RUEDENBERG
     UNIVERSITY OF TOKYO: KIMIHIKO HIRAO, TAKAHITO NAKAJIMA,
          TAKAO TSUNEDA, MUNEAKI KAMIYA, SUSUMU YANAGISAWA,
          KIYOSHI YAGI, MAHITO CHIBA, SEIKEN TOKURA, NAOAKI KAWAKAMI
     UNIVERSITY OF AARHUS: FRANK JENSEN
     UNIVERSITY OF IOWA: VISVALDAS KAIRYS, HUI LI
     NATIONAL INST. OF STANDARDS AND TECHNOLOGY: WALT STEVENS, DAVID GARMER
     UNIVERSITY OF PISA: BENEDETTA MENNUCCI, JACOPO TOMASI
     UNIVERSITY OF MEMPHIS: HENRY KURTZ, PRAKASHAN KORAMBATH
     UNIVERSITY OF ALBERTA: TOBY ZENG, MARIUSZ KLOBUKOWSKI
     UNIVERSITY OF NEW ENGLAND: MARK SPACKMAN
     MIE UNIVERSITY: HIROAKI UMEDA
     NAT. INST. OF ADVANCED INDUSTRIAL SCIENCE AND TECHNOLOGY: KAZUO KITAURA
     MICHIGAN STATE UNIVERSITY:
          KAROL KOWALSKI, MARTA WLOCH, JEFFREY GOUR, JESSE LUTZ,
          WEI LI, PIOTR PIECUCH
     UNIVERSITY OF SILESIA: MONIKA MUSIAL, STANISLAW KUCHARSKI
     FACULTES UNIVERSITAIRES NOTRE-DAME DE LA PAIX:
          OLIVIER QUINET, BENOIT CHAMPAGNE
     UNIVERSITY OF CALIFORNIA - SANTA BARBARA: BERNARD KIRTMAN
     INSTITUTE FOR MOLECULAR SCIENCE:
          KAZUYA ISHIMURA, MICHIO KATOUDA, AND SHIGERU NAGASE
     UNIVERSITY OF NOTRE DAME: ANNA POMOGAEVA, DAN CHIPMAN
     KYUSHU UNIVERSITY:
          HARUYUKI NAKANO,
          FENG LONG GU, JACEK KORCHOWIEC, MARCIN MAKOWSKI, AND YURIKO AOKI,
          HIROTOSHI MORI AND EISAKU MIYOSHI
     PENNSYLVANIA STATE UNIVERSITY:
          TZVETELIN IORDANOV, CHET SWALINA, JONATHAN SKONE,
          SHARON HAMMES-SCHIFFER
     WASEDA UNIVERSITY:
          MASATO KOBAYASHI, TOMOKO AKAMA, TSUGUKI TOUMA,
          TAKESHI YOSHIKAWA, YASUHIRO IKABATA, JUNJI SEINO,
          YUYA NAKAJIMA, HIROMI NAKAI
     NANJING UNIVERSITY: SHUHUA LI
     UNIVERSITY OF NEBRASKA:
          PEIFENG SU, DEJUN SI, NANDUN THELLAMUREGE, YALI WANG, HUI LI
     UNIVERSITY OF ZURICH: ROBERTO PEVERATI, KIM BALDRIDGE
     N. COPERNICUS UNIVERSITY AND JACKSON STATE UNIVERSITY:
          MARIA BARYSZ
     UNIVERSITY OF COPENHAGEN: Jimmy Kromann, CASPER STEINMANN
     TOKYO INSTITUTE OF TECHNOLOGY: HIROYA NAKATA
     NAGOYA UNIVERSITY: YOSHIO NISHIMOTO, STEPHAN IRLE
     MOSCOW STATE UNIVERSITY: VLADIMIR MIRONOV

 EXECUTION OF GAMESS BEGUN Thu Oct 17 12:46:10 2019

            ECHO OF THE FIRST FEW INPUT CARDS -
 INPUT CARD> $CONTRL SCFTYP=RHF DFTTYP=B3LYP RUNTYP=ENERGY                                  
 INPUT CARD>       ISPHER=1 MULT=1 COORD=ZMT NZVAR=15 $END                                  
 INPUT CARD> $BASIS GBASIS=N31 NGAUSS=6 NDFUNC=1 $END                                       
 INPUT CARD> $STATPT IFREEZ(1)=9 $END                                                       
 INPUT CARD> $DATA                                                                          
 INPUT CARD>Title Single Point Energy Calculation of Acetaldehyde                           
 INPUT CARD>C1                                                                              
 INPUT CARD>C                                                                               
 INPUT CARD>C      1   1.5086892                                                            
 INPUT CARD>O      2   1.2107245  1  124.7161                                               
 INPUT CARD>H      2   1.1145804  1  114.7739  3  180.0000  0                               
 INPUT CARD>H      1   1.0926781  2  110.5176  3  80.      0                                
 INPUT CARD>H      1   1.0983769  2  109.8265  3  121.4889  0                               
 INPUT CARD>H      1   1.0983769  2  109.8265  3 -121.4889  0                               
 INPUT CARD> $END                                                                           
    1000000 WORDS OF MEMORY AVAILABLE

     BASIS OPTIONS
     -------------
     GBASIS=N31          IGAUSS=       6      POLAR=POPN31  
     NDFUNC=       1     NFFUNC=       0     DIFFSP=       F
     NPFUNC=       0      DIFFS=       F     BASNAM=        


     RUN TITLE
     ---------
 Title Single Point Energy Calculation of Acetaldehyde                           

 THE POINT GROUP OF THE MOLECULE IS C1      
 THE ORDER OF THE PRINCIPAL AXIS IS     0

 YOUR FULLY SUBSTITUTED Z-MATRIX IS
 C   
 C      1   1.5086892
 O      2   1.2107245  1  124.7161
 H      2   1.1145804  1  114.7739  3  180.0000  0
 H      1   1.0926781  2  110.5176  3   80.0000  0
 H      1   1.0983769  2  109.8265  3  121.4889  0
 H      1   1.0983769  2  109.8265  3 -121.4889  0

 THE MOMENTS OF INERTIA ARE (AMU-ANGSTROM**2)
 IXX=     8.446   IYY=    52.039   IZZ=    55.619

 ATOM      ATOMIC                      COORDINATES (BOHR)
           CHARGE         X                   Y                   Z
 C           6.0    -2.3649851564        0.3652081060        0.1786266743
 C           6.0     0.2422156307       -0.7592071061       -0.0791481892
 O           8.0     2.1922024911        0.4319593344        0.0363160718
 H           1.0     0.2781198404       -2.8411550479       -0.3961643334
 H           1.0    -2.9543445202        1.2405734940       -1.5962104704
 H           1.0    -3.4751140348       -0.0322397453       -1.5295579388
 H           1.0    -3.3650428397       -0.5314062956        1.7610971601

          INTERNUCLEAR DISTANCES (ANGS.)
          ------------------------------

                1 C          2 C          3 O          4 H          5 H     

   1 C       0.0000000    1.5086892 *  2.4129941 *  2.2198436 *  1.0926781 *
   2 C       1.5086892 *  0.0000000    1.2107245 *  1.1145804 *  2.1507392 *
   3 O       2.4129941 *  1.2107245 *  0.0000000    2.0194911 *  2.8890338 *
   4 H       2.2198436 *  1.1145804 *  2.0194911 *  0.0000000    2.8274830 *
   5 H       1.0926781 *  2.1507392 *  2.8890338 *  2.8274830 *  0.0000000  
   6 H       1.0983769 *  2.1463151 *  3.1210656    2.5522231 *  0.7285941 *
   7 H       1.0983769 *  2.1463151 *  3.1210656    2.5522231 *  2.0206050 *

                6 H          7 H     

   1 C       1.0983769 *  1.0983769 *
   2 C       2.1463151 *  2.1463151 *
   3 O       3.1210656    3.1210656  
   4 H       2.5522231 *  2.5522231 *
   5 H       0.7285941 *  2.0206050 *
   6 H       0.0000000    1.7622233 *
   7 H       1.7622233 *  0.0000000  

  * ... LESS THAN  3.000


     ATOMIC BASIS SET
     ----------------
 THE CONTRACTED PRIMITIVE FUNCTIONS HAVE BEEN UNNORMALIZED
 THE CONTRACTED BASIS FUNCTIONS ARE NOW NORMALIZED TO UNITY

  SHELL TYPE  PRIMITIVE        EXPONENT          CONTRACTION COEFFICIENT(S)

 C         

      1   S       1          3047.5248800    0.001834737132
      1   S       2           457.3695180    0.014037322813
      1   S       3           103.9486850    0.068842622264
      1   S       4            29.2101553    0.232184443216
      1   S       5             9.2866630    0.467941348435
      1   S       6             3.1639270    0.362311985337

      2   L       7             7.8682723   -0.119332419775    0.068999066591
      2   L       8             1.8812885   -0.160854151696    0.316423960957
      2   L       9             0.5442493    1.143456437840    0.744308290898

      3   L      10             0.1687145    1.000000000000    1.000000000000

      4   D      11             0.8000000    1.000000000000

 C         

      5   S      12          3047.5248800    0.001834737132
      5   S      13           457.3695180    0.014037322813
      5   S      14           103.9486850    0.068842622264
      5   S      15            29.2101553    0.232184443216
      5   S      16             9.2866630    0.467941348435
      5   S      17             3.1639270    0.362311985337

      6   L      18             7.8682723   -0.119332419775    0.068999066591
      6   L      19             1.8812885   -0.160854151696    0.316423960957
      6   L      20             0.5442493    1.143456437840    0.744308290898

      7   L      21             0.1687145    1.000000000000    1.000000000000

      8   D      22             0.8000000    1.000000000000

 O         

      9   S      23          5484.6716600    0.001831074430
      9   S      24           825.2349460    0.013950172200
      9   S      25           188.0469580    0.068445078098
      9   S      26            52.9645000    0.232714335992
      9   S      27            16.8975704    0.470192897984
      9   S      28             5.7996353    0.358520852987

     10   L      29            15.5396162   -0.110777549525    0.070874268231
     10   L      30             3.5999336   -0.148026262701    0.339752839147
     10   L      31             1.0137618    1.130767015354    0.727158577316

     11   L      32             0.2700058    1.000000000000    1.000000000000

     12   D      33             0.8000000    1.000000000000

 H         

     13   S      34            18.7311370    0.033494604338
     13   S      35             2.8253944    0.234726953484
     13   S      36             0.6401217    0.813757326146

     14   S      37             0.1612778    1.000000000000

 H         

     15   S      38            18.7311370    0.033494604338
     15   S      39             2.8253944    0.234726953484
     15   S      40             0.6401217    0.813757326146

     16   S      41             0.1612778    1.000000000000

 H         

     17   S      42            18.7311370    0.033494604338
     17   S      43             2.8253944    0.234726953484
     17   S      44             0.6401217    0.813757326146

     18   S      45             0.1612778    1.000000000000

 H         

     19   S      46            18.7311370    0.033494604338
     19   S      47             2.8253944    0.234726953484
     19   S      48             0.6401217    0.813757326146

     20   S      49             0.1612778    1.000000000000

 TOTAL NUMBER OF BASIS SET SHELLS             =   20
 NUMBER OF CARTESIAN GAUSSIAN BASIS FUNCTIONS =   53
 NOTE: THIS RUN WILL RESTRICT THE MO VARIATION SPACE TO SPHERICAL HARMONICS.
 THE NUMBER OF ORBITALS KEPT IN THE VARIATIONAL SPACE WILL BE PRINTED LATER.
 NUMBER OF ELECTRONS                          =   24
 CHARGE OF MOLECULE                           =    0
 SPIN MULTIPLICITY                            =    1
 NUMBER OF OCCUPIED ORBITALS (ALPHA)          =   12
 NUMBER OF OCCUPIED ORBITALS (BETA )          =   12
 TOTAL NUMBER OF ATOMS                        =    7
 THE NUCLEAR REPULSION ENERGY IS       69.6989825120

     LEBEDEV GRID-BASED DFT OPTIONS
     ------------------------------
     DFTTYP=B3LYP   
     NRAD  =      96     NLEB  =     302
     NRAD0 =      24     NLEB0 =     110
     SWOFF =    5.00E-03 (PURE SCF -> DFT)
     SWITCH=    3.00E-04 (COARSE -> TIGHT GRID)
     THRESH=    0.00E+00 GTHRE=    1.00E+00

 GRIMME'S EMPIRICAL DISPERSION CORRECTION= F

     $CONTRL OPTIONS
     ---------------
 SCFTYP=RHF          RUNTYP=ENERGY       EXETYP=RUN     
 MPLEVL=       0     CITYP =NONE         CCTYP =NONE         VBTYP =NONE    
 DFTTYP=B3LYP        TDDFT =NONE    
 MULT  =       1     ICHARG=       0     NZVAR =      15     COORD =ZMT     
 PP    =NONE         RELWFN=NONE         LOCAL =NONE         NUMGRD=       F
 ISPHER=       1     NOSYM =       0     MAXIT =      30     UNITS =ANGS    
 PLTORB=       F     MOLPLT=       F     AIMPAC=       F     FRIEND=        
 NPRINT=       7     IREST =       0     GEOM  =INPUT   
 NORMF =       0     NORMP =       0     ITOL  =      20     ICUT  =       9
 INTTYP=BEST         GRDTYP=BEST         QMTTOL= 1.0E-06

     $SYSTEM OPTIONS
     ---------------
  REPLICATED MEMORY=     1000000 WORDS (ON EVERY NODE).
 DISTRIBUTED MEMDDI=           0 MILLION WORDS IN AGGREGATE,
 MEMDDI DISTRIBUTED OVER   1 PROCESSORS IS           0 WORDS/PROCESSOR.
 TOTAL MEMORY REQUESTED ON EACH PROCESSOR=     1000000 WORDS.
 TIMLIM=      525600.00 MINUTES, OR     365.0 DAYS.
 PARALL= F  BALTYP=  DLB     KDIAG=    0  COREFL= F
 MXSEQ2=     300 MXSEQ3=     150  mem10=         0

          ----------------
          PROPERTIES INPUT
          ----------------

     MOMENTS            FIELD           POTENTIAL          DENSITY
 IEMOM =       1   IEFLD =       0   IEPOT =       0   IEDEN =       0
 WHERE =COMASS     WHERE =NUCLEI     WHERE =NUCLEI     WHERE =NUCLEI  
 OUTPUT=BOTH       OUTPUT=BOTH       OUTPUT=BOTH       OUTPUT=BOTH    
 IEMINT=       0   IEFINT=       0                     IEDINT=       0
                                                       MORB  =       0
          EXTRAPOLATION IN EFFECT
          DIIS IN EFFECT
 ORBITAL PRINTING OPTION: NPREO=     1    53     2     1

     -------------------------------
     INTEGRAL TRANSFORMATION OPTIONS
     -------------------------------
     NWORD  =            0
     CUTOFF = 1.0E-09     MPTRAN =       0
     DIRTRF =       F     AOINTS =DUP     

          ----------------------
          INTEGRAL INPUT OPTIONS
          ----------------------
 NOPK  =       1 NORDER=       0 SCHWRZ=       T

   --- ENCODED Z MATRIX ---
 COORD  TYPE   I   J   K   L   M   N
    1      1    2   1
    2      1    3   2
    3      2    3   2   1
    4      1    4   2
    5      2    4   2   1
    6      3    4   2   1   3
    7      1    5   1
    8      2    5   1   2
    9      3    5   1   2   3
   10      1    6   1
   11      2    6   1   2
   12      3    6   1   2   3
   13      1    7   1
   14      2    7   1   2
   15      3    7   1   2   3

 THE DETERMINANT OF THE G MATRIX IS 10**(    -8)


                     --------------------
                     INTERNAL COORDINATES
                     --------------------

                 - - ATOMS - -         COORDINATE      COORDINATE
 NO.   TYPE    I  J  K  L  M  N        (BOHR,RAD)       (ANG,DEG)
 ----------------------------------------------------------------
   1 STRETCH   2  1                     2.8510092       1.5086892
   2 STRETCH   3  2                     2.2879376       1.2107245
   3 BEND      3  2  1                  2.1767066     124.7161000
   4 STRETCH   4  2                     2.1062515       1.1145804
   5 BEND      4  2  1                  2.0031825     114.7739000
   6 TORSION   4  2  1  3               3.1415927     180.0000000
   7 STRETCH   5  1                     2.0648622       1.0926781
   8 BEND      5  1  2                  1.9288960     110.5176000
   9 TORSION   5  1  2  3               1.3962634      80.0000000
  10 STRETCH   6  1                     2.0756314       1.0983769
  11 BEND      6  1  2                  1.9168340     109.8265000
  12 TORSION   6  1  2  3               2.1203813     121.4889000
  13 STRETCH   7  1                     2.0756314       1.0983769
  14 BEND      7  1  2                  1.9168340     109.8265000
  15 TORSION   7  1  2  3              -2.1203813    -121.4889000

     ------------------------------------------
     THE POINT GROUP IS C1 , NAXIS= 0, ORDER= 1
     ------------------------------------------

 -- VARIATIONAL SPACE WILL BE RESTRICTED TO PURE SPHERICAL HARMONICS ONLY --
 AFTER EXCLUDING CONTAMINANT COMBINATIONS FROM THE CARTESIAN GAUSSIAN BASIS
 SET, THE NUMBER OF SPHERICAL HARMONICS KEPT IN THE VARIATION SPACE IS   50

     DIMENSIONS OF THE SYMMETRY SUBSPACES ARE
 A   =   50

 ..... DONE SETTING UP THE RUN .....
 STEP CPU TIME =     0.02 TOTAL CPU TIME =          0.0 (      0.0 MIN)
 TOTAL WALL CLOCK TIME=          0.0 SECONDS, CPU UTILIZATION IS    66.67%

          ********************
          1 ELECTRON INTEGRALS
          ********************
 ...... END OF ONE-ELECTRON INTEGRALS ......
 STEP CPU TIME =     0.00 TOTAL CPU TIME =          0.0 (      0.0 MIN)
 TOTAL WALL CLOCK TIME=          0.0 SECONDS, CPU UTILIZATION IS    66.67%

          -------------
          GUESS OPTIONS
          -------------
          GUESS =HUCKEL            NORB  =       0          NORDER=       0
          MIX   =       F          PRTMO =       F          PUNMO =       F
          TOLZ  = 1.0E-08          TOLE  = 1.0E-05
          SYMDEN=       F          PURIFY=       F

 INITIAL GUESS ORBITALS GENERATED BY HUCKEL   ROUTINE.
 HUCKEL GUESS REQUIRES     27154 WORDS.

 STATISTICS FOR GENERATION OF SYMMETRY ORBITAL -Q- MATRIX
 NUMBER OF CARTESIAN ATOMIC ORBITALS=         53
 NUMBER OF SPHERICAL CONTAMINANTS DROPPED=     3
 NUMBER OF LINEARLY DEPENDENT MOS DROPPED=     0
 TOTAL NUMBER OF MOS IN VARIATION SPACE=      50

 SYMMETRIES FOR INITIAL GUESS ORBITALS FOLLOW.   BOTH SET(S).
    12 ORBITALS ARE OCCUPIED (    3 CORE ORBITALS).
     4=A        5=A        6=A        7=A        8=A        9=A       10=A   
    11=A       12=A       13=A       14=A       15=A       16=A       17=A   
    18=A       19=A       20=A       21=A       22=A   
 ...... END OF INITIAL ORBITAL SELECTION ......
 STEP CPU TIME =     0.01 TOTAL CPU TIME =          0.0 (      0.0 MIN)
 TOTAL WALL CLOCK TIME=          0.0 SECONDS, CPU UTILIZATION IS    75.00%

                    ----------------------
                    AO INTEGRAL TECHNOLOGY
                    ----------------------
     S,P,L SHELL ROTATED AXIS INTEGRALS, REPROGRAMMED BY
        KAZUYA ISHIMURA (IMS) AND JOSE SIERRA (SYNSTAR).
     S,P,D,L SHELL ROTATED AXIS INTEGRALS PROGRAMMED BY
        KAZUYA ISHIMURA (INSTITUTE FOR MOLECULAR SCIENCE).
     S,P,D,F,G SHELL TO TOTAL QUARTET ANGULAR MOMENTUM SUM 5,
        ERIC PROGRAM BY GRAHAM FLETCHER (ELORET AND NASA ADVANCED
        SUPERCOMPUTING DIVISION, AMES RESEARCH CENTER).
     S,P,D,F,G,L SHELL GENERAL RYS QUADRATURE PROGRAMMED BY
        MICHEL DUPUIS (PACIFIC NORTHWEST NATIONAL LABORATORY).

          --------------------
          2 ELECTRON INTEGRALS
          --------------------

 THE -PK- OPTION IS OFF, THE INTEGRALS ARE NOT IN SUPERMATRIX FORM.
 STORING   15000 INTEGRALS/RECORD ON DISK, USING 12 BYTES/INTEGRAL.
 TWO ELECTRON INTEGRAL EVALUATION REQUIRES   90606 WORDS OF MEMORY.
 SCHWARZ INEQUALITY OVERHEAD:      1430 INTEGRALS, T=        0.00
 II,JST,KST,LST =  1  1  1  1 NREC =         1 INTLOC =    1
 II,JST,KST,LST =  2  1  1  1 NREC =         1 INTLOC =    2
 II,JST,KST,LST =  3  1  1  1 NREC =         1 INTLOC =   34
 II,JST,KST,LST =  4  1  1  1 NREC =         1 INTLOC =  214
 II,JST,KST,LST =  5  1  1  1 NREC =         1 INTLOC = 1189
 II,JST,KST,LST =  6  1  1  1 NREC =         1 INTLOC = 3237
 II,JST,KST,LST =  7  1  1  1 NREC =         2 INTLOC =  986
 II,JST,KST,LST =  8  1  1  1 NREC =         3 INTLOC = 8245
 II,JST,KST,LST =  9  1  1  1 NREC =         7 INTLOC = 6182
 II,JST,KST,LST = 10  1  1  1 NREC =         8 INTLOC = 3614
 II,JST,KST,LST = 11  1  1  1 NREC =        13 INTLOC = 1236
 II,JST,KST,LST = 12  1  1  1 NREC =        20 INTLOC =    9
 II,JST,KST,LST = 13  1  1  1 NREC =        34 INTLOC =11005
 II,JST,KST,LST = 14  1  1  1 NREC =        37 INTLOC =14012
 II,JST,KST,LST = 15  1  1  1 NREC =        41 INTLOC = 5589
 II,JST,KST,LST = 16  1  1  1 NREC =        44 INTLOC =13716
 II,JST,KST,LST = 17  1  1  1 NREC =        48 INTLOC =12082
 II,JST,KST,LST = 18  1  1  1 NREC =        52 INTLOC =11194
 II,JST,KST,LST = 19  1  1  1 NREC =        57 INTLOC = 1919
 II,JST,KST,LST = 20  1  1  1 NREC =        61 INTLOC = 8592
 SCHWARZ INEQUALITY TEST SKIPPED         851 INTEGRAL BLOCKS.
 TOTAL NUMBER OF NONZERO TWO-ELECTRON INTEGRALS =              982360
         66 INTEGRAL RECORDS WERE STORED ON DISK FILE  8.
  ...... END OF TWO-ELECTRON INTEGRALS .....
 STEP CPU TIME =     0.11 TOTAL CPU TIME =          0.1 (      0.0 MIN)
 TOTAL WALL CLOCK TIME=          0.1 SECONDS, CPU UTILIZATION IS    93.33%

          --------------------------
             R-B3LYP SCF CALCULATION
          --------------------------

     NUCLEAR ENERGY =        69.6989825120
     MAXIT =   30     NPUNCH=    2
     EXTRAP=T  DAMP=F  SHIFT=F  RSTRCT=F  DIIS=T  DEM=F  SOSCF=F
         DENSITY MATRIX CONVERGENCE THRESHOLD=  1.00E-05
     COARSE -> FINE DFT GRID SWITCH THRESHOLD=  3.00E-04 (SWITCH IN $DFT)
                   HF -> DFT SWITCH THRESHOLD=  5.00E-03 (SWOFF IN $DFT)
     MEMORY REQUIRED FOR RHF ITERS=    307426 WORDS.

 DFT CODE IS SWITCHING FROM THE FINE GRID NRAD= 96,  NLEB=  302
                      TO THE COARSE GRID NRAD0= 24, NLEB0=  110

     EXCHANGE FUNCTIONAL   =B88&HFX   
     CORRELATION FUNCTIONAL=LYP88&VWN5
     DFT THRESHOLD         =.197E-07
     GRID CHANGE THRESHOLD =.300E-03
 FOR AN EULER-MACLAURIN QUADRATURE USING  96 RADIAL POINTS:
 SMALLEST GAUSSIAN PRIMITIVE EXPONENT=        0.1612777588 OF TYPE -S-
 ON ATOM NUMBER   4 HAS RADIAL NORMALIZATION=  1.000000
  LARGEST GAUSSIAN PRIMITIVE EXPONENT=     5484.6716600000 OF TYPE -S-
 ON ATOM NUMBER   3 HAS RADIAL NORMALIZATION=  1.000000
 DFT IS SWITCHED OFF, PERFORMING PURE SCF UNTIL SWOFF THRESHOLD IS REACHED.

 ITER EX DEM     TOTAL ENERGY        E CHANGE  DENSITY CHANGE    DIIS ERROR
          * * *   INITIATING DIIS PROCEDURE   * * *
   1  0  0     -152.1996365303  -152.1996365303   0.263335049   0.495521659
   2  1  0     -152.6696093716    -0.4699728413   0.126557251   0.110744600
   3  2  0     -152.7059153460    -0.0363059743   0.060366206   0.075145271
   4  3  0     -152.7221322294    -0.0162168835   0.029911919   0.008816025
   5  4  0     -152.7229446980    -0.0008124685   0.010567618   0.002873077
   6  5  0     -152.7230397329    -0.0000950349   0.005856592   0.000779027
   7  6  0     -152.7230551284    -0.0000153955   0.002274166   0.000342211
 CONVERGED TO SWOFF, SO DFT CALCULATION IS NOW SWITCHED ON.
          * * *   INITIATING DIIS PROCEDURE   * * *
   8  7  0     -153.5463095484    -0.8232544200   0.078706411   0.051192948
   9  8  0     -153.5571055706    -0.0107960222   0.056852377   0.032683291
  10  9  0     -153.5544722894     0.0026332812   0.042599136   0.045764618
  11 10  0     -153.5601620248    -0.0056897354   0.007602743   0.009052184
  12 11  0     -153.5603315247    -0.0001694999   0.002748939   0.000773025
  13 12  0     -153.5603356561    -0.0000041313   0.000560869   0.000168909
  14 13  0     -153.5603358547    -0.0000001986   0.000089190   0.000062827
 DFT CODE IS SWITCHING BACK TO THE FINE GRID
          * * *   INITIATING DIIS PROCEDURE   * * *
  15 14  0     -153.5597856373     0.0005502174   0.002211755   0.001829897
  16 15  0     -153.5597935003    -0.0000078631   0.000914365   0.000316354
  17 16  0     -153.5597928548     0.0000006455   0.000545840   0.000549751
  18 17  0     -153.5597938973    -0.0000010425   0.000060053   0.000054296
  19 18  0     -153.5597939053    -0.0000000079   0.000045947   0.000019334
  20 19  0     -153.5597939072    -0.0000000020   0.000013810   0.000005069
  21 20  0     -153.5597939073    -0.0000000001   0.000002477   0.000001254
  22 21  0     -153.5597939074    -0.0000000000   0.000000160   0.000000100

          -----------------
          DENSITY CONVERGED
          -----------------
     TIME TO FORM FOCK OPERATORS=       5.5 SECONDS (       0.2 SEC/ITER)
     TIME TO SOLVE SCF EQUATIONS=       0.0 SECONDS (       0.0 SEC/ITER)

 FINAL R-B3LYP ENERGY IS     -153.5597939074 AFTER  22 ITERATIONS
 DFT EXCHANGE + CORRELATION ENERGY =       -16.8272825134
 TOTAL ELECTRON NUMBER             =        23.9999565366

          ------------
          EIGENVECTORS
          ------------

                      1          2          3          4          5
                  -19.1436   -10.2714   -10.1894    -1.0403    -0.8279
                     A          A          A          A          A   
    1  C  1  S   -0.000009   0.000958   0.995134  -0.018855  -0.160337
    2  C  1  S   -0.000505  -0.001024   0.035932   0.036777   0.314936
    3  C  1  X   -0.000260  -0.000942  -0.000581   0.022828  -0.050547
    4  C  1  Y    0.000057   0.000365  -0.001281  -0.006003  -0.024103
    5  C  1  Z    0.000020  -0.000002  -0.001517  -0.007173  -0.142487
    6  C  1  S    0.000689   0.005606  -0.027568   0.015540   0.216952
    7  C  1  X   -0.001124   0.002692  -0.000336   0.003971  -0.017219
    8  C  1  Y   -0.001452  -0.002049   0.004129   0.005101  -0.015266
    9  C  1  Z   -0.000094  -0.000133   0.001775  -0.001326  -0.020232
   10  C  1 XX   -0.000378  -0.000976   0.000010   0.004522  -0.004578
   11  C  1 YY    0.000368   0.000254  -0.000192  -0.003498  -0.015816
   12  C  1 ZZ    0.000010   0.000722   0.000182  -0.001024   0.020394
   13  C  1 XY   -0.000166   0.000697  -0.000037  -0.002197  -0.002138
   14  C  1 XZ   -0.000022   0.000184   0.000166  -0.000408   0.012975
   15  C  1 YZ    0.000084  -0.000143  -0.000231  -0.000505  -0.006494
   16  C  2  S    0.000231   0.995152  -0.000913  -0.117211  -0.041033
   17  C  2  S    0.000032   0.035717  -0.001184   0.223597   0.077909
   18  C  2  X   -0.000047   0.001699   0.000452   0.155673  -0.118822
   19  C  2  Y   -0.000230   0.001320  -0.000428   0.098590  -0.000128
   20  C  2  Z   -0.000031   0.000180  -0.000088   0.009236  -0.008476
   21  C  2  S    0.008877  -0.016138   0.005740   0.086053   0.069926
   22  C  2  X    0.005239   0.005870  -0.004369  -0.014036  -0.024402
   23  C  2  Y    0.005046   0.002453   0.000670  -0.017740   0.002637
   24  C  2  Z    0.000559   0.000126   0.000098  -0.003048  -0.006352
   25  C  2 XX   -0.000547   0.001341  -0.000873   0.016853   0.004586
   26  C  2 YY    0.000265  -0.000173   0.000419  -0.001891  -0.001000
   27  C  2 ZZ    0.000281  -0.001168   0.000454  -0.014962  -0.003586
   28  C  2 XY   -0.000783   0.001266   0.000717   0.022436  -0.010571
   29  C  2 XZ   -0.000084   0.000105   0.000167   0.002179   0.000605
   30  C  2 YZ    0.000021   0.000133  -0.000030   0.001463  -0.000507
   31  O  3  S    0.995115  -0.000049  -0.000027  -0.194596   0.036102
   32  O  3  S    0.029432   0.000442  -0.000636   0.430202  -0.081245
   33  O  3  X   -0.001951   0.000967   0.000146  -0.139274   0.001185
   34  O  3  Y   -0.001190   0.000525  -0.000033  -0.085160   0.015184
   35  O  3  Z   -0.000127   0.000040  -0.000015  -0.008879  -0.001078
   36  O  3  S   -0.019399  -0.005820   0.001886   0.375060  -0.082548
   37  O  3  X    0.005089   0.003662  -0.000456  -0.040628   0.000283
   38  O  3  Y    0.002741   0.002701  -0.000585  -0.024346   0.001991
   39  O  3  Z    0.000258   0.000303  -0.000036  -0.002805   0.001051
   40  O  3 XX   -0.000186  -0.001118  -0.000000   0.005816   0.001195
   41  O  3 YY    0.000104   0.000013   0.000211  -0.003133  -0.000736
   42  O  3 ZZ    0.000082   0.001105  -0.000211  -0.002683  -0.000459
   43  O  3 XY   -0.000115  -0.001498   0.000108   0.010133  -0.000758
   44  O  3 XZ   -0.000008  -0.000137   0.000009   0.001253   0.000018
   45  O  3 YZ    0.000005  -0.000140   0.000063  -0.000293   0.000053
   46  H  4  S   -0.000236  -0.000972  -0.000504   0.027823   0.023129
   47  H  4  S    0.001177   0.004949   0.000569  -0.012259   0.000885
   48  H  5  S    0.000101  -0.000400  -0.000918   0.011414   0.235707
   49  H  5  S    0.000018   0.000950   0.001882   0.001242   0.054553
   50  H  6  S   -0.000068  -0.000359  -0.000706   0.011040   0.241162
   51  H  6  S   -0.000542   0.000170   0.005373  -0.000127   0.056082
   52  H  7  S   -0.000065  -0.000508  -0.000721   0.005647   0.072881
   53  H  7  S   -0.000580   0.000561   0.005478   0.000336   0.005258

                      6          7          8          9         10
                   -0.6216    -0.5153    -0.4669    -0.4238    -0.3744
                     A          A          A          A          A   
    1  C  1  S   -0.029374  -0.085904   0.008748   0.005072   0.014175
    2  C  1  S    0.048215   0.164015  -0.012320  -0.018012  -0.024159
    3  C  1  X    0.177505   0.004662   0.256293   0.182756   0.067134
    4  C  1  Y   -0.121620  -0.082838   0.082042  -0.043611   0.043061
    5  C  1  Z    0.151866   0.248709  -0.136719  -0.106434  -0.072315
    6  C  1  S    0.083515   0.237531  -0.032360   0.016346  -0.056011
    7  C  1  X    0.046519  -0.015117   0.111495   0.099011   0.038294
    8  C  1  Y   -0.030441  -0.031307   0.044601  -0.032258   0.024957
    9  C  1  Z    0.020791   0.067441  -0.052516  -0.053238  -0.017840
   10  C  1 XX    0.007658   0.005019   0.006065  -0.002735  -0.000143
   11  C  1 YY    0.007145   0.000431  -0.005290   0.004224  -0.000192
   12  C  1 ZZ   -0.014803  -0.005450  -0.000774  -0.001489   0.000335
   13  C  1 XY   -0.007947   0.007727  -0.009992  -0.010676  -0.007158
   14  C  1 XZ   -0.016665  -0.012137  -0.001812  -0.003513   0.013036
   15  C  1 YZ    0.000947  -0.011557   0.005021   0.008995   0.000133
   16  C  2  S   -0.140129   0.059131  -0.037512   0.012918  -0.006008
   17  C  2  S    0.292289  -0.125133   0.087892  -0.040810   0.013669
   18  C  2  X   -0.158451  -0.123731  -0.096726  -0.338343  -0.043193
   19  C  2  Y   -0.112142   0.214462   0.334089  -0.105656  -0.062172
   20  C  2  Z    0.017231   0.113668  -0.011042  -0.086536   0.334209
   21  C  2  S    0.248105  -0.128705   0.051016   0.008426   0.019458
   22  C  2  X   -0.058876  -0.016584  -0.057443  -0.060400  -0.011489
   23  C  2  Y   -0.062745   0.081246   0.084815  -0.013783  -0.037857
   24  C  2  Z    0.004437   0.054127  -0.022559  -0.048912   0.198681
   25  C  2 XX   -0.005821   0.007213  -0.001516  -0.009494  -0.002796
   26  C  2 YY    0.009351  -0.010452   0.000354   0.007480   0.000241
   27  C  2 ZZ   -0.003530   0.003239   0.001161   0.002013   0.002555
   28  C  2 XY   -0.009215   0.000726   0.000575  -0.011438  -0.005821
   29  C  2 XZ   -0.004763  -0.004471   0.001682  -0.002289   0.024708
   30  C  2 YZ    0.004359   0.001207  -0.003114  -0.001921   0.013685
   31  O  3  S    0.073108  -0.039040   0.042697  -0.069688  -0.005070
   32  O  3  S   -0.173481   0.090193  -0.098686   0.150981   0.009512
   33  O  3  X   -0.068799   0.026647  -0.282009   0.361073   0.049039
   34  O  3  Y   -0.048235   0.163789   0.100764   0.308445  -0.018695
   35  O  3  Z    0.007570   0.071291  -0.025424  -0.047752   0.496448
   36  O  3  S   -0.186150   0.128921  -0.148692   0.302175   0.030923
   37  O  3  X   -0.046692   0.013609  -0.154500   0.185239   0.024793
   38  O  3  Y   -0.026886   0.083992   0.056862   0.165264  -0.014506
   39  O  3  Z    0.002565   0.033698  -0.011401  -0.027490   0.309756
   40  O  3 XX    0.004390   0.005025   0.019519  -0.008085  -0.001103
   41  O  3 YY    0.000554  -0.008241  -0.014102  -0.003067   0.003298
   42  O  3 ZZ   -0.004944   0.003216  -0.005417   0.011152  -0.002195
   43  O  3 XY    0.005863  -0.009399  -0.000910  -0.017055   0.001164
   44  O  3 XZ   -0.000596  -0.004950   0.002312   0.002919  -0.026828
   45  O  3 YZ    0.000210  -0.003701   0.000203   0.000905  -0.016646
   46  H  4  S    0.152805  -0.167753  -0.134020   0.052402   0.016592
   47  H  4  S    0.055132  -0.098722  -0.122213   0.053067   0.011978
   48  H  5  S   -0.171977  -0.119733   0.030436  -0.013308   0.060605
   49  H  5  S   -0.079642  -0.066817   0.044177  -0.005355   0.041591
   50  H  6  S   -0.155193  -0.097032  -0.037122  -0.022576   0.033703
   51  H  6  S   -0.076430  -0.079128  -0.045999  -0.016828   0.034209
   52  H  7  S    0.059480   0.203531  -0.165495  -0.108999  -0.095596
   53  H  7  S    0.035431   0.128070  -0.113378  -0.084017  -0.088759

                     11         12         13         14         15
                   -0.2552    -0.2406    -0.0279     0.0575     0.1160
                     A          A          A          A          A   
    1  C  1  S    0.063514  -0.014598   0.028302  -0.129699  -0.019547
    2  C  1  S   -0.132361   0.036731  -0.035205   0.171686   0.052624
    3  C  1  X   -0.207005  -0.066982   0.051806  -0.208488   0.053714
    4  C  1  Y   -0.241460   0.416766  -0.039397   0.024889   0.110960
    5  C  1  Z   -0.046260   0.134217   0.044874  -0.197225   0.290969
    6  C  1  S   -0.322472  -0.047082  -0.296328   1.900067  -0.051233
    7  C  1  X   -0.110904  -0.103511   0.070196  -0.511806  -0.047582
    8  C  1  Y   -0.119929   0.307724  -0.089220   0.018360   0.246689
    9  C  1  Z   -0.037506   0.125753   0.184780  -0.527172   0.851107
   10  C  1 XX    0.000712  -0.000363   0.001796   0.005498   0.019729
   11  C  1 YY    0.004105  -0.001359   0.004326  -0.010185  -0.001067
   12  C  1 ZZ   -0.004817   0.001722  -0.006122   0.004687  -0.018662
   13  C  1 XY    0.012916  -0.004708  -0.007032   0.001079   0.006328
   14  C  1 XZ    0.007690  -0.002403   0.026769   0.025779   0.005738
   15  C  1 YZ    0.015186  -0.023638  -0.008195   0.004265   0.023457
   16  C  2  S   -0.002971   0.002645  -0.005395   0.009233   0.013837
   17  C  2  S    0.003087  -0.022048   0.014853   0.025574  -0.026792
   18  C  2  X    0.038945   0.072895  -0.006561   0.024292  -0.019106
   19  C  2  Y   -0.042297  -0.135842  -0.063868  -0.054048   0.114157
   20  C  2  Z   -0.011260  -0.009041   0.485764   0.079897  -0.033513
   21  C  2  S   -0.025362   0.108375   0.026548  -0.212958  -0.066115
   22  C  2  X   -0.092319  -0.000226   0.004513   0.050985  -0.057527
   23  C  2  Y    0.010331   0.044243  -0.082421  -0.076473   0.334129
   24  C  2  Z    0.003909   0.020491   0.514786   0.189738  -0.180264
   25  C  2 XX   -0.022982  -0.033342  -0.001124   0.005405  -0.001322
   26  C  2 YY    0.022873   0.035109   0.002559   0.006190   0.001155
   27  C  2 ZZ    0.000109  -0.001766  -0.001435  -0.011595   0.000166
   28  C  2 XY    0.026999  -0.001661   0.003625   0.000072  -0.008189
   29  C  2 XZ    0.006764  -0.004578  -0.026187  -0.000433  -0.006254
   30  C  2 YZ    0.004126   0.004829  -0.016340  -0.000300   0.016679
   31  O  3  S   -0.004588   0.006042   0.000232  -0.007995   0.006194
   32  O  3  S    0.007792  -0.013664  -0.001932   0.019115  -0.012694
   33  O  3  X   -0.306589  -0.097797  -0.006173  -0.047769   0.040905
   34  O  3  Y    0.401321   0.293265   0.056153   0.032340  -0.036587
   35  O  3  Z    0.085600  -0.004352  -0.426812  -0.070809   0.009124
   36  O  3  S    0.062054  -0.059426   0.004726   0.078431  -0.089369
   37  O  3  X   -0.225011  -0.059032  -0.010380  -0.073516   0.080787
   38  O  3  Y    0.271657   0.218983   0.058336   0.025114  -0.064413
   39  O  3  Z    0.059920  -0.008153  -0.439203  -0.089910   0.060187
   40  O  3 XX    0.014635   0.003842   0.000111   0.002628  -0.000664
   41  O  3 YY   -0.014433  -0.004285  -0.000706   0.000693   0.000767
   42  O  3 ZZ   -0.000201   0.000443   0.000595  -0.003321  -0.000103
   43  O  3 XY   -0.004843  -0.006555   0.000278   0.001649  -0.002418
   44  O  3 XZ   -0.001649   0.000738   0.000050   0.000350  -0.004599
   45  O  3 YZ   -0.002840   0.000361   0.000187   0.000628   0.003904
   46  H  4  S    0.091050   0.170174  -0.011420   0.039123   0.022959
   47  H  4  S    0.154045   0.270432  -0.036109   0.022879   0.478413
   48  H  5  S   -0.059282   0.111336   0.073824  -0.092372  -0.186331
   49  H  5  S   -0.202051   0.310491   0.278899  -1.171925  -0.938725
   50  H  6  S    0.131612  -0.123193   0.097219   0.008956   0.124566
   51  H  6  S    0.316384  -0.290444   0.202109  -0.720403   1.910424
   52  H  7  S    0.038159   0.017853  -0.069904  -0.111363  -0.127613
   53  H  7  S    0.062000   0.047973  -0.155265  -0.762096  -0.955112

                     16         17         18         19         20
                    0.1342     0.1851     0.2588     0.2905     0.5182
                     A          A          A          A          A   
    1  C  1  S    0.018658  -0.056239  -0.070056  -0.028830  -0.054007
    2  C  1  S   -0.005116   0.055772   0.045494   0.055345   0.088347
    3  C  1  X   -0.170528  -0.048892   0.138804   0.180640   0.380839
    4  C  1  Y   -0.029075  -0.282823  -0.035495   0.119211  -0.186386
    5  C  1  Z    0.157532   0.241398   0.018905   0.037345  -0.062469
    6  C  1  S   -0.293283   1.005871   1.660185  -0.134937   0.288562
    7  C  1  X   -0.537297  -0.010386   1.659077   0.722237  -0.483582
    8  C  1  Y    0.041174  -1.101211  -0.467080   0.513001   0.203874
    9  C  1  Z    0.605480   0.892981  -0.045199   0.017796  -0.452114
   10  C  1 XX    0.010406  -0.010624  -0.031011  -0.037659  -0.002537
   11  C  1 YY    0.002419   0.013795  -0.009838   0.024684   0.050863
   12  C  1 ZZ   -0.012825  -0.003171   0.040849   0.012975  -0.048327
   13  C  1 XY   -0.011342   0.002127   0.019105  -0.008745   0.020001
   14  C  1 XZ   -0.000771  -0.011300   0.001174  -0.003113  -0.045979
   15  C  1 YZ    0.000337  -0.017469  -0.002859   0.000971   0.015682
   16  C  2  S   -0.111999   0.063083   0.041526   0.065108   0.036239
   17  C  2  S    0.165953  -0.067744  -0.084703  -0.045670  -0.114452
   18  C  2  X   -0.069876   0.041536   0.370590   0.046573   0.134868
   19  C  2  Y   -0.276764   0.047342  -0.278196  -0.286923  -0.270312
   20  C  2  Z   -0.073542  -0.014210  -0.062361  -0.066805   0.685638
   21  C  2  S    1.761759  -1.150346  -0.752424  -1.793784   0.230408
   22  C  2  X   -0.247688   0.235238   1.790488  -1.464585   0.248830
   23  C  2  Y   -0.576823   0.192956  -0.750938  -1.451939   0.144079
   24  C  2  Z   -0.233768  -0.241839  -0.222875  -0.168329  -0.594655
   25  C  2 XX   -0.003035   0.011862  -0.007707   0.000550   0.059692
   26  C  2 YY   -0.003690  -0.005852   0.004907   0.011980  -0.010750
   27  C  2 ZZ    0.006725  -0.006010   0.002801  -0.012530  -0.048942
   28  C  2 XY    0.004438   0.011607  -0.013226  -0.001386  -0.024214
   29  C  2 XZ   -0.001265  -0.005705  -0.005160  -0.003194   0.022812
   30  C  2 YZ    0.003355   0.004257   0.005551   0.008342  -0.002739
   31  O  3  S    0.006994  -0.017051   0.034144  -0.098926  -0.001171
   32  O  3  S   -0.016484   0.044608  -0.055068   0.138117   0.026263
   33  O  3  X    0.026384  -0.084422  -0.041769  -0.150870  -0.087534
   34  O  3  Y    0.088882  -0.031919   0.145625  -0.075343   0.037789
   35  O  3  Z    0.038754   0.044308   0.023151  -0.010975   0.024121
   36  O  3  S   -0.054642   0.139278  -0.660606   2.044285  -0.205244
   37  O  3  X    0.018057  -0.127824   0.015078  -0.822583   0.005542
   38  O  3  Y    0.153196  -0.061126   0.444633  -0.380133   0.086842
   39  O  3  Z    0.073104   0.070661   0.083541  -0.024171   0.043007
   40  O  3 XX   -0.004395   0.002492  -0.011655   0.023140  -0.027700
   41  O  3 YY   -0.001567  -0.000137   0.008887   0.004482   0.028750
   42  O  3 ZZ    0.005962  -0.002355   0.002768  -0.027623  -0.001051
   43  O  3 XY    0.003883   0.001731  -0.011910   0.038893  -0.000726
   44  O  3 XZ   -0.000445  -0.002191  -0.002628   0.004095  -0.038627
   45  O  3 YZ   -0.000400   0.000433   0.002837   0.006043  -0.029677
   46  H  4  S   -0.072720   0.041021   0.011108   0.076492  -0.027271
   47  H  4  S   -1.667803   0.640237  -0.823616  -0.653896  -0.030623
   48  H  5  S   -0.008814   0.080410   0.052912   0.058295  -0.409023
   49  H  5  S    0.530728   2.037818  -0.420198  -0.498501   0.004227
   50  H  6  S   -0.001625  -0.062069   0.142443  -0.012727  -0.413939
   51  H  6  S   -0.039434  -1.304249   0.499815   0.693315   0.071348
   52  H  7  S   -0.024298   0.050172   0.085882  -0.014014  -0.028381
   53  H  7  S   -0.783414  -1.619938   0.099720   0.330778   0.179920

                     21         22         23         24         25
                    0.5330     0.5931     0.6083     0.6736     0.7046
                     A          A          A          A          A   
    1  C  1  S    0.015929   0.023387  -0.061764  -0.007073  -0.015619
    2  C  1  S   -0.084964  -0.232672  -0.150636  -0.046054   0.198551
    3  C  1  X   -0.572282  -0.445602  -0.393957  -0.200515   0.208891
    4  C  1  Y    0.547089  -0.560654   0.119036   0.205294   0.180937
    5  C  1  Z    0.213327  -0.491409   0.027144  -0.195034  -0.412428
    6  C  1  S   -0.074723  -0.530624   0.134364   0.810415  -0.504671
    7  C  1  X    0.694242   0.485335   0.207493   0.738906  -0.520301
    8  C  1  Y   -0.492448   0.756694  -0.075712  -0.399671  -0.431549
    9  C  1  Z   -0.129002   1.086373  -0.732338   0.570580   1.416589
   10  C  1 XX   -0.001822  -0.037797  -0.043290  -0.008892  -0.043352
   11  C  1 YY   -0.019579   0.007026   0.089347   0.035362   0.013445
   12  C  1 ZZ    0.021401   0.030770  -0.046057  -0.026470   0.029907
   13  C  1 XY    0.007215   0.018688   0.047855  -0.094977  -0.036862
   14  C  1 XZ   -0.001594   0.046928  -0.051269   0.010010   0.051996
   15  C  1 YZ   -0.037805   0.062158   0.030179   0.020525   0.005788
   16  C  2  S   -0.044275   0.000760  -0.004376   0.039129  -0.038914
   17  C  2  S    0.004897  -0.287021  -0.495939  -0.501707  -0.079008
   18  C  2  X    0.038150   0.111238   0.341022  -0.777337   0.582819
   19  C  2  Y    0.023336  -0.146144  -0.139730  -0.026321   0.439481
   20  C  2  Z    0.591298   0.233216  -0.405598   0.055676   0.108233
   21  C  2  S   -0.249600   0.249215   0.512031  -0.123594   1.074394
   22  C  2  X   -0.314605  -0.711684  -0.346932   1.275240  -0.588221
   23  C  2  Y    0.098147   0.144188   0.123909  -0.936805  -0.640117
   24  C  2  Z   -0.678203  -0.563233   0.822496  -0.402234  -0.552332
   25  C  2 XX   -0.085927  -0.003690  -0.008760   0.068336  -0.006151
   26  C  2 YY    0.009613  -0.023190  -0.035304  -0.068629  -0.080687
   27  C  2 ZZ    0.076314   0.026880   0.044064   0.000293   0.086838
   28  C  2 XY    0.030130   0.032391   0.031556   0.123153  -0.048906
   29  C  2 XZ    0.009547   0.004022   0.041791   0.008304  -0.031398
   30  C  2 YZ   -0.000482   0.014782  -0.061344  -0.001597   0.009349
   31  O  3  S    0.006865  -0.000631   0.015428  -0.031660   0.028717
   32  O  3  S   -0.056549  -0.051763  -0.098776   0.127260  -0.102236
   33  O  3  X    0.117135   0.086246   0.035189  -0.368952   0.046082
   34  O  3  Y   -0.044589  -0.164170  -0.048648   0.022828   0.286578
   35  O  3  Z    0.028683  -0.006481  -0.083616   0.027374   0.082409
   36  O  3  S    0.193146   0.301196  -0.023738  -0.142724   0.053056
   37  O  3  X    0.021360  -0.049425   0.083679  -0.243115   0.287953
   38  O  3  Y   -0.095358  -0.072017   0.054757  -0.003591   0.118634
   39  O  3  Z    0.057632   0.088078  -0.098845   0.045440   0.081651
   40  O  3 XX    0.022000  -0.002290  -0.022602  -0.061185   0.031501
   41  O  3 YY   -0.013779  -0.002157   0.012315  -0.005316  -0.008904
   42  O  3 ZZ   -0.008220   0.004446   0.010287   0.066501  -0.022597
   43  O  3 XY    0.019359  -0.011728   0.000541  -0.096387   0.088806
   44  O  3 XZ   -0.033609  -0.025947   0.030385  -0.016780  -0.003013
   45  O  3 YZ   -0.022621   0.001940  -0.001905  -0.001634   0.019064
   46  H  4  S   -0.064103   0.023258  -0.298849  -0.393275  -0.420451
   47  H  4  S    0.005004   0.076633   0.156358  -0.411577  -0.262588
   48  H  5  S    0.136273  -0.105053  -0.494268   0.014318   0.128110
   49  H  5  S   -0.170146   0.131907   0.214975   0.289633   0.847743
   50  H  6  S   -0.002148   0.245006  -0.481711  -0.099779  -0.037880
   51  H  6  S    0.079043   0.324096   0.095778   0.262969  -0.206115
   52  H  7  S    0.200277  -0.177888  -0.175584  -0.215891  -0.296094
   53  H  7  S   -0.005833   0.067365   0.164011   0.006676  -0.614009

                     26         27         28         29         30
                    0.7568     0.7862     0.8601     0.8785     0.9144
                     A          A          A          A          A   
    1  C  1  S    0.012647  -0.006345  -0.024042   0.036948   0.001425
    2  C  1  S   -0.118588   0.630737   0.291789  -0.766304   0.477310
    3  C  1  X    0.402585  -0.058812   0.005687   0.243342  -0.264632
    4  C  1  Y    0.293102   0.393640   0.158417  -0.118959  -0.230515
    5  C  1  Z    0.044843  -0.893868   0.168524  -0.132990   0.126325
    6  C  1  S   -0.670637  -1.284361  -0.737984   0.912124  -0.813397
    7  C  1  X   -1.750570  -0.134029  -0.329116  -0.659503   0.752581
    8  C  1  Y   -0.928603  -1.030067  -0.285853   0.588770   0.570381
    9  C  1  Z    0.567378   1.855128  -0.111680   0.034798  -0.324604
   10  C  1 XX   -0.057714   0.036664   0.008263  -0.114905  -0.020435
   11  C  1 YY    0.008409  -0.036626  -0.000268   0.016206   0.036999
   12  C  1 ZZ    0.049305  -0.000038  -0.007996   0.098699  -0.016564
   13  C  1 XY    0.002198   0.025228   0.030921   0.013917  -0.098166
   14  C  1 XZ    0.086801  -0.069573   0.078539  -0.105764  -0.019146
   15  C  1 YZ   -0.017170  -0.036357   0.053264  -0.109926  -0.013550
   16  C  2  S    0.004159   0.017256   0.050760   0.007050   0.021839
   17  C  2  S   -0.295707   0.263398  -0.762928  -0.751430   1.062585
   18  C  2  X    0.169614  -0.078064   0.122547   0.126508   0.063849
   19  C  2  Y   -0.760657  -0.142412   0.439421   0.241291  -0.047655
   20  C  2  Z   -0.075364  -0.075865   0.067324   0.028109   0.000733
   21  C  2  S    1.283980  -0.209296   2.326665   2.139785  -0.916873
   22  C  2  X   -0.636080   0.143522   0.040172  -0.422179   0.293601
   23  C  2  Y    2.643731   1.039946  -0.304105  -0.464097   0.182936
   24  C  2  Z    0.107489  -0.083852  -0.059899  -0.033519   0.050191
   25  C  2 XX    0.067306   0.003819   0.000785   0.013217   0.140907
   26  C  2 YY   -0.067103   0.060434   0.099569  -0.010040  -0.058774
   27  C  2 ZZ   -0.000203  -0.064253  -0.100354  -0.003178  -0.082133
   28  C  2 XY    0.074903  -0.011382   0.082901   0.090464   0.113650
   29  C  2 XZ   -0.041518   0.025100  -0.016263   0.045743   0.006953
   30  C  2 YZ    0.027237   0.017311   0.046356  -0.022747   0.000173
   31  O  3  S    0.014344  -0.000439   0.022043   0.019900   0.048799
   32  O  3  S   -0.012664   0.062328  -0.054069  -0.119487  -0.231005
   33  O  3  X   -0.156091  -0.033228  -0.277395  -0.224578  -0.491636
   34  O  3  Y   -0.226187  -0.089441  -0.280671  -0.142363  -0.251632
   35  O  3  Z    0.062301  -0.085399   0.089758  -0.237020  -0.072063
   36  O  3  S   -0.781481  -0.372987  -0.566912  -0.152870  -0.166315
   37  O  3  X    0.473461   0.162729   0.630358   0.436803   0.978858
   38  O  3  Y   -0.038272  -0.032595   0.439698   0.265866   0.566593
   39  O  3  Z   -0.020405   0.092472  -0.070013   0.246531   0.104349
   40  O  3 XX   -0.109573  -0.012692   0.001378  -0.013271  -0.003529
   41  O  3 YY    0.035976  -0.005733  -0.045391  -0.022446   0.026482
   42  O  3 ZZ    0.073597   0.018425   0.044013   0.035717  -0.022953
   43  O  3 XY   -0.019900  -0.005595  -0.058997  -0.040956   0.004603
   44  O  3 XZ   -0.000867  -0.014268  -0.002184  -0.010822   0.001281
   45  O  3 YZ    0.010562   0.013589  -0.011812  -0.012887   0.005125
   46  H  4  S   -0.217510   0.382403   0.738474   0.030682  -0.229434
   47  H  4  S    1.518915   0.336704  -1.419836  -0.769747   0.622618
   48  H  5  S    0.279740  -0.176902  -0.195452   0.428728   0.192936
   49  H  5  S    0.545216   1.358412   0.682473  -1.367432  -0.694231
   50  H  6  S    0.232798  -0.355103   0.191878  -0.268526  -0.218903
   51  H  6  S   -1.126125   0.684037  -0.720383   0.664194   0.987326
   52  H  7  S   -0.213805   0.347334  -0.419877   0.661672  -0.110657
   53  H  7  S   -0.707295  -1.159396   0.442847  -1.099703   0.828600

                     31         32         33         34         35
                    0.9943     1.0035     1.0897     1.0998     1.4920
                     A          A          A          A          A   
    1  C  1  S   -0.008921  -0.010701  -0.027444  -0.057990  -0.010643
    2  C  1  S   -1.085622  -0.577988  -0.547451  -1.319612  -0.137250
    3  C  1  X    0.124523   0.106199  -0.130739  -0.004624   0.009732
    4  C  1  Y    0.267222   0.285442  -0.128730   0.127843   0.034362
    5  C  1  Z   -0.185160  -0.023683   0.014456  -0.064568   0.076508
    6  C  1  S    2.778015   1.505809   0.801242   4.498593   0.503480
    7  C  1  X    0.347758   0.077508  -0.076174   0.923645  -0.057194
    8  C  1  Y   -0.646673  -0.793405  -0.286998  -1.383220  -0.523086
    9  C  1  Z    0.008807   0.165949  -0.002694   0.218496   0.318327
   10  C  1 XX    0.006259   0.028763  -0.025093   0.045264  -0.075402
   11  C  1 YY    0.029533  -0.014480   0.063355   0.146133  -0.140404
   12  C  1 ZZ   -0.035792  -0.014283  -0.038261  -0.191397   0.215806
   13  C  1 XY    0.058970   0.047107   0.029995  -0.021661  -0.073507
   14  C  1 XZ   -0.050128   0.022589   0.036286   0.076949  -0.201898
   15  C  1 YZ    0.081409   0.150821  -0.059737  -0.037489   0.297638
   16  C  2  S    0.012014   0.009361   0.005425   0.026571   0.004605
   17  C  2  S    0.550074   0.379942   0.173724   0.642109   0.101983
   18  C  2  X   -0.042874  -0.016803   0.093950  -0.130103  -0.005492
   19  C  2  Y    0.035677  -0.040476  -0.233021   0.141065   0.010921
   20  C  2  Z   -0.070877   0.083055  -0.037491   0.041393  -0.128466
   21  C  2  S   -1.645475  -1.101233  -0.889521  -2.835383  -0.456433
   22  C  2  X    0.668997   0.378218  -0.294690   1.999253   0.262884
   23  C  2  Y   -0.483224   0.097329   1.373274  -0.963272   0.237025
   24  C  2  Z    0.338985  -0.491888   0.168583  -0.436399   0.029468
   25  C  2 XX   -0.015893  -0.024609  -0.140379   0.005069   0.039114
   26  C  2 YY    0.050547   0.041595   0.160417   0.048009  -0.076154
   27  C  2 ZZ   -0.034654  -0.016987  -0.020038  -0.053077   0.037040
   28  C  2 XY    0.038990   0.032053   0.053787  -0.025375  -0.078038
   29  C  2 XZ    0.087411  -0.016454  -0.028586  -0.099648   0.546824
   30  C  2 YZ   -0.029470   0.003441   0.063366   0.088032   0.224105
   31  O  3  S    0.011797   0.004795   0.006343   0.010239   0.004692
   32  O  3  S   -0.118658  -0.038756  -0.094028  -0.133568  -0.064752
   33  O  3  X   -0.177342  -0.176050  -0.289633   0.310602   0.050671
   34  O  3  Y   -0.077505   0.176400   0.608328  -0.314955   0.022805
   35  O  3  Z    0.561446  -0.679140   0.115185  -0.112788  -0.117519
   36  O  3  S    0.235151   0.063098   0.047148   0.114397  -0.016423
   37  O  3  X    0.168755   0.214481   0.546338  -0.633610  -0.078097
   38  O  3  Y    0.214443  -0.205339  -1.146878   0.665342   0.001531
   39  O  3  Z   -0.782445   0.945032  -0.186845   0.267567  -0.089082
   40  O  3 XX    0.039778   0.027607   0.097976   0.016756  -0.039954
   41  O  3 YY    0.011510  -0.005653  -0.083024   0.048176   0.056670
   42  O  3 ZZ   -0.051288  -0.021954  -0.014952  -0.064933  -0.016716
   43  O  3 XY    0.004382   0.001829  -0.062356   0.011438   0.048939
   44  O  3 XZ   -0.020125   0.024380  -0.016873  -0.000641  -0.355214
   45  O  3 YZ   -0.019614   0.019031   0.007132   0.063176  -0.236395
   46  H  4  S   -0.093281  -0.022115   0.342708   0.224784   0.122841
   47  H  4  S    0.079414   0.200457   0.619218  -0.440528   0.124517
   48  H  5  S   -0.530086  -0.526931   0.309838   0.283705   0.254514
   49  H  5  S    0.707680   1.284079  -0.483720   0.049344   0.308879
   50  H  6  S    0.356943   0.528502  -0.420240  -0.516817  -0.097625
   51  H  6  S   -0.958810  -1.489964   0.253927  -0.302178  -0.270835
   52  H  7  S    0.323136  -0.003816  -0.299799  -0.490622  -0.277492
   53  H  7  S   -0.875721  -0.327286  -0.128195  -0.567552  -0.176890

                     36         37         38         39         40
                    1.5614     1.6174     1.6857     1.7901     1.8149
                     A          A          A          A          A   
    1  C  1  S   -0.011286   0.021299   0.014678  -0.008826  -0.007334
    2  C  1  S   -0.152767   0.297327  -0.233217  -0.520593   0.207430
    3  C  1  X    0.009349  -0.005417  -0.202776  -0.197811   0.131960
    4  C  1  Y    0.042972   0.008082   0.045109   0.064991  -0.019201
    5  C  1  Z   -0.013999  -0.008352   0.013992   0.068315   0.047494
    6  C  1  S    0.550429  -1.086538  -0.293687   0.849701  -0.077446
    7  C  1  X   -0.024043   0.070780  -0.219553   0.174990  -0.241892
    8  C  1  Y   -0.553424   0.572948   0.037864  -0.152632  -0.090616
    9  C  1  Z    0.674337  -0.000194   0.134725  -0.465375  -0.157301
   10  C  1 XX   -0.117290   0.015738   0.422279   0.040634  -0.271356
   11  C  1 YY   -0.114571   0.043956  -0.430923  -0.236928  -0.037909
   12  C  1 ZZ    0.231861  -0.059694   0.008644   0.196294   0.309264
   13  C  1 XY   -0.122168  -0.097682   0.032442  -0.315415  -0.073453
   14  C  1 XZ   -0.232083   0.007882  -0.014478  -0.192366  -0.260934
   15  C  1 YZ    0.177298   0.005135  -0.074890   0.098893   0.272627
   16  C  2  S    0.004688  -0.020023  -0.006503   0.021958  -0.013794
   17  C  2  S    0.120029  -0.178043  -0.475384  -0.001714   0.043038
   18  C  2  X   -0.002482  -0.087756   0.124683   0.055784   0.035429
   19  C  2  Y   -0.023234   0.000336  -0.049906   0.064336  -0.068351
   20  C  2  Z    0.136421  -0.002593  -0.011718   0.049329   0.057433
   21  C  2  S   -0.633172  -1.532697   1.341512  -0.509305   0.396581
   22  C  2  X    0.196046  -1.808709  -0.452698   0.051194   0.364250
   23  C  2  Y    0.240879  -1.125420   0.125678   0.599978  -0.002780
   24  C  2  Z   -0.266631  -0.077916  -0.011859   0.279456   0.116326
   25  C  2 XX    0.019487  -0.039499   0.161026   0.270955  -0.117494
   26  C  2 YY    0.141679   0.068784   0.184623  -0.372130   0.227969
   27  C  2 ZZ   -0.161166  -0.029285  -0.345649   0.101175  -0.110476
   28  C  2 XY   -0.050307  -0.272700  -0.296366  -0.105589   0.161437
   29  C  2 XZ    0.143734  -0.077146  -0.014323  -0.166075  -0.069081
   30  C  2 YZ   -0.652230   0.083363   0.055411  -0.049908  -0.003582
   31  O  3  S    0.007471   0.032758  -0.015059  -0.000536   0.005494
   32  O  3  S   -0.164850  -1.637912   0.345507   0.080300   0.065810
   33  O  3  X    0.066087   0.068418  -0.173793  -0.095000   0.146504
   34  O  3  Y    0.013059   0.084763   0.009135   0.159983  -0.092160
   35  O  3  Z    0.030139   0.011179   0.000835   0.077441   0.032385
   36  O  3  S    0.198634   3.942777  -0.533412  -0.231618  -0.438608
   37  O  3  X   -0.136339  -1.110053   0.339244   0.198570  -0.034875
   38  O  3  Y   -0.074541  -0.717546   0.024353  -0.225538   0.234401
   39  O  3  Z    0.102498  -0.078265   0.004668  -0.123735  -0.038421
   40  O  3 XX   -0.009430  -0.135891   0.031112  -0.361766   0.336951
   41  O  3 YY    0.044336   0.126852   0.477261   0.020726  -0.173559
   42  O  3 ZZ   -0.034906   0.009038  -0.508372   0.341040  -0.163392
   43  O  3 XY   -0.065307  -0.187642  -0.147489   0.319471  -0.261886
   44  O  3 XZ    0.382274  -0.046672  -0.021504  -0.046469  -0.217473
   45  O  3 YZ   -0.204869   0.066807   0.114466   0.402314   0.616568
   46  H  4  S    0.149055  -0.051709  -0.223655   0.524354  -0.239725
   47  H  4  S    0.129533  -0.241106  -0.144877   0.188224   0.024809
   48  H  5  S    0.220579  -0.074003   0.097723  -0.103713   0.034183
   49  H  5  S    0.286965   0.049892  -0.025599  -0.237062   0.072187
   50  H  6  S   -0.048670   0.152323  -0.045848  -0.056330  -0.056355
   51  H  6  S   -0.059167   0.123045  -0.053117  -0.123355  -0.142236
   52  H  7  S   -0.309416   0.179982  -0.046173  -0.004605  -0.081664
   53  H  7  S   -0.370802   0.205195  -0.158006   0.023458   0.057455

                     41         42         43         44         45
                    1.8801     2.0369     2.0676     2.1522     2.2845
                     A          A          A          A          A   
    1  C  1  S   -0.008126  -0.046153   0.007137  -0.058371   0.000996
    2  C  1  S    0.006776  -0.291443   0.213806  -0.354123  -0.022790
    3  C  1  X    0.009783   0.030675   0.032752   0.047399   0.006418
    4  C  1  Y   -0.113841  -0.055745  -0.006381  -0.002945  -0.018976
    5  C  1  Z    0.022951  -0.033726   0.000643  -0.019126  -0.051470
    6  C  1  S    0.293128   1.542877  -0.623551   1.879680   0.043331
    7  C  1  X    0.276149   0.302194  -0.422270   0.433158   0.058944
    8  C  1  Y    0.112439   0.059631   0.024618  -0.345850   0.220881
    9  C  1  Z    0.306488  -0.905458   0.138153   0.000722  -0.443701
   10  C  1 XX    0.393259  -0.060623  -0.328848  -0.072383   0.068109
   11  C  1 YY   -0.339913  -0.589057   0.184806  -0.328225  -0.087814
   12  C  1 ZZ   -0.053346   0.649680   0.144043   0.400608   0.019706
   13  C  1 XY    0.670078  -0.038426   0.424298  -0.212774  -0.154565
   14  C  1 XZ   -0.126719   0.198055   0.062781   0.115705   0.963879
   15  C  1 YZ    0.108011   0.204422  -0.031969  -0.817937   0.381793
   16  C  2  S    0.010308   0.023137   0.003701   0.033123   0.002612
   17  C  2  S    0.106082   0.295871   0.244457   0.353980  -0.018619
   18  C  2  X   -0.193577  -0.114908  -0.290026  -0.066280   0.006050
   19  C  2  Y   -0.020534  -0.013016   0.167829  -0.018181   0.001668
   20  C  2  Z    0.049081   0.011198   0.034682  -0.082697  -0.066632
   21  C  2  S   -0.836396  -1.324866  -0.098090  -1.651938  -0.007633
   22  C  2  X   -0.321764   0.392113  -0.318079   0.590273  -0.032686
   23  C  2  Y   -1.091151  -0.735831   0.493673  -0.679856  -0.068512
   24  C  2  Z   -0.230451   0.275721   0.040664  -0.286361   0.030111
   25  C  2 XX   -0.304522  -0.266904  -0.140634  -0.248164   0.000343
   26  C  2 YY    0.221181  -0.068105  -0.395064   0.113138   0.068371
   27  C  2 ZZ    0.083341   0.335009   0.535698   0.135027  -0.068713
   28  C  2 XY   -0.192181  -0.000339   0.022043  -0.103764  -0.062743
   29  C  2 XZ    0.058292  -0.315527   0.060388   0.120944   0.215358
   30  C  2 YZ   -0.120801   0.397006  -0.207018  -0.295230  -0.362957
   31  O  3  S   -0.015370  -0.008795  -0.007092  -0.008863  -0.001600
   32  O  3  S   -0.192863  -0.063250   0.018900  -0.038726   0.014186
   33  O  3  X   -0.166980  -0.061323  -0.136693  -0.056071  -0.020837
   34  O  3  Y   -0.158255  -0.127572   0.018489  -0.118725  -0.004496
   35  O  3  Z   -0.008479   0.043400   0.000951  -0.067805  -0.006213
   36  O  3  S    1.224929   0.575179   0.170362   0.515044   0.034667
   37  O  3  X   -0.328469  -0.264133   0.100265  -0.277159   0.002826
   38  O  3  Y    0.014644   0.121949  -0.231313   0.123970  -0.004474
   39  O  3  Z    0.013970  -0.144813  -0.020038   0.184936   0.023775
   40  O  3 XX   -0.161798   0.039474  -0.214843   0.050963   0.003273
   41  O  3 YY   -0.224619   0.001722   0.630500  -0.125442  -0.056579
   42  O  3 ZZ    0.386417  -0.041196  -0.415658   0.074479   0.053305
   43  O  3 XY    0.181437  -0.091688  -0.072561  -0.022333   0.030819
   44  O  3 XZ   -0.045798   0.326028  -0.045951  -0.336923  -0.203248
   45  O  3 YZ    0.172421  -0.249239   0.205202   0.010165   0.156534
   46  H  4  S   -0.303110  -0.053503   0.442001  -0.033150   0.009313
   47  H  4  S   -0.310504  -0.133889   0.161961  -0.114961  -0.034333
   48  H  5  S    0.342911  -0.299343   0.025146  -0.670280   0.021466
   49  H  5  S    0.002355  -0.288711   0.099035   0.323199  -0.350472
   50  H  6  S   -0.176956  -0.555109  -0.058572   0.098455  -0.566109
   51  H  6  S    0.127197  -0.046593  -0.001727  -0.332072   0.307990
   52  H  7  S   -0.262917   0.049029  -0.130280  -0.468737   0.610034
   53  H  7  S   -0.002094   0.157712   0.007391  -0.049521  -0.014034

                     46         47         48         49         50
                    2.3454     2.5205     2.5890     2.8596     2.9499
                     A          A          A          A          A   
    1  C  1  S    0.023795   0.050706  -0.004421   0.030856  -0.011301
    2  C  1  S    0.214005   0.086075  -0.020934  -0.096944   0.076578
    3  C  1  X   -0.106979  -0.272589  -0.000638  -0.223936   0.095336
    4  C  1  Y    0.031585   0.060692   0.002816   0.163115  -0.049878
    5  C  1  Z    0.011745   0.018330   0.022918   0.030650  -0.016758
    6  C  1  S   -1.130022  -1.490176   0.107803  -0.264837   0.074018
    7  C  1  X   -0.677384  -0.856347   0.012086  -0.203291   0.169598
    8  C  1  Y    0.294349   0.201648  -0.025965   0.147753   0.027341
    9  C  1  Z   -0.070177   0.050790  -0.008319   0.031503   0.049981
   10  C  1 XX   -0.381362  -0.771334  -0.024900  -0.228203   0.074074
   11  C  1 YY   -0.077255   0.498213   0.022511  -0.054358   0.013498
   12  C  1 ZZ    0.458617   0.273122   0.002390   0.282561  -0.087572
   13  C  1 XY    0.348038   0.082078  -0.040018   0.507822  -0.184376
   14  C  1 XZ    0.161422   0.055645   0.142252   0.101371  -0.044333
   15  C  1 YZ   -0.161189   0.036759  -0.217266  -0.090250   0.025724
   16  C  2  S   -0.076605  -0.028669   0.000648  -0.043939  -0.029278
   17  C  2  S   -0.175449  -0.045013   0.025598  -0.321975  -1.331300
   18  C  2  X   -0.214201  -0.229265  -0.004169  -0.375052  -1.076176
   19  C  2  Y    0.173093   0.049108  -0.031041  -0.164557  -0.672486
   20  C  2  Z    0.013445   0.010177   0.237629  -0.011852  -0.065368
   21  C  2  S    1.332378   1.673369  -0.087478   0.144228  -1.722688
   22  C  2  X   -0.375207  -0.732734   0.045336  -0.332632  -0.690058
   23  C  2  Y    0.562299   0.827580  -0.061818  -0.522880  -0.532222
   24  C  2  Z    0.119788   0.151728   0.241107  -0.065964  -0.071437
   25  C  2 XX    0.386804  -0.112524   0.037005   0.906167  -0.677623
   26  C  2 YY    0.333545   0.377235  -0.092511  -0.793471   0.225479
   27  C  2 ZZ   -0.720348  -0.264711   0.055506  -0.112696   0.452143
   28  C  2 XY    0.465387  -0.873139  -0.118906  -0.525648  -0.431681
   29  C  2 XZ    0.009184  -0.152560   0.884038  -0.111223  -0.020348
   30  C  2 YZ    0.140973   0.140641   0.429626  -0.100578  -0.027684
   31  O  3  S    0.027562  -0.020634  -0.000148  -0.009698  -0.061609
   32  O  3  S   -0.358449   0.585223  -0.002850  -0.333827  -0.681598
   33  O  3  X    0.327115  -0.346466   0.000612  -0.006193  -0.248209
   34  O  3  Y    0.240017  -0.158613  -0.001254   0.046505  -0.170750
   35  O  3  Z    0.023542  -0.012579  -0.012772   0.006336  -0.018977
   36  O  3  S   -0.187964  -0.740556   0.017127   0.987148   3.090960
   37  O  3  X    0.052655   0.506274  -0.025203  -0.655086  -1.503242
   38  O  3  Y   -0.304138  -0.000923   0.067868   0.069515  -0.981588
   39  O  3  Z   -0.033257  -0.011031  -0.446485   0.030555  -0.093489
   40  O  3 XX   -0.323292  -0.167789   0.036387   0.835873   0.714510
   41  O  3 YY    0.284245   0.015896  -0.135880  -0.658421  -0.003783
   42  O  3 ZZ    0.039047   0.151894   0.099493  -0.177452  -0.710727
   43  O  3 XY    0.373950   0.116921  -0.096867  -0.089729   1.164864
   44  O  3 XZ    0.020086   0.017388   0.822106  -0.048221   0.120089
   45  O  3 YZ    0.022560  -0.036077   0.532407  -0.078668   0.084425
   46  H  4  S   -0.158558  -0.253024  -0.007936   0.257188  -0.023211
   47  H  4  S    0.151397   0.338359   0.003211  -0.417992   0.010800
   48  H  5  S   -0.165028  -0.039248  -0.123541  -0.043136   0.007492
   49  H  5  S   -0.007935   0.047516   0.082266   0.050840   0.067448
   50  H  6  S   -0.098512   0.051017   0.035796  -0.087923   0.040788
   51  H  6  S    0.035578  -0.073946  -0.041529  -0.005052  -0.008646
   52  H  7  S   -0.088137   0.041644  -0.039774  -0.107976   0.022986
   53  H  7  S    0.104835  -0.039024  -0.019448   0.026529   0.005534
 ...... END OF RHF CALCULATION ......
 STEP CPU TIME =     5.60 TOTAL CPU TIME =          5.7 (      0.1 MIN)
 TOTAL WALL CLOCK TIME=          5.8 SECONDS, CPU UTILIZATION IS    99.14%

     ---------------------------------------------------------------------
     PROPERTIES FOR THE B3LYP    DFT FUNCTIONAL (RHF  TYPE) DENSITY MATRIX
     ---------------------------------------------------------------------

          -----------------
          ENERGY COMPONENTS
          -----------------

         WAVEFUNCTION NORMALIZATION =       1.0000000000

                ONE ELECTRON ENERGY =    -345.7042986215
                TWO ELECTRON ENERGY =     122.4455222021
           NUCLEAR REPULSION ENERGY =      69.6989825120
                                      ------------------
                       TOTAL ENERGY =    -153.5597939074

 ELECTRON-ELECTRON POTENTIAL ENERGY =     122.4455222021
  NUCLEUS-ELECTRON POTENTIAL ENERGY =    -498.6148334803
   NUCLEUS-NUCLEUS POTENTIAL ENERGY =      69.6989825120
                                      ------------------
             TOTAL POTENTIAL ENERGY =    -306.4703287662
               TOTAL KINETIC ENERGY =     152.9105348588
                 VIRIAL RATIO (V/T) =       2.0042460060

          ---------------------------------------
          MULLIKEN AND LOWDIN POPULATION ANALYSES
          ---------------------------------------

     ATOMIC MULLIKEN POPULATION IN EACH MOLECULAR ORBITAL

                      1          2          3          4          5

                  2.000000   2.000000   2.000000   2.000000   2.000000

    1            -0.000029   0.001256   1.996093   0.020046   0.944126
    2             0.002248   2.000557   0.001528   0.526443   0.174953
    3             1.997753  -0.002758   0.000011   1.452405   0.037580
    4             0.000030   0.000894   0.000014  -0.001177   0.004048
    5             0.000000   0.000029   0.000308   0.001189   0.389444
    6            -0.000001   0.000005   0.001014   0.000799   0.409758
    7            -0.000001   0.000017   0.001032   0.000294   0.040090

                      6          7          8          9         10

                  2.000000   2.000000   2.000000   2.000000   2.000000

    1             0.426846   0.603176   0.507951   0.260013   0.061808
    2             0.834732   0.492759   0.563079   0.419548   0.645132
    3             0.213299   0.228526   0.528020   1.200681   1.209717
    4             0.190573   0.221529   0.163962   0.026925   0.001850
    5             0.165521   0.068705   0.008346   0.000655   0.013397
    6             0.132910   0.047267   0.013681   0.002642   0.002626
    7             0.036120   0.338039   0.214960   0.089537   0.065471

                     11         12

                  2.000000   2.000000

    1             0.618603   1.020620
    2             0.041632   0.106870
    3             1.066467   0.392508
    4             0.073971   0.221496
    5             0.048752   0.150995
    6             0.140151   0.098968
    7             0.010424   0.008544

               ----- POPULATIONS IN EACH AO -----
                             MULLIKEN      LOWDIN
              1  C  1  S      1.99624     1.97952
              2  C  1  S      0.66739     0.36347
              3  C  1  X      0.67042     0.60058
              4  C  1  Y      0.85922     0.80924
              5  C  1  Z      0.61811     0.54408
              6  C  1  S      0.59690     0.33888
              7  C  1  X      0.26830     0.39070
              8  C  1  Y      0.52657     0.69199
              9  C  1  Z      0.21902     0.40395
             10  C  1 XX      0.00848     0.15075
             11  C  1 YY      0.00204     0.12288
             12  C  1 ZZ      0.00703     0.17830
             13  C  1 XY      0.01227     0.01206
             14  C  1 XZ      0.00852     0.02471
             15  C  1 YZ      0.00000     0.01246
             16  C  2  S      1.99653     1.97458
             17  C  2  S      0.70542     0.36480
             18  C  2  X      0.73918     0.64463
             19  C  2  Y      0.74291     0.64537
             20  C  2  Z      0.46314     0.41683
             21  C  2  S      0.46860     0.31345
             22  C  2  X      0.11013     0.28566
             23  C  2  Y      0.20509     0.37831
             24  C  2  Z      0.29128     0.33367
             25  C  2 XX      0.00467     0.21859
             26  C  2 YY      0.04138     0.19356
             27  C  2 ZZ      0.02576     0.10581
             28  C  2 XY      0.01143     0.05242
             29  C  2 XZ      0.00396     0.02142
             30  C  2 YZ      0.00000     0.00689
             31  O  3  S      1.99730     1.97775
             32  O  3  S      0.93086     0.72300
             33  O  3  X      1.00213     0.93947
             34  O  3  Y      1.09204     1.04379
             35  O  3  Z      0.75800     0.70672
             36  O  3  S      0.92884     0.46980
             37  O  3  X      0.49260     0.57058
             38  O  3  Y      0.59357     0.65643
             39  O  3  Z      0.50106     0.54028
             40  O  3 XX      0.00229     0.18385
             41  O  3 YY      0.00720     0.17403
             42  O  3 ZZ      0.00718     0.17405
             43  O  3 XY      0.00806     0.01578
             44  O  3 XZ      0.00306     0.01075
             45  O  3 YZ      0.00000     0.00408
             46  H  4  S      0.53523     0.50551
             47  H  4  S      0.36888     0.39352
             48  H  5  S      0.56147     0.46899
             49  H  5  S      0.28587     0.27932
             50  H  6  S      0.58352     0.50660
             51  H  6  S      0.26630     0.28006
             52  H  7  S      0.50185     0.44975
             53  H  7  S      0.30268     0.34631

          ----- MULLIKEN ATOMIC OVERLAP POPULATIONS -----
          (OFF-DIAGONAL ELEMENTS NEED TO BE MULTIPLIED BY 2)

             1           2           3           4           5

    1    5.5185543
    2    0.3497270   4.5595630
    3   -0.0732261   0.5884899   7.8762968
    4   -0.1448358   0.3547535  -0.0682325   0.7515282
    5    0.3156928  -0.0053200  -0.0079664   0.0115236   0.7739858
    6    0.1318662  -0.0159331   0.0076151  -0.0077034  -0.2193594
    7    0.3627300  -0.0218007   0.0012322   0.0070811  -0.0212156

             6           7

    6    0.9606566
    7   -0.0073221   0.4838226

          TOTAL MULLIKEN AND LOWDIN ATOMIC POPULATIONS
       ATOM         MULL.POP.    CHARGE          LOW.POP.     CHARGE
    1 C             6.460508   -0.460508         6.623580   -0.623580
    2 C             5.809480    0.190520         5.955976    0.044024
    3 O             8.324209   -0.324209         8.190373   -0.190373
    4 H             0.904115    0.095885         0.899024    0.100976
    5 H             0.847341    0.152659         0.748316    0.251684
    6 H             0.849820    0.150180         0.786664    0.213336
    7 H             0.804527    0.195473         0.796066    0.203934

          MULLIKEN SPHERICAL HARMONIC POPULATIONS
       ATOM           S       P       D      F      G      H      I    TOTAL
    1 C             3.26    3.16    0.04   0.00   0.00   0.00   0.00    6.46
    2 C             3.17    2.55    0.09   0.00   0.00   0.00   0.00    5.81
    3 O             3.86    4.44    0.03   0.00   0.00   0.00   0.00    8.32
    4 H             0.90    0.00    0.00   0.00   0.00   0.00   0.00    0.90
    5 H             0.85    0.00    0.00   0.00   0.00   0.00   0.00    0.85
    6 H             0.85    0.00    0.00   0.00   0.00   0.00   0.00    0.85
    7 H             0.80    0.00    0.00   0.00   0.00   0.00   0.00    0.80

          -------------------------------
          BOND ORDER AND VALENCE ANALYSIS     BOND ORDER THRESHOLD=0.050
          -------------------------------

                   BOND                       BOND                       BOND
  ATOM PAIR DIST  ORDER      ATOM PAIR DIST  ORDER      ATOM PAIR DIST  ORDER
    1   2  1.509  1.038        1   5  1.093  0.792        1   6  1.098  0.697
    1   7  1.098  0.924        2   3  1.211  2.032        2   4  1.115  0.886
    5   6  0.729  0.144

                       TOTAL       BONDED        FREE
      ATOM            VALENCE     VALENCE     VALENCE
    1 C                 3.453       3.453       0.000
    2 C                 3.966       3.966       0.000
    3 O                 2.105       2.105       0.000
    4 H                 0.921       0.921       0.000
    5 H                 0.957       0.957      -0.000
    6 H                 0.855       0.855      -0.000
    7 H                 0.938       0.938       0.000

          ---------------------
          ELECTROSTATIC MOMENTS
          ---------------------

 POINT   1           X           Y           Z (BOHR)    CHARGE
                -0.000000    0.000000    0.000000       -0.00 (A.U.)
         DX          DY          DZ         /D/  (DEBYE)
    -2.967527   -1.496567   -1.204648    3.535125
 ...... END OF PROPERTY EVALUATION ......
 STEP CPU TIME =     0.00 TOTAL CPU TIME =          5.7 (      0.1 MIN)
 TOTAL WALL CLOCK TIME=          5.8 SECONDS, CPU UTILIZATION IS    99.14%
                580000  WORDS OF DYNAMIC MEMORY USED
 EXECUTION OF GAMESS TERMINATED NORMALLY Thu Oct 17 12:46:16 2019
 DDI: 263640 bytes (0.3 MB / 0 MWords) used by master data server.

 ----------------------------------------
 CPU timing information for all processes
 ========================================
 0: 5.585 + 0.169 = 5.755
 ----------------------------------------
 ddikick.x: exited gracefully.
----- accounting info -----
Files used on the master node crcfe01.crc.nd.edu were:
-rw-r--r-- 1 cdrisko campus      489 Oct 17 12:46 /afs/crc.nd.edu/user/c/cdrisko/acetaldehyde.F05
-rw-r--r-- 1 cdrisko campus    45118 Oct 17 12:46 /afs/crc.nd.edu/user/c/cdrisko/acetaldehyde.F07
-rw-r--r-- 1 cdrisko campus 11881056 Oct 17 12:46 /afs/crc.nd.edu/user/c/cdrisko/acetaldehyde.F08
-rw-r--r-- 1 cdrisko campus  1701440 Oct 17 12:46 /afs/crc.nd.edu/user/c/cdrisko/acetaldehyde.F10
Thu Oct 17 12:46:19 EDT 2019
0.384u 0.512s 0:09.54 9.3%	0+0k 0+32io 0pf+0w
