----- GAMESS execution script 'rungms' -----
This job is running on host crcfe02.crc.nd.edu
under operating system Linux at Sun Sep 29 10:53:34 EDT 2019
Available scratch disk space (Kbyte units) at beginning of the job is
Filesystem      1K-blocks  Used  Available Use% Mounted on
AFS            2147483647     0 2147483647   0% /afs
GAMESS temporary binary files will be written to /afs/crc.nd.edu/user/c/cdrisko
GAMESS supplementary output files will be written to /afs/crc.nd.edu/user/c/cdrisko/scr
Copying input file SO2.inp to your run's scratch directory...

 Distributed Data Interface kickoff program.
 Initiating 1 compute processes on 1 nodes to run the following command:
 /afs/crc.nd.edu/x86_64_linux/g/gamess/nov-2017/gamess/gamess.00.x SO2 

          ******************************************************
          *         GAMESS VERSION = 11 NOV 2017 (R3)         *
          *             FROM IOWA STATE UNIVERSITY             *
          * M.W.SCHMIDT, K.K.BALDRIDGE, J.A.BOATZ, S.T.ELBERT, *
          *   M.S.GORDON, J.H.JENSEN, S.KOSEKI, N.MATSUNAGA,   *
          *          K.A.NGUYEN, S.J.SU, T.L.WINDUS,           *
          *       TOGETHER WITH M.DUPUIS, J.A.MONTGOMERY       *
          *         J.COMPUT.CHEM.  14, 1347-1363(1993)        *
          **************** 64 BIT INTEL VERSION ****************

  SINCE 1993, STUDENTS AND POSTDOCS WORKING AT IOWA STATE UNIVERSITY
  AND ALSO IN THEIR VARIOUS JOBS AFTER LEAVING ISU HAVE MADE IMPORTANT
  CONTRIBUTIONS TO THE CODE:
     IVANA ADAMOVIC, CHRISTINE AIKENS, YURI ALEXEEV, POOJA ARORA,
     ANDREY ASADCHEV, ROB BELL, PRADIPTA BANDYOPADHYAY, JONATHAN BENTZ,
     BRETT BODE, KURT BRORSEN, CALEB CARLIN, GALINA CHABAN, WEI CHEN,
     CHEOL HO CHOI, PAUL DAY, ALBERT DEFUSCO, NUWAN DESILVA, TIM DUDLEY,
     DMITRI FEDOROV, ALEX FINDLATER, GRAHAM FLETCHER, MARK FREITAG,
     KURT GLAESEMANN, ANASTASIA GUININA,
     DAN KEMP, GRANT MERRILL, NORIYUKI MINEZAWA, JONATHAN MULLIN,
     TAKESHI NAGATA, SEAN NEDD, HEATHER NETZLOFF, BOSILJKA NJEGIC, RYAN OLSON,
     MIKE PAK, BUU PHAM,
     SPENCER PRUITT, LUKE ROSKOP, JIM SHOEMAKER, LYUDMILA SLIPCHENKO,
     TONY SMITH, SAROM SOK LEANG, JIE SONG, TETSUYA TAKETSUGU, SIMON WEBB,
     PENG XU, SOOHAENG YOO, FEDERICO ZAHARIEV

  ADDITIONAL CODE HAS BEEN PROVIDED BY COLLABORATORS IN OTHER GROUPS:
     IOWA STATE UNIVERSITY:
          JOE IVANIC, AARON WEST, LAIMUTIS BYTAUTAS, KLAUS RUEDENBERG
     UNIVERSITY OF TOKYO: KIMIHIKO HIRAO, TAKAHITO NAKAJIMA,
          TAKAO TSUNEDA, MUNEAKI KAMIYA, SUSUMU YANAGISAWA,
          KIYOSHI YAGI, MAHITO CHIBA, SEIKEN TOKURA, NAOAKI KAWAKAMI
     UNIVERSITY OF AARHUS: FRANK JENSEN
     UNIVERSITY OF IOWA: VISVALDAS KAIRYS, HUI LI
     NATIONAL INST. OF STANDARDS AND TECHNOLOGY: WALT STEVENS, DAVID GARMER
     UNIVERSITY OF PISA: BENEDETTA MENNUCCI, JACOPO TOMASI
     UNIVERSITY OF MEMPHIS: HENRY KURTZ, PRAKASHAN KORAMBATH
     UNIVERSITY OF ALBERTA: TOBY ZENG, MARIUSZ KLOBUKOWSKI
     UNIVERSITY OF NEW ENGLAND: MARK SPACKMAN
     MIE UNIVERSITY: HIROAKI UMEDA
     NAT. INST. OF ADVANCED INDUSTRIAL SCIENCE AND TECHNOLOGY: KAZUO KITAURA
     MICHIGAN STATE UNIVERSITY:
          KAROL KOWALSKI, MARTA WLOCH, JEFFREY GOUR, JESSE LUTZ,
          WEI LI, PIOTR PIECUCH
     UNIVERSITY OF SILESIA: MONIKA MUSIAL, STANISLAW KUCHARSKI
     FACULTES UNIVERSITAIRES NOTRE-DAME DE LA PAIX:
          OLIVIER QUINET, BENOIT CHAMPAGNE
     UNIVERSITY OF CALIFORNIA - SANTA BARBARA: BERNARD KIRTMAN
     INSTITUTE FOR MOLECULAR SCIENCE:
          KAZUYA ISHIMURA, MICHIO KATOUDA, AND SHIGERU NAGASE
     UNIVERSITY OF NOTRE DAME: ANNA POMOGAEVA, DAN CHIPMAN
     KYUSHU UNIVERSITY:
          HARUYUKI NAKANO,
          FENG LONG GU, JACEK KORCHOWIEC, MARCIN MAKOWSKI, AND YURIKO AOKI,
          HIROTOSHI MORI AND EISAKU MIYOSHI
     PENNSYLVANIA STATE UNIVERSITY:
          TZVETELIN IORDANOV, CHET SWALINA, JONATHAN SKONE,
          SHARON HAMMES-SCHIFFER
     WASEDA UNIVERSITY:
          MASATO KOBAYASHI, TOMOKO AKAMA, TSUGUKI TOUMA,
          TAKESHI YOSHIKAWA, YASUHIRO IKABATA, JUNJI SEINO,
          YUYA NAKAJIMA, HIROMI NAKAI
     NANJING UNIVERSITY: SHUHUA LI
     UNIVERSITY OF NEBRASKA:
          PEIFENG SU, DEJUN SI, NANDUN THELLAMUREGE, YALI WANG, HUI LI
     UNIVERSITY OF ZURICH: ROBERTO PEVERATI, KIM BALDRIDGE
     N. COPERNICUS UNIVERSITY AND JACKSON STATE UNIVERSITY:
          MARIA BARYSZ
     UNIVERSITY OF COPENHAGEN: Jimmy Kromann, CASPER STEINMANN
     TOKYO INSTITUTE OF TECHNOLOGY: HIROYA NAKATA
     NAGOYA UNIVERSITY: YOSHIO NISHIMOTO, STEPHAN IRLE
     MOSCOW STATE UNIVERSITY: VLADIMIR MIRONOV

 EXECUTION OF GAMESS BEGUN Sun Sep 29 10:53:35 2019

            ECHO OF THE FIRST FEW INPUT CARDS -
 INPUT CARD> $BASIS GBASIS=PCSEG-1 $END                                                     
 INPUT CARD> $CONTRL COORD=ZMT ISPHER=1 RUNTYP=ENERGY DFTTYP=PBE MULT=1 $END                
 INPUT CARD>                                                                                
 INPUT CARD> $DATA                                                                          
 INPUT CARD>Title SO2 single-point calculation template with Z-Matrix                       
 INPUT CARD>C1                                                                              
 INPUT CARD>S                                                                               
 INPUT CARD>O 1 1.70                                                                        
 INPUT CARD>O 1 1.70 2 90                                                                   
 INPUT CARD> $END                                                                           
    1000000 WORDS OF MEMORY AVAILABLE

     BASIS OPTIONS
     -------------
     GBASIS=PCSEG-1      IGAUSS=       0      POLAR=NONE    
     NDFUNC=       0     NFFUNC=       0     DIFFSP=       F
     NPFUNC=       0      DIFFS=       F     BASNAM=        


     RUN TITLE
     ---------
 Title SO2 single-point calculation template with Z-Matrix                       

 THE POINT GROUP OF THE MOLECULE IS C1      
 THE ORDER OF THE PRINCIPAL AXIS IS     0

 YOUR FULLY SUBSTITUTED Z-MATRIX IS
 S   
 O      1   1.7000000
 O      1   1.7000000  2   90.0000

 THE MOMENTS OF INERTIA ARE (AMU-ANGSTROM**2)
 IXX=    23.106   IYY=    46.225   IZZ=    69.332

 ATOM      ATOMIC                      COORDINATES (BOHR)
           CHARGE         X                   Y                   Z
 S          16.0     0.0000000000       -1.1361175468        0.0000000000
 O           8.0     2.2716047029        1.1354871561        0.0000000000
 O           8.0    -2.2716047029        1.1354871561        0.0000000000

          INTERNUCLEAR DISTANCES (ANGS.)
          ------------------------------

                1 S          2 O          3 O     

   1 S       0.0000000    1.7000000 *  1.7000000 *
   2 O       1.7000000 *  0.0000000    2.4041631 *
   3 O       1.7000000 *  2.4041631 *  0.0000000  

  * ... LESS THAN  3.000


     ATOMIC BASIS SET
     ----------------
 THE CONTRACTED PRIMITIVE FUNCTIONS HAVE BEEN UNNORMALIZED
 THE CONTRACTED BASIS FUNCTIONS ARE NOW NORMALIZED TO UNITY

  SHELL TYPE  PRIMITIVE        EXPONENT          CONTRACTION COEFFICIENT(S)

 S         

      1   S       1         49299.4000000    0.000677492991
      1   S       2          7395.8400000    0.005232317766
      1   S       3          1683.3000000    0.026769459077
      1   S       4           476.1440000    0.102869580705
      1   S       5           154.3290000    0.286438127414
      1   S       6            55.0288000    0.454278639081
      1   S       7            20.5029000    0.271743121997

      2   S       8            45.9596000   -0.088421914560
      2   S       9             4.9274000    0.564350486135
      2   S      10             1.9179900    0.505415953466

      3   S      11             0.3684980    1.000000000000

      4   S      12             0.1291650    1.000000000000

      5   P      13           451.6620000    0.003707705453
      5   P      14           106.0980000    0.029219352245
      5   P      15            33.6996000    0.124444551509
      5   P      16            12.3054000    0.321808587656
      5   P      17             4.7141200    0.462822172957
      5   P      18             1.7810500    0.266513371364

      6   P      19             0.8722350    0.349265132972
      6   P      20             0.3102780    0.717115018770

      7   P      21             0.1001940    1.000000000000

      8   D      22             0.5500000    1.000000000000

 O         

      9   S      23          2288.6400000    0.005451138222
      9   S      24           344.4160000    0.040718922842
      9   S      25            78.2538000    0.181369420873
      9   S      26            21.7195000    0.465536820246
      9   S      27             6.5590700    0.451211321214

     10   S      28            10.4656000   -0.150211201174
     10   S      29             0.9643510    1.052867983385

     11   S      30             0.2851270    1.000000000000

     12   P      31            17.0590000    0.068749256972
     12   P      32             3.6899900    0.351671941499
     12   P      33             0.9929960    0.724532099722

     13   P      34             0.2449240    1.000000000000

     14   D      35             1.0000000    1.000000000000

 O         

     15   S      36          2288.6400000    0.005451138222
     15   S      37           344.4160000    0.040718922842
     15   S      38            78.2538000    0.181369420873
     15   S      39            21.7195000    0.465536820246
     15   S      40             6.5590700    0.451211321214

     16   S      41            10.4656000   -0.150211201174
     16   S      42             0.9643510    1.052867983385

     17   S      43             0.2851270    1.000000000000

     18   P      44            17.0590000    0.068749256972
     18   P      45             3.6899900    0.351671941499
     18   P      46             0.9929960    0.724532099722

     19   P      47             0.2449240    1.000000000000

     20   D      48             1.0000000    1.000000000000

 TOTAL NUMBER OF BASIS SET SHELLS             =   20
 NUMBER OF CARTESIAN GAUSSIAN BASIS FUNCTIONS =   49
 NOTE: THIS RUN WILL RESTRICT THE MO VARIATION SPACE TO SPHERICAL HARMONICS.
 THE NUMBER OF ORBITALS KEPT IN THE VARIATIONAL SPACE WILL BE PRINTED LATER.
 NUMBER OF ELECTRONS                          =   32
 CHARGE OF MOLECULE                           =    0
 SPIN MULTIPLICITY                            =    1
 NUMBER OF OCCUPIED ORBITALS (ALPHA)          =   16
 NUMBER OF OCCUPIED ORBITALS (BETA )          =   16
 TOTAL NUMBER OF ATOMS                        =    3
 THE NUCLEAR REPULSION ENERGY IS       93.7748261025

     LEBEDEV GRID-BASED DFT OPTIONS
     ------------------------------
     DFTTYP=PBE     
     NRAD  =      96     NLEB  =     302
     NRAD0 =      24     NLEB0 =     110
     SWOFF =    5.00E-03 (PURE SCF -> DFT)
     SWITCH=    3.00E-04 (COARSE -> TIGHT GRID)
     THRESH=    0.00E+00 GTHRE=    1.00E+00

 GRIMME'S EMPIRICAL DISPERSION CORRECTION= F

     $CONTRL OPTIONS
     ---------------
 SCFTYP=RHF          RUNTYP=ENERGY       EXETYP=RUN     
 MPLEVL=       0     CITYP =NONE         CCTYP =NONE         VBTYP =NONE    
 DFTTYP=PBE          TDDFT =NONE    
 MULT  =       1     ICHARG=       0     NZVAR =       0     COORD =ZMT     
 PP    =NONE         RELWFN=NONE         LOCAL =NONE         NUMGRD=       F
 ISPHER=       1     NOSYM =       0     MAXIT =      30     UNITS =ANGS    
 PLTORB=       F     MOLPLT=       F     AIMPAC=       F     FRIEND=        
 NPRINT=       7     IREST =       0     GEOM  =INPUT   
 NORMF =       0     NORMP =       0     ITOL  =      20     ICUT  =       9
 INTTYP=BEST         GRDTYP=BEST         QMTTOL= 1.0E-06

     $SYSTEM OPTIONS
     ---------------
  REPLICATED MEMORY=     1000000 WORDS (ON EVERY NODE).
 DISTRIBUTED MEMDDI=           0 MILLION WORDS IN AGGREGATE,
 MEMDDI DISTRIBUTED OVER   1 PROCESSORS IS           0 WORDS/PROCESSOR.
 TOTAL MEMORY REQUESTED ON EACH PROCESSOR=     1000000 WORDS.
 TIMLIM=      525600.00 MINUTES, OR     365.0 DAYS.
 PARALL= F  BALTYP=  DLB     KDIAG=    0  COREFL= F
 MXSEQ2=     300 MXSEQ3=     150  mem10=         0

          ----------------
          PROPERTIES INPUT
          ----------------

     MOMENTS            FIELD           POTENTIAL          DENSITY
 IEMOM =       1   IEFLD =       0   IEPOT =       0   IEDEN =       0
 WHERE =COMASS     WHERE =NUCLEI     WHERE =NUCLEI     WHERE =NUCLEI  
 OUTPUT=BOTH       OUTPUT=BOTH       OUTPUT=BOTH       OUTPUT=BOTH    
 IEMINT=       0   IEFINT=       0                     IEDINT=       0
                                                       MORB  =       0
          EXTRAPOLATION IN EFFECT
          DIIS IN EFFECT
 ORBITAL PRINTING OPTION: NPREO=     1    49     2     1

     -------------------------------
     INTEGRAL TRANSFORMATION OPTIONS
     -------------------------------
     NWORD  =            0
     CUTOFF = 1.0E-09     MPTRAN =       0
     DIRTRF =       F     AOINTS =DUP     

          ----------------------
          INTEGRAL INPUT OPTIONS
          ----------------------
 NOPK  =       1 NORDER=       0 SCHWRZ=       F

   --- ENCODED Z MATRIX ---
 COORD  TYPE   I   J   K   L   M   N
    1      1    2   1
    2      1    3   1
    3      2    3   1   2

 THE DETERMINANT OF THE G MATRIX IS 10**(    -4)

 THE DETERMINANT OF THE G MATRIX IS 10**(    -4)
 * * * WARNING * * *
 YOUR B MATRIX HAS A SMALL DETERMINANT.
 THIS SUGGESTS YOU MAY HAVE BADLY CHOSEN COORDINATES.

     ------------------------------------------
     THE POINT GROUP IS C1 , NAXIS= 0, ORDER= 1
     ------------------------------------------

 -- VARIATIONAL SPACE WILL BE RESTRICTED TO PURE SPHERICAL HARMONICS ONLY --
 AFTER EXCLUDING CONTAMINANT COMBINATIONS FROM THE CARTESIAN GAUSSIAN BASIS
 SET, THE NUMBER OF SPHERICAL HARMONICS KEPT IN THE VARIATION SPACE IS   46

     DIMENSIONS OF THE SYMMETRY SUBSPACES ARE
 A   =   46

 ..... DONE SETTING UP THE RUN .....
 STEP CPU TIME =     0.04 TOTAL CPU TIME =          0.0 (      0.0 MIN)
 TOTAL WALL CLOCK TIME=          0.1 SECONDS, CPU UTILIZATION IS    66.67%

          ********************
          1 ELECTRON INTEGRALS
          ********************
 ...... END OF ONE-ELECTRON INTEGRALS ......
 STEP CPU TIME =     0.00 TOTAL CPU TIME =          0.0 (      0.0 MIN)
 TOTAL WALL CLOCK TIME=          0.1 SECONDS, CPU UTILIZATION IS    66.67%

          -------------
          GUESS OPTIONS
          -------------
          GUESS =HUCKEL            NORB  =       0          NORDER=       0
          MIX   =       F          PRTMO =       F          PUNMO =       F
          TOLZ  = 1.0E-08          TOLE  = 1.0E-05
          SYMDEN=       F          PURIFY=       F

 INITIAL GUESS ORBITALS GENERATED BY HUCKEL   ROUTINE.
 HUCKEL GUESS REQUIRES     21634 WORDS.

 STATISTICS FOR GENERATION OF SYMMETRY ORBITAL -Q- MATRIX
 NUMBER OF CARTESIAN ATOMIC ORBITALS=         49
 NUMBER OF SPHERICAL CONTAMINANTS DROPPED=     3
 NUMBER OF LINEARLY DEPENDENT MOS DROPPED=     0
 TOTAL NUMBER OF MOS IN VARIATION SPACE=      46

 SYMMETRIES FOR INITIAL GUESS ORBITALS FOLLOW.   BOTH SET(S).
    16 ORBITALS ARE OCCUPIED (    7 CORE ORBITALS).
     8=A        9=A       10=A       11=A       12=A       13=A       14=A   
    15=A       16=A       17=A       18=A       19=A       20=A       21=A   
    22=A       23=A       24=A       25=A       26=A   
 ...... END OF INITIAL ORBITAL SELECTION ......
 STEP CPU TIME =     0.00 TOTAL CPU TIME =          0.0 (      0.0 MIN)
 TOTAL WALL CLOCK TIME=          0.1 SECONDS, CPU UTILIZATION IS    57.14%

                    ----------------------
                    AO INTEGRAL TECHNOLOGY
                    ----------------------
     S,P,L SHELL ROTATED AXIS INTEGRALS, REPROGRAMMED BY
        KAZUYA ISHIMURA (IMS) AND JOSE SIERRA (SYNSTAR).
     S,P,D,L SHELL ROTATED AXIS INTEGRALS PROGRAMMED BY
        KAZUYA ISHIMURA (INSTITUTE FOR MOLECULAR SCIENCE).
     S,P,D,F,G SHELL TO TOTAL QUARTET ANGULAR MOMENTUM SUM 5,
        ERIC PROGRAM BY GRAHAM FLETCHER (ELORET AND NASA ADVANCED
        SUPERCOMPUTING DIVISION, AMES RESEARCH CENTER).
     S,P,D,F,G,L SHELL GENERAL RYS QUADRATURE PROGRAMMED BY
        MICHEL DUPUIS (PACIFIC NORTHWEST NATIONAL LABORATORY).

          --------------------
          2 ELECTRON INTEGRALS
          --------------------

 THE -PK- OPTION IS OFF, THE INTEGRALS ARE NOT IN SUPERMATRIX FORM.
 STORING   15000 INTEGRALS/RECORD ON DISK, USING 12 BYTES/INTEGRAL.
 TWO ELECTRON INTEGRAL EVALUATION REQUIRES   90606 WORDS OF MEMORY.
 II,JST,KST,LST =  1  1  1  1 NREC =         1 INTLOC =    1
 II,JST,KST,LST =  2  1  1  1 NREC =         1 INTLOC =    2
 II,JST,KST,LST =  3  1  1  1 NREC =         1 INTLOC =    7
 II,JST,KST,LST =  4  1  1  1 NREC =         1 INTLOC =   22
 II,JST,KST,LST =  5  1  1  1 NREC =         1 INTLOC =   56
 II,JST,KST,LST =  6  1  1  1 NREC =         1 INTLOC =  125
 II,JST,KST,LST =  7  1  1  1 NREC =         1 INTLOC =  329
 II,JST,KST,LST =  8  1  1  1 NREC =         1 INTLOC =  776
 II,JST,KST,LST =  9  1  1  1 NREC =         1 INTLOC = 2864
 II,JST,KST,LST = 10  1  1  1 NREC =         1 INTLOC = 4842
 II,JST,KST,LST = 11  1  1  1 NREC =         1 INTLOC = 7492
 II,JST,KST,LST = 12  1  1  1 NREC =         1 INTLOC =10599
 II,JST,KST,LST = 13  1  1  1 NREC =         2 INTLOC = 6442
 II,JST,KST,LST = 14  1  1  1 NREC =         3 INTLOC = 6659
 II,JST,KST,LST = 15  1  1  1 NREC =         6 INTLOC = 8477
 II,JST,KST,LST = 16  1  1  1 NREC =         7 INTLOC =  883
 II,JST,KST,LST = 17  1  1  1 NREC =         7 INTLOC =12722
 II,JST,KST,LST = 18  1  1  1 NREC =         8 INTLOC =11140
 II,JST,KST,LST = 19  1  1  1 NREC =        11 INTLOC = 6935
 II,JST,KST,LST = 20  1  1  1 NREC =        14 INTLOC =14115
 TOTAL NUMBER OF NONZERO TWO-ELECTRON INTEGRALS =              342916
         23 INTEGRAL RECORDS WERE STORED ON DISK FILE  8.
  ...... END OF TWO-ELECTRON INTEGRALS .....
 STEP CPU TIME =     0.11 TOTAL CPU TIME =          0.2 (      0.0 MIN)
 TOTAL WALL CLOCK TIME=          0.2 SECONDS, CPU UTILIZATION IS    88.24%

          --------------------------
               R-PBE SCF CALCULATION
          --------------------------

     NUCLEAR ENERGY =        93.7748261025
     MAXIT =   30     NPUNCH=    2
     EXTRAP=T  DAMP=F  SHIFT=F  RSTRCT=F  DIIS=T  DEM=F  SOSCF=F
         DENSITY MATRIX CONVERGENCE THRESHOLD=  1.00E-05
     COARSE -> FINE DFT GRID SWITCH THRESHOLD=  3.00E-04 (SWITCH IN $DFT)
                   HF -> DFT SWITCH THRESHOLD=  5.00E-03 (SWOFF IN $DFT)
     MEMORY REQUIRED FOR RHF ITERS=    183108 WORDS.

 DFT CODE IS SWITCHING FROM THE FINE GRID NRAD= 96,  NLEB=  302
                      TO THE COARSE GRID NRAD0= 24, NLEB0=  110

     EXCHANGE FUNCTIONAL   =PBE       
     CORRELATION FUNCTIONAL=PBE       
     DFT THRESHOLD         =.460E-07
     GRID CHANGE THRESHOLD =.300E-03
 FOR AN EULER-MACLAURIN QUADRATURE USING  96 RADIAL POINTS:
 SMALLEST GAUSSIAN PRIMITIVE EXPONENT=        0.1001940000 OF TYPE -P-
 ON ATOM NUMBER   1 HAS RADIAL NORMALIZATION=  1.000000
  LARGEST GAUSSIAN PRIMITIVE EXPONENT=    49299.4000000000 OF TYPE -S-
 ON ATOM NUMBER   1 HAS RADIAL NORMALIZATION=  1.000000
 DFT IS SWITCHED OFF, PERFORMING PURE SCF UNTIL SWOFF THRESHOLD IS REACHED.

 ITER EX DEM     TOTAL ENERGY        E CHANGE  DENSITY CHANGE    DIIS ERROR
   1  0  0     -545.9176574569  -545.9176574569   0.798534606   0.935732379
          * * *   INITIATING DIIS PROCEDURE   * * *
   2  1  0     -546.3076166553    -0.3899591984   0.898182689   0.395594521
   3  2  0     -546.2052105956     0.1024060597   0.370354407   0.455364324
   4  3  0     -546.9422410247    -0.7370304291   0.037178027   0.011393522
   5  4  0     -546.9439673238    -0.0017262991   0.011621929   0.009995451
   6  5  0     -546.9443987342    -0.0004314105   0.006152091   0.003807407
   7  6  0     -546.9445135096    -0.0001147754   0.003301694   0.001257354
 CONVERGED TO SWOFF, SO DFT CALCULATION IS NOW SWITCHED ON.
          * * *   INITIATING DIIS PROCEDURE   * * *
   8  7  0     -548.1052366433    -1.1607231337   0.503944502   0.096144448
   9  8  0     -548.0658564343     0.0393802090   0.453867351   0.170714917
  10  9  0     -548.0853421123    -0.0194856780   0.138834640   0.156356392
  11 10  0     -548.1491704429    -0.0638283306   0.031054921   0.014627793
  12 11  0     -548.1500486911    -0.0008782482   0.003049038   0.001604339
  13 12  0     -548.1500570390    -0.0000083479   0.001279392   0.000709259
  14 13  0     -548.1500550318     0.0000020072   0.001030038   0.001429490
  15 14  0     -548.1500582941    -0.0000032623   0.000093986   0.000106698
 DFT CODE IS SWITCHING BACK TO THE FINE GRID
          * * *   INITIATING DIIS PROCEDURE   * * *
  16 15  0     -548.1648959857    -0.0148376916   0.023441112   0.015019658
  17 16  0     -548.1649265466    -0.0000305609   0.034668875   0.010663269
  18 17  0     -548.1644924531     0.0004340935   0.022222727   0.017493492
  19 18  0     -548.1652633932    -0.0007709401   0.000904963   0.000634142
  20 19  0     -548.1652644848    -0.0000010916   0.000596139   0.000125216
  21 20  0     -548.1652636321     0.0000008527   0.000530295   0.000769981
  22 21  0     -548.1652645753    -0.0000009431   0.000049418   0.000032118
  23 22  0     -548.1652645777    -0.0000000024   0.000007116   0.000005077
  24 23  0     -548.1652645777    -0.0000000000   0.000000439   0.000000232

          -----------------
          DENSITY CONVERGED
          -----------------
     TIME TO FORM FOCK OPERATORS=       2.5 SECONDS (       0.1 SEC/ITER)
     TIME TO SOLVE SCF EQUATIONS=       0.0 SECONDS (       0.0 SEC/ITER)

 FINAL R-PBE ENERGY IS     -548.1652645777 AFTER  24 ITERATIONS
 DFT EXCHANGE + CORRELATION ENERGY =       -42.2681677742
 TOTAL ELECTRON NUMBER             =        32.0000040874

          ------------
          EIGENVECTORS
          ------------

                      1          2          3          4          5
                  -88.2270   -18.8056   -18.8056    -7.8437    -5.8691
                     A          A          A          A          A   
    1  S  1  S    0.997763  -0.000006  -0.000005  -0.308400  -0.000000
    2  S  1  S    0.008207   0.000003   0.000002   1.031787   0.000000
    3  S  1  S   -0.002862  -0.001048  -0.000817   0.027778   0.000000
    4  S  1  S    0.001142   0.005849   0.004561  -0.006229  -0.000000
    5  S  1  X   -0.000000   0.000093  -0.000119  -0.000000   0.994748
    6  S  1  Y    0.000110  -0.000150  -0.000117   0.006971  -0.000002
    7  S  1  Z    0.000000   0.000000   0.000000   0.000000   0.000000
    8  S  1  X    0.000000  -0.000903   0.001158  -0.000000   0.016825
    9  S  1  Y   -0.000264   0.001244   0.000970   0.000784  -0.000000
   10  S  1  Z    0.000000   0.000000   0.000000   0.000000   0.000000
   11  S  1  X    0.000000  -0.001471   0.001886  -0.000000  -0.002870
   12  S  1  Y    0.000089   0.002943   0.002295  -0.000221   0.000000
   13  S  1  Z    0.000000   0.000000   0.000000   0.000000   0.000000
   14  S  1 XX   -0.000048   0.000337   0.000262   0.000237  -0.000000
   15  S  1 YY   -0.000033   0.000372   0.000290   0.000068  -0.000000
   16  S  1 ZZ    0.000081  -0.000709  -0.000553  -0.000305   0.000000
   17  S  1 XY    0.000000  -0.000576   0.000739  -0.000000   0.000960
   18  S  1 XZ    0.000000   0.000000   0.000000   0.000000   0.000000
   19  S  1 YZ    0.000000   0.000000   0.000000   0.000000   0.000000
   20  O  2  S   -0.000006   0.121986   0.985728   0.000022  -0.000052
   21  O  2  S   -0.000068   0.004223   0.032943  -0.000060  -0.000043
   22  O  2  S    0.000053  -0.003004  -0.014850   0.000021  -0.000532
   23  O  2  X    0.000003   0.000048  -0.000838   0.000152   0.000011
   24  O  2  Y    0.000011  -0.000106  -0.000913   0.000133   0.000084
   25  O  2  Z    0.000000   0.000000   0.000000   0.000000   0.000000
   26  O  2  X   -0.000161   0.000404   0.002497   0.000456   0.000691
   27  O  2  Y   -0.000191   0.000437   0.002342   0.000538   0.000723
   28  O  2  Z    0.000000   0.000000   0.000000   0.000000   0.000000
   29  O  2 XX    0.000044   0.000087  -0.000163  -0.000094   0.000136
   30  O  2 YY    0.000046  -0.000006  -0.000094  -0.000104  -0.000100
   31  O  2 ZZ   -0.000091  -0.000081   0.000257   0.000198  -0.000036
   32  O  2 XY    0.000160  -0.000095  -0.000363  -0.000346   0.000073
   33  O  2 XZ    0.000000   0.000000   0.000000   0.000000   0.000000
   34  O  2 YZ    0.000000   0.000000   0.000000   0.000000   0.000000
   35  O  3  S   -0.000006   0.985731  -0.121960   0.000022   0.000052
   36  O  3  S   -0.000068   0.032979  -0.003934  -0.000060   0.000043
   37  O  3  S    0.000053  -0.015134   0.000706   0.000021   0.000532
   38  O  3  X   -0.000003   0.000801  -0.000250  -0.000152   0.000011
   39  O  3  Y    0.000011  -0.000911   0.000119   0.000133  -0.000084
   40  O  3  Z    0.000000   0.000000   0.000000   0.000000   0.000000
   41  O  3  X    0.000161  -0.002520   0.000217  -0.000456   0.000692
   42  O  3  Y   -0.000191   0.002377  -0.000147   0.000538  -0.000723
   43  O  3  Z    0.000000   0.000000   0.000000   0.000000   0.000000
   44  O  3 XX    0.000044  -0.000137   0.000124  -0.000094  -0.000136
   45  O  3 YY    0.000046  -0.000093   0.000017  -0.000104   0.000100
   46  O  3 ZZ   -0.000091   0.000230  -0.000141   0.000198   0.000036
   47  O  3 XY   -0.000160   0.000376   0.000003   0.000346   0.000073
   48  O  3 XZ    0.000000   0.000000   0.000000   0.000000   0.000000
   49  O  3 YZ    0.000000   0.000000   0.000000   0.000000   0.000000

                      6          7          8          9         10
                   -5.8676    -5.8656    -0.9550    -0.8708    -0.6400
                     A          A          A          A          A   
    1  S  1  S    0.000000   0.002141   0.044491   0.000000   0.074180
    2  S  1  S    0.000000  -0.007307  -0.275496  -0.000001  -0.473066
    3  S  1  S    0.000000  -0.000788   0.391444   0.000002   0.717930
    4  S  1  S    0.000000   0.002008   0.088718  -0.000005   0.278279
    5  S  1  X    0.000000   0.000002   0.000000  -0.079462   0.000000
    6  S  1  Y    0.000000   0.994775  -0.059140   0.000000   0.048967
    7  S  1  Z    0.994951   0.000000   0.000000   0.000000   0.000000
    8  S  1  X    0.000000   0.000000  -0.000000   0.182048  -0.000000
    9  S  1  Y    0.000000   0.016623   0.131949  -0.000000  -0.118798
   10  S  1  Z    0.015964   0.000000   0.000000   0.000000   0.000000
   11  S  1  X    0.000000  -0.000000   0.000001   0.001263  -0.000001
   12  S  1  Y    0.000000  -0.002466  -0.010804  -0.000003  -0.041711
   13  S  1  Z   -0.003187   0.000000   0.000000   0.000000   0.000000
   14  S  1 XX    0.000000   0.000000   0.013709  -0.000000  -0.003164
   15  S  1 YY    0.000000   0.000596   0.013721  -0.000000  -0.009371
   16  S  1 ZZ    0.000000  -0.000596  -0.027430   0.000000   0.012535
   17  S  1 XY    0.000000   0.000000   0.000000   0.059468  -0.000000
   18  S  1 XZ   -0.000000   0.000000   0.000000   0.000000   0.000000
   19  S  1 YZ    0.000298   0.000000   0.000000   0.000000   0.000000
   20  O  2  S    0.000000  -0.000055  -0.139727  -0.170360   0.102069
   21  O  2  S    0.000000   0.000041   0.286284   0.354135  -0.216722
   22  O  2  S    0.000000  -0.000918   0.274582   0.354913  -0.262799
   23  O  2  X    0.000000   0.000078  -0.068111  -0.041471  -0.055634
   24  O  2  Y    0.000000   0.000007  -0.062763  -0.060611  -0.074374
   25  O  2  Z   -0.000063   0.000000   0.000000   0.000000   0.000000
   26  O  2  X    0.000000   0.000754  -0.026915  -0.018127  -0.024137
   27  O  2  Y    0.000000   0.000626  -0.027232  -0.026847  -0.033528
   28  O  2  Z   -0.000045   0.000000   0.000000   0.000000   0.000000
   29  O  2 XX    0.000000  -0.000103   0.001441  -0.001168   0.000633
   30  O  2 YY    0.000000   0.000196   0.002658   0.002860   0.002715
   31  O  2 ZZ    0.000000  -0.000093  -0.004099  -0.001692  -0.003348
   32  O  2 XY    0.000000   0.000148   0.010692   0.008622   0.003760
   33  O  2 XZ    0.000146   0.000000   0.000000   0.000000   0.000000
   34  O  2 YZ    0.000142   0.000000   0.000000   0.000000   0.000000
   35  O  3  S    0.000000  -0.000055  -0.139727   0.170359   0.102069
   36  O  3  S    0.000000   0.000041   0.286285  -0.354136  -0.216723
   37  O  3  S    0.000000  -0.000918   0.274586  -0.354905  -0.262800
   38  O  3  X    0.000000  -0.000078   0.068111  -0.041471   0.055634
   39  O  3  Y    0.000000   0.000007  -0.062763   0.060611  -0.074374
   40  O  3  Z   -0.000063   0.000000   0.000000   0.000000   0.000000
   41  O  3  X    0.000000  -0.000754   0.026915  -0.018124   0.024137
   42  O  3  Y    0.000000   0.000626  -0.027233   0.026845  -0.033527
   43  O  3  Z   -0.000045   0.000000   0.000000   0.000000   0.000000
   44  O  3 XX    0.000000  -0.000103   0.001441   0.001168   0.000633
   45  O  3 YY    0.000000   0.000196   0.002658  -0.002860   0.002715
   46  O  3 ZZ    0.000000  -0.000093  -0.004099   0.001692  -0.003348
   47  O  3 XY    0.000000  -0.000148  -0.010692   0.008622  -0.003760
   48  O  3 XZ   -0.000146   0.000000   0.000000   0.000000   0.000000
   49  O  3 YZ    0.000142   0.000000   0.000000   0.000000   0.000000

                     11         12         13         14         15
                   -0.4166    -0.4103    -0.3963    -0.2950    -0.2878
                     A          A          A          A          A   
    1  S  1  S    0.000000  -0.009740   0.000000   0.010865   0.000000
    2  S  1  S   -0.000001   0.061278   0.000000  -0.070782   0.000000
    3  S  1  S    0.000001  -0.058129   0.000000   0.098064   0.000000
    4  S  1  S    0.000001  -0.213827   0.000000   0.161313   0.000000
    5  S  1  X   -0.199545  -0.000001   0.000000   0.000000   0.000000
    6  S  1  Y    0.000001  -0.214080   0.000000   0.060363   0.000000
    7  S  1  Z    0.000000   0.000000  -0.226365   0.000000   0.000000
    8  S  1  X    0.539993   0.000003   0.000000  -0.000000   0.000000
    9  S  1  Y   -0.000004   0.578257   0.000000  -0.166032   0.000000
   10  S  1  Z    0.000000   0.000000   0.617400   0.000000  -0.000001
   11  S  1  X    0.076614   0.000001   0.000000   0.000001   0.000000
   12  S  1  Y   -0.000000   0.091918   0.000000  -0.017415   0.000000
   13  S  1  Z    0.000000   0.000000   0.189253   0.000000  -0.000000
   14  S  1 XX   -0.000000  -0.013551   0.000000  -0.095292   0.000000
   15  S  1 YY   -0.000000   0.036351   0.000000   0.068864   0.000000
   16  S  1 ZZ    0.000000  -0.022800   0.000000   0.026428   0.000000
   17  S  1 XY    0.048126   0.000000   0.000000  -0.000000   0.000000
   18  S  1 XZ    0.000000   0.000000  -0.000000   0.000000  -0.078054
   19  S  1 YZ    0.000000   0.000000   0.038985   0.000000   0.000000
   20  O  2  S    0.059136   0.045560   0.000000  -0.000490   0.000000
   21  O  2  S   -0.125861  -0.097649   0.000000   0.001424   0.000000
   22  O  2  S   -0.194182  -0.140300   0.000000  -0.011135   0.000000
   23  O  2  X   -0.164535  -0.297716   0.000000  -0.187339   0.000000
   24  O  2  Y   -0.299575  -0.093740   0.000000   0.410615   0.000000
   25  O  2  Z    0.000000   0.000000   0.275446   0.000000  -0.478264
   26  O  2  X   -0.093583  -0.178044   0.000000  -0.139984   0.000000
   27  O  2  Y   -0.167958  -0.053143   0.000000   0.299383   0.000000
   28  O  2  Z    0.000000   0.000000   0.171354   0.000000  -0.340446
   29  O  2 XX   -0.001849   0.010728   0.000000   0.011456   0.000000
   30  O  2 YY    0.009020  -0.004677   0.000000  -0.014483   0.000000
   31  O  2 ZZ   -0.007170  -0.006052   0.000000   0.003026   0.000000
   32  O  2 XY    0.009069   0.009452   0.000000  -0.005472   0.000000
   33  O  2 XZ    0.000000   0.000000  -0.011489   0.000000   0.008943
   34  O  2 YZ    0.000000   0.000000  -0.011314   0.000000   0.012330
   35  O  3  S   -0.059136   0.045560   0.000000  -0.000490   0.000000
   36  O  3  S    0.125861  -0.097648   0.000000   0.001424   0.000000
   37  O  3  S    0.194184  -0.140297   0.000000  -0.011134   0.000000
   38  O  3  X   -0.164538   0.297715   0.000000   0.187343   0.000000
   39  O  3  Y    0.299577  -0.093737   0.000000   0.410615   0.000000
   40  O  3  Z    0.000000   0.000000   0.275447   0.000000   0.478264
   41  O  3  X   -0.093584   0.178044   0.000000   0.139987   0.000000
   42  O  3  Y    0.167958  -0.053142   0.000000   0.299383   0.000000
   43  O  3  Z    0.000000   0.000000   0.171355   0.000000   0.340446
   44  O  3 XX    0.001849   0.010728   0.000000   0.011456   0.000000
   45  O  3 YY   -0.009020  -0.004677   0.000000  -0.014483   0.000000
   46  O  3 ZZ    0.007170  -0.006052   0.000000   0.003026   0.000000
   47  O  3 XY    0.009069  -0.009452   0.000000   0.005472   0.000000
   48  O  3 XZ    0.000000   0.000000   0.011489   0.000000   0.008943
   49  O  3 YZ    0.000000   0.000000  -0.011314   0.000000  -0.012330

                     16         17         18         19         20
                   -0.2483    -0.2199    -0.1149    -0.0449     0.2119
                     A          A          A          A          A   
    1  S  1  S   -0.000000   0.000000  -0.000000   0.033722   0.000000
    2  S  1  S    0.000000   0.000000   0.000001  -0.228147   0.000000
    3  S  1  S   -0.000003   0.000000  -0.000001   0.393188   0.000000
    4  S  1  S    0.000005   0.000000  -0.000003   0.443208   0.000000
    5  S  1  X   -0.017843   0.000000  -0.216817  -0.000002   0.000000
    6  S  1  Y   -0.000000   0.000000   0.000001  -0.187411   0.000000
    7  S  1  Z    0.000000  -0.209039   0.000000   0.000000   0.252301
    8  S  1  X    0.048671   0.000000   0.651783   0.000005   0.000000
    9  S  1  Y    0.000000   0.000000  -0.000003   0.576841   0.000000
   10  S  1  Z    0.000000   0.608259   0.000000   0.000000  -0.997098
   11  S  1  X    0.146908   0.000000   0.534826  -0.000001   0.000000
   12  S  1  Y    0.000004   0.000000  -0.000003   0.679638   0.000000
   13  S  1  Z    0.000000   0.248854   0.000000   0.000000   1.302382
   14  S  1 XX    0.000000   0.000000   0.000000  -0.049329   0.000000
   15  S  1 YY   -0.000000   0.000000   0.000000  -0.111518   0.000000
   16  S  1 ZZ   -0.000000   0.000000  -0.000000   0.160847   0.000000
   17  S  1 XY   -0.071932   0.000000  -0.171032  -0.000000   0.000000
   18  S  1 XZ    0.000000  -0.000000   0.000000   0.000000   0.000000
   19  S  1 YZ    0.000000  -0.070324   0.000000   0.000000  -0.103188
   20  O  2  S    0.008489   0.000000   0.031497   0.049781   0.000000
   21  O  2  S   -0.018269   0.000000  -0.061516  -0.090532   0.000000
   22  O  2  S   -0.061137   0.000000  -0.249625  -0.406610   0.000000
   23  O  2  X    0.456666   0.000000   0.046771   0.293645   0.000000
   24  O  2  Y   -0.179661   0.000000   0.347088   0.191477   0.000000
   25  O  2  Z    0.000000  -0.390821   0.000000   0.000000  -0.039773
   26  O  2  X    0.316614   0.000000   0.038732   0.319023   0.000000
   27  O  2  Y   -0.118223   0.000000   0.295414   0.164741   0.000000
   28  O  2  Z    0.000000  -0.307536   0.000000   0.000000  -0.134638
   29  O  2 XX   -0.010541   0.000000  -0.000823   0.000499   0.000000
   30  O  2 YY    0.009647   0.000000   0.002190  -0.002988   0.000000
   31  O  2 ZZ    0.000895   0.000000  -0.001368   0.002490   0.000000
   32  O  2 XY   -0.007385   0.000000   0.000131   0.003426   0.000000
   33  O  2 XZ    0.000000   0.003789   0.000000   0.000000   0.011819
   34  O  2 YZ    0.000000   0.002285   0.000000   0.000000   0.008911
   35  O  3  S   -0.008489   0.000000  -0.031497   0.049781   0.000000
   36  O  3  S    0.018270   0.000000   0.061514  -0.090534   0.000000
   37  O  3  S    0.061131   0.000000   0.249631  -0.406607   0.000000
   38  O  3  X    0.456664   0.000000   0.046772  -0.293647   0.000000
   39  O  3  Y    0.179659   0.000000  -0.347090   0.191473   0.000000
   40  O  3  Z    0.000000  -0.390821   0.000000   0.000000  -0.039773
   41  O  3  X    0.316610   0.000000   0.038735  -0.319020   0.000000
   42  O  3  Y    0.118222   0.000000  -0.295416   0.164739   0.000000
   43  O  3  Z    0.000000  -0.307536   0.000000   0.000000  -0.134638
   44  O  3 XX    0.010541   0.000000   0.000823   0.000499   0.000000
   45  O  3 YY   -0.009647   0.000000  -0.002190  -0.002988   0.000000
   46  O  3 ZZ   -0.000895   0.000000   0.001367   0.002490   0.000000
   47  O  3 XY   -0.007385   0.000000   0.000131  -0.003426   0.000000
   48  O  3 XZ    0.000000  -0.003789   0.000000   0.000000  -0.011819
   49  O  3 YZ    0.000000   0.002285   0.000000   0.000000   0.008911

                     21         22         23         24         25
                    0.2164     0.2290     0.2471     0.4841     0.4876
                     A          A          A          A          A   
    1  S  1  S    0.010253   0.000002  -0.063240   0.000000   0.000000
    2  S  1  S   -0.075689  -0.000013   0.468697   0.000000   0.000000
    3  S  1  S    0.238109   0.000053  -1.895531   0.000000   0.000000
    4  S  1  S   -0.151124  -0.000066   2.312913   0.000000   0.000000
    5  S  1  X   -0.000004   0.262536   0.000006   0.000000   0.000000
    6  S  1  Y    0.269493   0.000004  -0.000125   0.000000   0.000000
    7  S  1  Z    0.000000   0.000000   0.000000  -0.000000   0.027666
    8  S  1  X    0.000017  -1.026969  -0.000024   0.000000   0.000000
    9  S  1  Y   -1.043299  -0.000017   0.004477   0.000000   0.000000
   10  S  1  Z    0.000000   0.000000   0.000000   0.000001  -0.116167
   11  S  1  X   -0.000022   1.413051   0.000037   0.000000   0.000000
   12  S  1  Y    1.346082   0.000005   0.586633   0.000000   0.000000
   13  S  1  Z    0.000000   0.000000   0.000000  -0.000001   0.087741
   14  S  1 XX    0.096571   0.000002  -0.046891   0.000000   0.000000
   15  S  1 YY   -0.053080   0.000000  -0.109669   0.000000   0.000000
   16  S  1 ZZ   -0.043490  -0.000003   0.156560   0.000000   0.000000
   17  S  1 XY    0.000001   0.028329   0.000003   0.000000   0.000000
   18  S  1 XZ    0.000000   0.000000   0.000000   0.915492   0.000008
   19  S  1 YZ    0.000000   0.000000   0.000000  -0.000008   0.890929
   20  O  2  S    0.000383   0.007233   0.031171   0.000000   0.000000
   21  O  2  S    0.059652   0.030231  -0.033726   0.000000   0.000000
   22  O  2  S   -0.314154  -0.340527  -0.540577   0.000000   0.000000
   23  O  2  X   -0.133763  -0.174064  -0.095319   0.000000   0.000000
   24  O  2  Y   -0.114762  -0.084140  -0.084964   0.000000   0.000000
   25  O  2  Z    0.000000   0.000000   0.000000  -0.266931  -0.296727
   26  O  2  X    0.042614  -0.087917   0.188938   0.000000   0.000000
   27  O  2  Y   -0.095250   0.060462   0.118911   0.000000   0.000000
   28  O  2  Z    0.000000   0.000000   0.000000   0.126480   0.145616
   29  O  2 XX   -0.018918   0.001518  -0.016141   0.000000   0.000000
   30  O  2 YY    0.007990  -0.013601  -0.008010   0.000000   0.000000
   31  O  2 ZZ    0.010928   0.012084   0.024152   0.000000   0.000000
   32  O  2 XY   -0.014344  -0.020883  -0.028628   0.000000   0.000000
   33  O  2 XZ    0.000000   0.000000   0.000000  -0.022754  -0.042196
   34  O  2 YZ    0.000000   0.000000   0.000000  -0.043269  -0.021915
   35  O  3  S    0.000384  -0.007234   0.031171   0.000000   0.000000
   36  O  3  S    0.059649  -0.030235  -0.033735   0.000000   0.000000
   37  O  3  S   -0.314159   0.340553  -0.540551   0.000000   0.000000
   38  O  3  X    0.133766  -0.174068   0.095305   0.000000   0.000000
   39  O  3  Y   -0.114765   0.084141  -0.084960   0.000000   0.000000
   40  O  3  Z    0.000000   0.000000   0.000000   0.266936  -0.296722
   41  O  3  X   -0.042607  -0.087905  -0.188936   0.000000   0.000000
   42  O  3  Y   -0.095249  -0.060473   0.118905   0.000000   0.000000
   43  O  3  Z    0.000000   0.000000   0.000000  -0.126482   0.145613
   44  O  3 XX   -0.018918  -0.001517  -0.016141   0.000000   0.000000
   45  O  3 YY    0.007990   0.013602  -0.008010   0.000000   0.000000
   46  O  3 ZZ    0.010928  -0.012085   0.024151   0.000000   0.000000
   47  O  3 XY    0.014345  -0.020884   0.028627   0.000000   0.000000
   48  O  3 XZ    0.000000   0.000000   0.000000  -0.022754   0.042196
   49  O  3 YZ    0.000000   0.000000   0.000000   0.043269  -0.021914

                     26         27         28         29         30
                    0.4908     0.6100     0.6860     0.7789     0.8259
                     A          A          A          A          A   
    1  S  1  S    0.000174   0.002441   0.000000   0.005936   0.000000
    2  S  1  S   -0.001144  -0.021617  -0.000000  -0.049108   0.000000
    3  S  1  S    0.007642   0.263716   0.000002   0.171527   0.000000
    4  S  1  S   -0.024045  -0.881921  -0.000005   0.178859   0.000000
    5  S  1  X    0.000000   0.000000  -0.079005   0.000000   0.000000
    6  S  1  Y   -0.029268   0.060679   0.000000  -0.026439   0.000000
    7  S  1  Z    0.000000   0.000000   0.000000   0.000000  -0.000000
    8  S  1  X   -0.000000  -0.000002   0.376627  -0.000000   0.000000
    9  S  1  Y    0.119895  -0.261091  -0.000001   0.172962   0.000000
   10  S  1  Z    0.000000   0.000000   0.000000   0.000000   0.000000
   11  S  1  X    0.000000  -0.000002   0.204319   0.000001   0.000000
   12  S  1  Y   -0.127882  -0.318593  -0.000002   0.277662   0.000000
   13  S  1  Z    0.000000   0.000000   0.000000   0.000000  -0.000004
   14  S  1 XX    0.765692  -0.464273  -0.000001  -0.440535   0.000000
   15  S  1 YY   -0.685739  -0.491844  -0.000001   0.429632   0.000000
   16  S  1 ZZ   -0.079953   0.956117   0.000002   0.010903   0.000000
   17  S  1 XY   -0.000000  -0.000003   0.929719  -0.000000   0.000000
   18  S  1 XZ    0.000000   0.000000   0.000000   0.000000   0.416473
   19  S  1 YZ    0.000000   0.000000   0.000000   0.000000  -0.000004
   20  O  2  S   -0.002141  -0.066153   0.075784   0.005446   0.000000
   21  O  2  S    0.011665   0.278869  -0.326641   0.003582   0.000000
   22  O  2  S    0.017104   0.190984  -0.079344  -0.129012   0.000000
   23  O  2  X   -0.227260  -0.021318  -0.105500  -0.529248   0.000000
   24  O  2  Y    0.280100   0.066121  -0.049630   0.197893   0.000000
   25  O  2  Z    0.000000   0.000000   0.000000   0.000000   0.592711
   26  O  2  X    0.094210  -0.307432   0.497948   0.705454   0.000000
   27  O  2  Y   -0.109128  -0.346405   0.443645  -0.210559   0.000000
   28  O  2  Z    0.000000   0.000000   0.000000   0.000000  -0.779030
   29  O  2 XX   -0.052543  -0.013607   0.009900   0.029271   0.000000
   30  O  2 YY    0.055307  -0.006056   0.008571  -0.036411   0.000000
   31  O  2 ZZ   -0.002764   0.019663  -0.018471   0.007140   0.000000
   32  O  2 XY    0.005369  -0.002381   0.038709   0.026320   0.000000
   33  O  2 XZ    0.000000   0.000000   0.000000   0.000000  -0.034487
   34  O  2 YZ    0.000000   0.000000   0.000000   0.000000  -0.029558
   35  O  3  S   -0.002141  -0.066153  -0.075785   0.005446   0.000000
   36  O  3  S    0.011666   0.278872   0.326643   0.003582   0.000000
   37  O  3  S    0.017103   0.190976   0.079347  -0.129012   0.000000
   38  O  3  X    0.227260   0.021322  -0.105502   0.529243   0.000000
   39  O  3  Y    0.280100   0.066121   0.049632   0.197892   0.000000
   40  O  3  Z    0.000000   0.000000   0.000000   0.000000  -0.592720
   41  O  3  X   -0.094210   0.307425   0.497951  -0.705449   0.000000
   42  O  3  Y   -0.109128  -0.346402  -0.443648  -0.210559   0.000000
   43  O  3  Z    0.000000   0.000000   0.000000   0.000000   0.779042
   44  O  3 XX   -0.052543  -0.013607  -0.009900   0.029270   0.000000
   45  O  3 YY    0.055307  -0.006056  -0.008571  -0.036411   0.000000
   46  O  3 ZZ   -0.002764   0.019663   0.018471   0.007141   0.000000
   47  O  3 XY   -0.005369   0.002381   0.038709  -0.026320   0.000000
   48  O  3 XZ    0.000000   0.000000   0.000000   0.000000  -0.034488
   49  O  3 YZ    0.000000   0.000000   0.000000   0.000000   0.029558

                     31         32         33         34         35
                    0.8332     0.8357     0.8433     0.9353     1.4159
                     A          A          A          A          A   
    1  S  1  S    0.000000   0.016514   0.000000   0.000000  -0.000000
    2  S  1  S    0.000000  -0.137830  -0.000001  -0.000000   0.000000
    3  S  1  S    0.000000   0.623172   0.000007   0.000000   0.000031
    4  S  1  S    0.000000  -0.085933  -0.000001   0.000004  -0.000137
    5  S  1  X    0.000000   0.000000  -0.035479  -0.009223   0.062267
    6  S  1  Y    0.000000  -0.048555  -0.000001  -0.000000   0.000006
    7  S  1  Z   -0.002434   0.000000   0.000000   0.000000   0.000000
    8  S  1  X    0.000000  -0.000004   0.286618   0.100529  -0.382559
    9  S  1  Y    0.000000   0.361939   0.000004   0.000002  -0.000033
   10  S  1  Z    0.017583   0.000000   0.000000   0.000000   0.000000
   11  S  1  X    0.000000   0.000001  -0.035906  -0.607593  -0.517043
   12  S  1  Y    0.000000  -0.329160  -0.000003   0.000001  -0.000064
   13  S  1  Z   -0.488542   0.000000   0.000000   0.000000   0.000000
   14  S  1 XX    0.000000   0.084279   0.000001   0.000002  -0.000013
   15  S  1 YY    0.000000  -0.332976  -0.000004  -0.000001  -0.000016
   16  S  1 ZZ    0.000000   0.248697   0.000002  -0.000001   0.000029
   17  S  1 XY    0.000000   0.000005  -0.413485  -0.294975  -0.367348
   18  S  1 XZ   -0.000003   0.000000   0.000000   0.000000   0.000000
   19  S  1 YZ   -0.462035   0.000000   0.000000   0.000000   0.000000
   20  O  2  S    0.000000   0.008342   0.005237   0.006105   0.077856
   21  O  2  S    0.000000  -0.062474  -0.072787  -0.137674  -1.151698
   22  O  2  S    0.000000   0.110831   0.091769   0.317671   1.551265
   23  O  2  X    0.000000  -0.263830  -0.213292  -0.574014   0.143640
   24  O  2  Y    0.000000  -0.532066  -0.593158   0.240611   0.057493
   25  O  2  Z   -0.577169   0.000000   0.000000   0.000000   0.000000
   26  O  2  X    0.000000   0.309418   0.220983   0.773816  -0.477052
   27  O  2  Y    0.000000   0.749710   0.682303  -0.478855  -0.367716
   28  O  2  Z    0.828683   0.000000   0.000000   0.000000   0.000000
   29  O  2 XX    0.000000  -0.021660   0.001806   0.054095  -0.105824
   30  O  2 YY    0.000000   0.040131   0.005228  -0.032885  -0.029031
   31  O  2 ZZ    0.000000  -0.018472  -0.007035  -0.021209   0.134855
   32  O  2 XY    0.000000   0.040335   0.005733  -0.021794  -0.124152
   33  O  2 XZ    0.031337   0.000000   0.000000   0.000000   0.000000
   34  O  2 YZ    0.036031   0.000000   0.000000   0.000000   0.000000
   35  O  3  S    0.000000   0.008341  -0.005237  -0.006106  -0.077844
   36  O  3  S    0.000000  -0.062472   0.072787   0.137688   1.151503
   37  O  3  S    0.000000   0.110829  -0.091768  -0.317688  -1.550955
   38  O  3  X    0.000000   0.263835  -0.213287  -0.574017   0.143638
   39  O  3  Y    0.000000  -0.532079   0.593147  -0.240614  -0.057482
   40  O  3  Z   -0.577160   0.000000   0.000000   0.000000   0.000000
   41  O  3  X    0.000000  -0.309424   0.220977   0.773817  -0.476988
   42  O  3  Y    0.000000   0.749724  -0.682286   0.478861   0.367651
   43  O  3  Z    0.828671   0.000000   0.000000   0.000000   0.000000
   44  O  3 XX    0.000000  -0.021659  -0.001807  -0.054095   0.105824
   45  O  3 YY    0.000000   0.040131  -0.005227   0.032886   0.029026
   46  O  3 ZZ    0.000000  -0.018472   0.007034   0.021209  -0.134850
   47  O  3 XY    0.000000  -0.040335   0.005732  -0.021794  -0.124129
   48  O  3 XZ   -0.031337   0.000000   0.000000   0.000000   0.000000
   49  O  3 YZ    0.036031   0.000000   0.000000   0.000000   0.000000

                     36         37         38         39         40
                    1.4495     2.0935     2.0982     2.1041     2.1062
                     A          A          A          A          A   
    1  S  1  S    0.001393  -0.000000   0.000000   0.000000   0.001719
    2  S  1  S   -0.010321   0.000000   0.000000   0.000000  -0.012599
    3  S  1  S    0.467651  -0.000001   0.000000   0.000000   0.070243
    4  S  1  S   -1.847556   0.000001   0.000000   0.000000  -0.170770
    5  S  1  X   -0.000005  -0.014768   0.000000   0.000000  -0.000000
    6  S  1  Y    0.073830  -0.000000   0.000000   0.000000  -0.002965
    7  S  1  Z    0.000000   0.000000  -0.006064   0.000000   0.000000
    8  S  1  X    0.000031   0.041480   0.000000   0.000000   0.000000
    9  S  1  Y   -0.402220   0.000000   0.000000   0.000000   0.001189
   10  S  1  Z    0.000000   0.000000   0.018158  -0.000000   0.000000
   11  S  1  X    0.000034   0.058703   0.000000   0.000000   0.000000
   12  S  1  Y   -0.883112   0.000001   0.000000   0.000000  -0.106550
   13  S  1  Z    0.000000   0.000000   0.025656  -0.000001   0.000000
   14  S  1 XX   -0.175345  -0.000000   0.000000   0.000000   0.011059
   15  S  1 YY   -0.215027   0.000000   0.000000   0.000000   0.024976
   16  S  1 ZZ    0.390372   0.000000   0.000000   0.000000  -0.036035
   17  S  1 XY    0.000026  -0.019577   0.000000   0.000000  -0.000000
   18  S  1 XZ    0.000000   0.000000   0.000000   0.021878   0.000000
   19  S  1 YZ    0.000000   0.000000   0.004696  -0.000000   0.000000
   20  O  2  S    0.073433  -0.000040   0.000000   0.000000   0.006344
   21  O  2  S   -1.230365   0.014567   0.000000   0.000000  -0.096772
   22  O  2  S    2.005328  -0.037674   0.000000   0.000000   0.159565
   23  O  2  X    0.009370   0.024148   0.000000   0.000000   0.027339
   24  O  2  Y    0.062188  -0.013668   0.000000   0.000000  -0.001237
   25  O  2  Z    0.000000   0.000000   0.019710   0.021458   0.000000
   26  O  2  X   -0.424904  -0.031023   0.000000   0.000000  -0.063933
   27  O  2  Y   -0.414579   0.026863   0.000000   0.000000  -0.010484
   28  O  2  Z    0.000000   0.000000  -0.033491  -0.033581   0.000000
   29  O  2 XX    0.001139   0.184941   0.000000   0.000000  -0.373565
   30  O  2 YY   -0.030036  -0.626756   0.000000   0.000000  -0.264436
   31  O  2 ZZ    0.028897   0.441815   0.000000   0.000000   0.638001
   32  O  2 XY   -0.149058   0.294885   0.000000   0.000000   0.296326
   33  O  2 XZ    0.000000   0.000000  -0.412312   0.606098   0.000000
   34  O  2 YZ    0.000000   0.000000   0.574520  -0.364670   0.000000
   35  O  3  S    0.073445   0.000039   0.000000   0.000000   0.006344
   36  O  3  S   -1.230543  -0.014566   0.000000   0.000000  -0.096771
   37  O  3  S    2.005564   0.037672   0.000000   0.000000   0.159565
   38  O  3  X   -0.009397   0.024148   0.000000   0.000000  -0.027339
   39  O  3  Y    0.062195   0.013668   0.000000   0.000000  -0.001236
   40  O  3  Z    0.000000   0.000000   0.019709  -0.021458   0.000000
   41  O  3  X    0.424985  -0.031024   0.000000   0.000000   0.063932
   42  O  3  Y   -0.414631  -0.026863   0.000000   0.000000  -0.010484
   43  O  3  Z    0.000000   0.000000  -0.033490   0.033583   0.000000
   44  O  3 XX    0.001119  -0.184939   0.000000   0.000000  -0.373571
   45  O  3 YY   -0.030039   0.626759   0.000000   0.000000  -0.264429
   46  O  3 ZZ    0.028920  -0.441820   0.000000   0.000000   0.638000
   47  O  3 XY    0.149079   0.294887   0.000000   0.000000  -0.296325
   48  O  3 XZ    0.000000   0.000000   0.412334   0.606084   0.000000
   49  O  3 YZ    0.000000   0.000000   0.574534   0.364649   0.000000

                     41         42         43         44         45
                    2.1354     2.1602     2.1755     2.2205     2.4680
                     A          A          A          A          A   
    1  S  1  S    0.000000  -0.000000   0.000000  -0.002955  -0.024635
    2  S  1  S    0.000000   0.000000   0.000000   0.023186   0.183938
    3  S  1  S    0.000000  -0.000002   0.000000  -0.073130  -0.338154
    4  S  1  S    0.000000   0.000004   0.000000  -0.015705  -0.649461
    5  S  1  X    0.000000  -0.012766   0.000000   0.000000   0.000000
    6  S  1  Y    0.000000   0.000000   0.000000  -0.013570   0.139078
    7  S  1  Z   -0.000000   0.000000  -0.037327   0.000000   0.000000
    8  S  1  X    0.000000   0.007082   0.000000  -0.000000  -0.000001
    9  S  1  Y    0.000000  -0.000000   0.000000   0.013638  -0.635387
   10  S  1  Z    0.000000   0.000000   0.114357   0.000000   0.000000
   11  S  1  X    0.000000   0.062604   0.000000  -0.000000  -0.000002
   12  S  1  Y    0.000000   0.000002   0.000000   0.065217  -0.169687
   13  S  1  Z    0.000000   0.000000   0.086209   0.000000   0.000000
   14  S  1 XX    0.000000  -0.000000   0.000000  -0.298387  -0.149136
   15  S  1 YY    0.000000   0.000001   0.000000   0.277042  -0.200714
   16  S  1 ZZ    0.000000  -0.000000   0.000000   0.021345   0.349850
   17  S  1 XY    0.000000   0.008526   0.000000   0.000000  -0.000002
   18  S  1 XZ   -0.242403   0.000000   0.000001   0.000000   0.000000
   19  S  1 YZ    0.000001   0.000000   0.253069   0.000000   0.000000
   20  O  2  S    0.000000   0.008287   0.000000   0.004752   0.011811
   21  O  2  S    0.000000  -0.116382   0.000000  -0.055088  -0.418633
   22  O  2  S    0.000000   0.123162   0.000000   0.047217   0.787424
   23  O  2  X    0.000000   0.103275   0.000000   0.013940   0.049254
   24  O  2  Y    0.000000  -0.026309   0.000000   0.041329   0.057576
   25  O  2  Z   -0.038900   0.000000   0.041112   0.000000   0.000000
   26  O  2  X    0.000000  -0.189192   0.000000  -0.001531  -0.347082
   27  O  2  Y    0.000000   0.047121   0.000000  -0.095770  -0.338361
   28  O  2  Z    0.068410   0.000000  -0.096784   0.000000   0.000000
   29  O  2 XX    0.000000   0.655336   0.000000  -0.575784   0.218359
   30  O  2 YY    0.000000  -0.267698   0.000000   0.658345   0.103133
   31  O  2 ZZ    0.000000  -0.387638   0.000000  -0.082561  -0.321492
   32  O  2 XY    0.000000  -0.257442   0.000000   0.024096   0.670029
   33  O  2 XZ   -0.368132   0.000000   0.580764   0.000000   0.000000
   34  O  2 YZ   -0.609212   0.000000   0.419685   0.000000   0.000000
   35  O  3  S    0.000000  -0.008287   0.000000   0.004752   0.011811
   36  O  3  S    0.000000   0.116384   0.000000  -0.055088  -0.418632
   37  O  3  S    0.000000  -0.123167   0.000000   0.047217   0.787422
   38  O  3  X    0.000000   0.103275   0.000000  -0.013940  -0.049255
   39  O  3  Y    0.000000   0.026309   0.000000   0.041329   0.057576
   40  O  3  Z    0.038900   0.000000   0.041111   0.000000   0.000000
   41  O  3  X    0.000000  -0.189193   0.000000   0.001531   0.347082
   42  O  3  Y    0.000000  -0.047121   0.000000  -0.095770  -0.338358
   43  O  3  Z   -0.068410   0.000000  -0.096783   0.000000   0.000000
   44  O  3 XX    0.000000  -0.655334   0.000000  -0.575782   0.218360
   45  O  3 YY    0.000000   0.267702   0.000000   0.658343   0.103131
   46  O  3 ZZ    0.000000   0.387632   0.000000  -0.082562  -0.321490
   47  O  3 XY    0.000000  -0.257443   0.000000  -0.024096  -0.670025
   48  O  3 XZ   -0.368135   0.000000  -0.580762   0.000000   0.000000
   49  O  3 YZ    0.609213   0.000000   0.419683   0.000000   0.000000

                     46
                    2.5972
                     A   
    1  S  1  S   -0.000000
    2  S  1  S    0.000000
    3  S  1  S    0.000001
    4  S  1  S   -0.000007
    5  S  1  X   -0.150740
    6  S  1  Y    0.000000
    7  S  1  Z    0.000000
    8  S  1  X    0.700234
    9  S  1  Y   -0.000002
   10  S  1  Z    0.000000
   11  S  1  X    0.146967
   12  S  1  Y   -0.000004
   13  S  1  Z    0.000000
   14  S  1 XX   -0.000001
   15  S  1 YY   -0.000001
   16  S  1 ZZ    0.000002
   17  S  1 XY    0.642384
   18  S  1 XZ    0.000000
   19  S  1 YZ    0.000000
   20  O  2  S   -0.009911
   21  O  2  S    0.469202
   22  O  2  S   -0.827092
   23  O  2  X   -0.063831
   24  O  2  Y   -0.042187
   25  O  2  Z    0.000000
   26  O  2  X    0.415780
   27  O  2  Y    0.391321
   28  O  2  Z    0.000000
   29  O  2 XX   -0.190123
   30  O  2 YY   -0.219599
   31  O  2 ZZ    0.409722
   32  O  2 XY   -0.643849
   33  O  2 XZ    0.000000
   34  O  2 YZ    0.000000
   35  O  3  S    0.009911
   36  O  3  S   -0.469208
   37  O  3  S    0.827104
   38  O  3  X   -0.063832
   39  O  3  Y    0.042188
   40  O  3  Z    0.000000
   41  O  3  X    0.415784
   42  O  3  Y   -0.391324
   43  O  3  Z    0.000000
   44  O  3 XX    0.190124
   45  O  3 YY    0.219599
   46  O  3 ZZ   -0.409723
   47  O  3 XY   -0.643852
   48  O  3 XZ    0.000000
   49  O  3 YZ    0.000000
 ...... END OF RHF CALCULATION ......
 STEP CPU TIME =     2.55 TOTAL CPU TIME =          2.7 (      0.0 MIN)
 TOTAL WALL CLOCK TIME=          2.8 SECONDS, CPU UTILIZATION IS    97.83%

     ---------------------------------------------------------------------
     PROPERTIES FOR THE PBE      DFT FUNCTIONAL (RHF  TYPE) DENSITY MATRIX
     ---------------------------------------------------------------------

          -----------------
          ENERGY COMPONENTS
          -----------------

         WAVEFUNCTION NORMALIZATION =       1.0000000000

                ONE ELECTRON ENERGY =    -942.2463589874
                TWO ELECTRON ENERGY =     300.3062683072
           NUCLEAR REPULSION ENERGY =      93.7748261025
                                      ------------------
                       TOTAL ENERGY =    -548.1652645777

 ELECTRON-ELECTRON POTENTIAL ENERGY =     300.3062683072
  NUCLEUS-ELECTRON POTENTIAL ENERGY =   -1489.1159659557
   NUCLEUS-NUCLEUS POTENTIAL ENERGY =      93.7748261025
                                      ------------------
             TOTAL POTENTIAL ENERGY =   -1095.0348715460
               TOTAL KINETIC ENERGY =     546.8696069683
                 VIRIAL RATIO (V/T) =       2.0023692258

          ---------------------------------------
          MULLIKEN AND LOWDIN POPULATION ANALYSES
          ---------------------------------------

     ATOMIC MULLIKEN POPULATION IN EACH MOLECULAR ORBITAL

                      1          2          3          4          5

                  2.000000   2.000000   2.000000   2.000000   2.000000

    1             1.999984   0.000873   0.000692   2.000366   2.000220
    2             0.000008   0.030101   1.969116  -0.000183  -0.000110
    3             0.000008   1.969026   0.030192  -0.000183  -0.000110

                      6          7          8          9         10

                  2.000000   2.000000   2.000000   2.000000   2.000000

    1             2.000005   2.000239   0.605387   0.191292   1.316164
    2            -0.000003  -0.000120   0.697302   0.904360   0.341917
    3            -0.000003  -0.000120   0.697311   0.904347   0.341919

                     11         12         13         14         15

                  2.000000   2.000000   2.000000   2.000000   2.000000

    1             0.715635   0.948718   1.206520   0.148571   0.034266
    2             0.642178   0.525644   0.396739   0.925711   0.982867
    3             0.642187   0.525638   0.396741   0.925718   0.982867

                     16

                  2.000000

    1             0.119559
    2             0.940227
    3             0.940213

               ----- POPULATIONS IN EACH AO -----
                             MULLIKEN      LOWDIN
              1  S  1  S      1.99984     1.99927
              2  S  1  S      1.99247     1.88786
              3  S  1  S      1.35853     0.69856
              4  S  1  S      0.52565     0.46644
              5  S  1  X      1.99357     1.95844
              6  S  1  Y      1.99439     1.96363
              7  S  1  Z      1.99407     1.96266
              8  S  1  X      0.83011     0.72790
              9  S  1  Y      0.98005     0.88461
             10  S  1  Z      0.93323     0.84488
             11  S  1  X      0.12742     0.24745
             12  S  1  Y      0.09564     0.26396
             13  S  1  Z      0.27029     0.37511
             14  S  1 XX      0.01677     0.28294
             15  S  1 YY      0.05724     0.28630
             16  S  1 ZZ      0.07602     0.27845
             17  S  1 XY      0.03427     0.09366
             18  S  1 XZ      0.00893     0.03975
             19  S  1 YZ      0.00000     0.00869
             20  O  2  S      1.99571     1.97302
             21  O  2  S      0.96690     0.71219
             22  O  2  S      0.98673     0.56072
             23  O  2  X      1.01136     0.97906
             24  O  2  Y      0.87438     0.83927
             25  O  2  Z      0.82868     0.79960
             26  O  2  X      0.58609     0.64978
             27  O  2  Y      0.54659     0.63161
             28  O  2  Z      0.54785     0.58060
             29  O  2 XX      0.00144     0.20598
             30  O  2 YY      0.00237     0.20870
             31  O  2 ZZ      0.00459     0.21166
             32  O  2 XY      0.00143     0.00829
             33  O  2 XZ      0.00164     0.00207
             34  O  2 YZ      0.00000     0.00218
             35  O  3  S      1.99571     1.97302
             36  O  3  S      0.96690     0.71219
             37  O  3  S      0.98673     0.56072
             38  O  3  X      1.01136     0.97905
             39  O  3  Y      0.87438     0.83927
             40  O  3  Z      0.82868     0.79960
             41  O  3  X      0.58609     0.64978
             42  O  3  Y      0.54659     0.63161
             43  O  3  Z      0.54785     0.58060
             44  O  3 XX      0.00144     0.20598
             45  O  3 YY      0.00237     0.20870
             46  O  3 ZZ      0.00459     0.21166
             47  O  3 XY      0.00143     0.00829
             48  O  3 XZ      0.00164     0.00207
             49  O  3 YZ      0.00000     0.00218

          ----- MULLIKEN ATOMIC OVERLAP POPULATIONS -----
          (OFF-DIAGONAL ELEMENTS NEED TO BE MULTIPLIED BY 2)

             1           2           3

    1   14.7038386
    2    0.2923214   8.1514305
    3    0.2923312  -0.0879956   8.1514170

          TOTAL MULLIKEN AND LOWDIN ATOMIC POPULATIONS
       ATOM         MULL.POP.    CHARGE          LOW.POP.     CHARGE
    1 S            15.288491    0.711509        15.270555    0.729445
    2 O             8.355756   -0.355756         8.364723   -0.364723
    3 O             8.355753   -0.355753         8.364722   -0.364722

          MULLIKEN SPHERICAL HARMONIC POPULATIONS
       ATOM           S       P       D      F      G      H      I    TOTAL
    1 S             5.88    9.22    0.19   0.00   0.00   0.00   0.00   15.29
    2 O             3.95    4.39    0.01   0.00   0.00   0.00   0.00    8.36
    3 O             3.95    4.39    0.01   0.00   0.00   0.00   0.00    8.36

          -------------------------------
          BOND ORDER AND VALENCE ANALYSIS     BOND ORDER THRESHOLD=0.050
          -------------------------------

                   BOND                       BOND                       BOND
  ATOM PAIR DIST  ORDER      ATOM PAIR DIST  ORDER      ATOM PAIR DIST  ORDER
    1   2  1.700  1.642        1   3  1.700  1.642        2   3  2.404  0.445

                       TOTAL       BONDED        FREE
      ATOM            VALENCE     VALENCE     VALENCE
    1 S                 3.284       3.284      -0.000
    2 O                 2.087       2.087       0.000
    3 O                 2.087       2.087      -0.000

          ---------------------
          ELECTROSTATIC MOMENTS
          ---------------------

 POINT   1           X           Y           Z (BOHR)    CHARGE
                 0.000000   -0.000000    0.000000       -0.00 (A.U.)
         DX          DY          DZ         /D/  (DEBYE)
    -0.000005   -3.180828    0.000000    3.180828
 ...... END OF PROPERTY EVALUATION ......
 STEP CPU TIME =     0.00 TOTAL CPU TIME =          2.7 (      0.0 MIN)
 TOTAL WALL CLOCK TIME=          2.8 SECONDS, CPU UTILIZATION IS    97.47%
                580000  WORDS OF DYNAMIC MEMORY USED
 EXECUTION OF GAMESS TERMINATED NORMALLY Sun Sep 29 10:53:37 2019
 DDI: 263640 bytes (0.3 MB / 0 MWords) used by master data server.

 ----------------------------------------
 CPU timing information for all processes
 ========================================
 0: 2.648 + 0.67 = 2.716
 ----------------------------------------
 ddikick.x: exited gracefully.
----- accounting info -----
Files used on the master node crcfe02.crc.nd.edu were:
-rw-r--r-- 1 cdrisko campus     207 Sep 29 10:53 /afs/crc.nd.edu/user/c/cdrisko/SO2.F05
-rw-r--r-- 1 cdrisko campus   37566 Sep 29 10:53 /afs/crc.nd.edu/user/c/cdrisko/SO2.F07
-rw-r--r-- 1 cdrisko campus 4140368 Sep 29 10:53 /afs/crc.nd.edu/user/c/cdrisko/SO2.F08
-rw-r--r-- 1 cdrisko campus 1766880 Sep 29 10:53 /afs/crc.nd.edu/user/c/cdrisko/SO2.F10
Sun Sep 29 10:53:40 EDT 2019
0.433u 0.248s 0:06.42 10.4%	0+0k 0+24io 0pf+0w
