----- GAMESS execution script 'rungms' -----
This job is running on host crcfe02.crc.nd.edu
under operating system Linux at Sun Sep 29 10:45:40 EDT 2019
Available scratch disk space (Kbyte units) at beginning of the job is
Filesystem      1K-blocks  Used  Available Use% Mounted on
AFS            2147483647     0 2147483647   0% /afs
GAMESS temporary binary files will be written to /afs/crc.nd.edu/user/c/cdrisko
GAMESS supplementary output files will be written to /afs/crc.nd.edu/user/c/cdrisko/scr
Copying input file SO2.inp to your run's scratch directory...

 Distributed Data Interface kickoff program.
 Initiating 1 compute processes on 1 nodes to run the following command:
 /afs/crc.nd.edu/x86_64_linux/g/gamess/nov-2017/gamess/gamess.00.x SO2 

          ******************************************************
          *         GAMESS VERSION = 11 NOV 2017 (R3)         *
          *             FROM IOWA STATE UNIVERSITY             *
          * M.W.SCHMIDT, K.K.BALDRIDGE, J.A.BOATZ, S.T.ELBERT, *
          *   M.S.GORDON, J.H.JENSEN, S.KOSEKI, N.MATSUNAGA,   *
          *          K.A.NGUYEN, S.J.SU, T.L.WINDUS,           *
          *       TOGETHER WITH M.DUPUIS, J.A.MONTGOMERY       *
          *         J.COMPUT.CHEM.  14, 1347-1363(1993)        *
          **************** 64 BIT INTEL VERSION ****************

  SINCE 1993, STUDENTS AND POSTDOCS WORKING AT IOWA STATE UNIVERSITY
  AND ALSO IN THEIR VARIOUS JOBS AFTER LEAVING ISU HAVE MADE IMPORTANT
  CONTRIBUTIONS TO THE CODE:
     IVANA ADAMOVIC, CHRISTINE AIKENS, YURI ALEXEEV, POOJA ARORA,
     ANDREY ASADCHEV, ROB BELL, PRADIPTA BANDYOPADHYAY, JONATHAN BENTZ,
     BRETT BODE, KURT BRORSEN, CALEB CARLIN, GALINA CHABAN, WEI CHEN,
     CHEOL HO CHOI, PAUL DAY, ALBERT DEFUSCO, NUWAN DESILVA, TIM DUDLEY,
     DMITRI FEDOROV, ALEX FINDLATER, GRAHAM FLETCHER, MARK FREITAG,
     KURT GLAESEMANN, ANASTASIA GUININA,
     DAN KEMP, GRANT MERRILL, NORIYUKI MINEZAWA, JONATHAN MULLIN,
     TAKESHI NAGATA, SEAN NEDD, HEATHER NETZLOFF, BOSILJKA NJEGIC, RYAN OLSON,
     MIKE PAK, BUU PHAM,
     SPENCER PRUITT, LUKE ROSKOP, JIM SHOEMAKER, LYUDMILA SLIPCHENKO,
     TONY SMITH, SAROM SOK LEANG, JIE SONG, TETSUYA TAKETSUGU, SIMON WEBB,
     PENG XU, SOOHAENG YOO, FEDERICO ZAHARIEV

  ADDITIONAL CODE HAS BEEN PROVIDED BY COLLABORATORS IN OTHER GROUPS:
     IOWA STATE UNIVERSITY:
          JOE IVANIC, AARON WEST, LAIMUTIS BYTAUTAS, KLAUS RUEDENBERG
     UNIVERSITY OF TOKYO: KIMIHIKO HIRAO, TAKAHITO NAKAJIMA,
          TAKAO TSUNEDA, MUNEAKI KAMIYA, SUSUMU YANAGISAWA,
          KIYOSHI YAGI, MAHITO CHIBA, SEIKEN TOKURA, NAOAKI KAWAKAMI
     UNIVERSITY OF AARHUS: FRANK JENSEN
     UNIVERSITY OF IOWA: VISVALDAS KAIRYS, HUI LI
     NATIONAL INST. OF STANDARDS AND TECHNOLOGY: WALT STEVENS, DAVID GARMER
     UNIVERSITY OF PISA: BENEDETTA MENNUCCI, JACOPO TOMASI
     UNIVERSITY OF MEMPHIS: HENRY KURTZ, PRAKASHAN KORAMBATH
     UNIVERSITY OF ALBERTA: TOBY ZENG, MARIUSZ KLOBUKOWSKI
     UNIVERSITY OF NEW ENGLAND: MARK SPACKMAN
     MIE UNIVERSITY: HIROAKI UMEDA
     NAT. INST. OF ADVANCED INDUSTRIAL SCIENCE AND TECHNOLOGY: KAZUO KITAURA
     MICHIGAN STATE UNIVERSITY:
          KAROL KOWALSKI, MARTA WLOCH, JEFFREY GOUR, JESSE LUTZ,
          WEI LI, PIOTR PIECUCH
     UNIVERSITY OF SILESIA: MONIKA MUSIAL, STANISLAW KUCHARSKI
     FACULTES UNIVERSITAIRES NOTRE-DAME DE LA PAIX:
          OLIVIER QUINET, BENOIT CHAMPAGNE
     UNIVERSITY OF CALIFORNIA - SANTA BARBARA: BERNARD KIRTMAN
     INSTITUTE FOR MOLECULAR SCIENCE:
          KAZUYA ISHIMURA, MICHIO KATOUDA, AND SHIGERU NAGASE
     UNIVERSITY OF NOTRE DAME: ANNA POMOGAEVA, DAN CHIPMAN
     KYUSHU UNIVERSITY:
          HARUYUKI NAKANO,
          FENG LONG GU, JACEK KORCHOWIEC, MARCIN MAKOWSKI, AND YURIKO AOKI,
          HIROTOSHI MORI AND EISAKU MIYOSHI
     PENNSYLVANIA STATE UNIVERSITY:
          TZVETELIN IORDANOV, CHET SWALINA, JONATHAN SKONE,
          SHARON HAMMES-SCHIFFER
     WASEDA UNIVERSITY:
          MASATO KOBAYASHI, TOMOKO AKAMA, TSUGUKI TOUMA,
          TAKESHI YOSHIKAWA, YASUHIRO IKABATA, JUNJI SEINO,
          YUYA NAKAJIMA, HIROMI NAKAI
     NANJING UNIVERSITY: SHUHUA LI
     UNIVERSITY OF NEBRASKA:
          PEIFENG SU, DEJUN SI, NANDUN THELLAMUREGE, YALI WANG, HUI LI
     UNIVERSITY OF ZURICH: ROBERTO PEVERATI, KIM BALDRIDGE
     N. COPERNICUS UNIVERSITY AND JACKSON STATE UNIVERSITY:
          MARIA BARYSZ
     UNIVERSITY OF COPENHAGEN: Jimmy Kromann, CASPER STEINMANN
     TOKYO INSTITUTE OF TECHNOLOGY: HIROYA NAKATA
     NAGOYA UNIVERSITY: YOSHIO NISHIMOTO, STEPHAN IRLE
     MOSCOW STATE UNIVERSITY: VLADIMIR MIRONOV

 EXECUTION OF GAMESS BEGUN Sun Sep 29 10:45:40 2019

            ECHO OF THE FIRST FEW INPUT CARDS -
 INPUT CARD> $BASIS GBASIS=PCSEG-1 $END                                                     
 INPUT CARD> $CONTRL COORD=ZMT ISPHER=1 RUNTYP=ENERGY DFTTYP=PBE MULT=1 $END                
 INPUT CARD>                                                                                
 INPUT CARD> $DATA                                                                          
 INPUT CARD>Title SO2 single-point calculation template with Z-Matrix                       
 INPUT CARD>C1                                                                              
 INPUT CARD>S                                                                               
 INPUT CARD>O 1 1.40                                                                        
 INPUT CARD>O 1 1.40 2 110                                                                  
 INPUT CARD> $END                                                                           
    1000000 WORDS OF MEMORY AVAILABLE

     BASIS OPTIONS
     -------------
     GBASIS=PCSEG-1      IGAUSS=       0      POLAR=NONE    
     NDFUNC=       0     NFFUNC=       0     DIFFSP=       F
     NPFUNC=       0      DIFFS=       F     BASNAM=        


     RUN TITLE
     ---------
 Title SO2 single-point calculation template with Z-Matrix                       

 THE POINT GROUP OF THE MOLECULE IS C1      
 THE ORDER OF THE PRINCIPAL AXIS IS     0

 YOUR FULLY SUBSTITUTED Z-MATRIX IS
 S   
 O      1   1.4000000
 O      1   1.4000000  2  110.0000

 THE MOMENTS OF INERTIA ARE (AMU-ANGSTROM**2)
 IXX=    10.311   IYY=    42.072   IZZ=    52.383

 ATOM      ATOMIC                      COORDINATES (BOHR)
           CHARGE         X                   Y                   Z
 S          16.0     0.0000000000       -0.7589421633        0.0000000000
 O           8.0     2.1671620684        0.7585210536        0.0000000000
 O           8.0    -2.1671620684        0.7585210536        0.0000000000

          INTERNUCLEAR DISTANCES (ANGS.)
          ------------------------------

                1 S          2 O          3 O     

   1 S       0.0000000    1.4000000 *  1.4000000 *
   2 O       1.4000000 *  0.0000000    2.2936257 *
   3 O       1.4000000 *  2.2936257 *  0.0000000  

  * ... LESS THAN  3.000


     ATOMIC BASIS SET
     ----------------
 THE CONTRACTED PRIMITIVE FUNCTIONS HAVE BEEN UNNORMALIZED
 THE CONTRACTED BASIS FUNCTIONS ARE NOW NORMALIZED TO UNITY

  SHELL TYPE  PRIMITIVE        EXPONENT          CONTRACTION COEFFICIENT(S)

 S         

      1   S       1         49299.4000000    0.000677492991
      1   S       2          7395.8400000    0.005232317766
      1   S       3          1683.3000000    0.026769459077
      1   S       4           476.1440000    0.102869580705
      1   S       5           154.3290000    0.286438127414
      1   S       6            55.0288000    0.454278639081
      1   S       7            20.5029000    0.271743121997

      2   S       8            45.9596000   -0.088421914560
      2   S       9             4.9274000    0.564350486135
      2   S      10             1.9179900    0.505415953466

      3   S      11             0.3684980    1.000000000000

      4   S      12             0.1291650    1.000000000000

      5   P      13           451.6620000    0.003707705453
      5   P      14           106.0980000    0.029219352245
      5   P      15            33.6996000    0.124444551509
      5   P      16            12.3054000    0.321808587656
      5   P      17             4.7141200    0.462822172957
      5   P      18             1.7810500    0.266513371364

      6   P      19             0.8722350    0.349265132972
      6   P      20             0.3102780    0.717115018770

      7   P      21             0.1001940    1.000000000000

      8   D      22             0.5500000    1.000000000000

 O         

      9   S      23          2288.6400000    0.005451138222
      9   S      24           344.4160000    0.040718922842
      9   S      25            78.2538000    0.181369420873
      9   S      26            21.7195000    0.465536820246
      9   S      27             6.5590700    0.451211321214

     10   S      28            10.4656000   -0.150211201174
     10   S      29             0.9643510    1.052867983385

     11   S      30             0.2851270    1.000000000000

     12   P      31            17.0590000    0.068749256972
     12   P      32             3.6899900    0.351671941499
     12   P      33             0.9929960    0.724532099722

     13   P      34             0.2449240    1.000000000000

     14   D      35             1.0000000    1.000000000000

 O         

     15   S      36          2288.6400000    0.005451138222
     15   S      37           344.4160000    0.040718922842
     15   S      38            78.2538000    0.181369420873
     15   S      39            21.7195000    0.465536820246
     15   S      40             6.5590700    0.451211321214

     16   S      41            10.4656000   -0.150211201174
     16   S      42             0.9643510    1.052867983385

     17   S      43             0.2851270    1.000000000000

     18   P      44            17.0590000    0.068749256972
     18   P      45             3.6899900    0.351671941499
     18   P      46             0.9929960    0.724532099722

     19   P      47             0.2449240    1.000000000000

     20   D      48             1.0000000    1.000000000000

 TOTAL NUMBER OF BASIS SET SHELLS             =   20
 NUMBER OF CARTESIAN GAUSSIAN BASIS FUNCTIONS =   49
 NOTE: THIS RUN WILL RESTRICT THE MO VARIATION SPACE TO SPHERICAL HARMONICS.
 THE NUMBER OF ORBITALS KEPT IN THE VARIATIONAL SPACE WILL BE PRINTED LATER.
 NUMBER OF ELECTRONS                          =   32
 CHARGE OF MOLECULE                           =    0
 SPIN MULTIPLICITY                            =    1
 NUMBER OF OCCUPIED ORBITALS (ALPHA)          =   16
 NUMBER OF OCCUPIED ORBITALS (BETA )          =   16
 TOTAL NUMBER OF ATOMS                        =    3
 THE NUCLEAR REPULSION ENERGY IS      111.5296944627

     LEBEDEV GRID-BASED DFT OPTIONS
     ------------------------------
     DFTTYP=PBE     
     NRAD  =      96     NLEB  =     302
     NRAD0 =      24     NLEB0 =     110
     SWOFF =    5.00E-03 (PURE SCF -> DFT)
     SWITCH=    3.00E-04 (COARSE -> TIGHT GRID)
     THRESH=    0.00E+00 GTHRE=    1.00E+00

 GRIMME'S EMPIRICAL DISPERSION CORRECTION= F

     $CONTRL OPTIONS
     ---------------
 SCFTYP=RHF          RUNTYP=ENERGY       EXETYP=RUN     
 MPLEVL=       0     CITYP =NONE         CCTYP =NONE         VBTYP =NONE    
 DFTTYP=PBE          TDDFT =NONE    
 MULT  =       1     ICHARG=       0     NZVAR =       0     COORD =ZMT     
 PP    =NONE         RELWFN=NONE         LOCAL =NONE         NUMGRD=       F
 ISPHER=       1     NOSYM =       0     MAXIT =      30     UNITS =ANGS    
 PLTORB=       F     MOLPLT=       F     AIMPAC=       F     FRIEND=        
 NPRINT=       7     IREST =       0     GEOM  =INPUT   
 NORMF =       0     NORMP =       0     ITOL  =      20     ICUT  =       9
 INTTYP=BEST         GRDTYP=BEST         QMTTOL= 1.0E-06

     $SYSTEM OPTIONS
     ---------------
  REPLICATED MEMORY=     1000000 WORDS (ON EVERY NODE).
 DISTRIBUTED MEMDDI=           0 MILLION WORDS IN AGGREGATE,
 MEMDDI DISTRIBUTED OVER   1 PROCESSORS IS           0 WORDS/PROCESSOR.
 TOTAL MEMORY REQUESTED ON EACH PROCESSOR=     1000000 WORDS.
 TIMLIM=      525600.00 MINUTES, OR     365.0 DAYS.
 PARALL= F  BALTYP=  DLB     KDIAG=    0  COREFL= F
 MXSEQ2=     300 MXSEQ3=     150  mem10=         0

          ----------------
          PROPERTIES INPUT
          ----------------

     MOMENTS            FIELD           POTENTIAL          DENSITY
 IEMOM =       1   IEFLD =       0   IEPOT =       0   IEDEN =       0
 WHERE =COMASS     WHERE =NUCLEI     WHERE =NUCLEI     WHERE =NUCLEI  
 OUTPUT=BOTH       OUTPUT=BOTH       OUTPUT=BOTH       OUTPUT=BOTH    
 IEMINT=       0   IEFINT=       0                     IEDINT=       0
                                                       MORB  =       0
          EXTRAPOLATION IN EFFECT
          DIIS IN EFFECT
 ORBITAL PRINTING OPTION: NPREO=     1    49     2     1

     -------------------------------
     INTEGRAL TRANSFORMATION OPTIONS
     -------------------------------
     NWORD  =            0
     CUTOFF = 1.0E-09     MPTRAN =       0
     DIRTRF =       F     AOINTS =DUP     

          ----------------------
          INTEGRAL INPUT OPTIONS
          ----------------------
 NOPK  =       1 NORDER=       0 SCHWRZ=       F

   --- ENCODED Z MATRIX ---
 COORD  TYPE   I   J   K   L   M   N
    1      1    2   1
    2      1    3   1
    3      2    3   1   2

 THE DETERMINANT OF THE G MATRIX IS 10**(    -4)

 THE DETERMINANT OF THE G MATRIX IS 10**(    -4)
 * * * WARNING * * *
 YOUR B MATRIX HAS A SMALL DETERMINANT.
 THIS SUGGESTS YOU MAY HAVE BADLY CHOSEN COORDINATES.

     ------------------------------------------
     THE POINT GROUP IS C1 , NAXIS= 0, ORDER= 1
     ------------------------------------------

 -- VARIATIONAL SPACE WILL BE RESTRICTED TO PURE SPHERICAL HARMONICS ONLY --
 AFTER EXCLUDING CONTAMINANT COMBINATIONS FROM THE CARTESIAN GAUSSIAN BASIS
 SET, THE NUMBER OF SPHERICAL HARMONICS KEPT IN THE VARIATION SPACE IS   46

     DIMENSIONS OF THE SYMMETRY SUBSPACES ARE
 A   =   46

 ..... DONE SETTING UP THE RUN .....
 STEP CPU TIME =     0.04 TOTAL CPU TIME =          0.0 (      0.0 MIN)
 TOTAL WALL CLOCK TIME=          0.0 SECONDS, CPU UTILIZATION IS   100.00%

          ********************
          1 ELECTRON INTEGRALS
          ********************
 ...... END OF ONE-ELECTRON INTEGRALS ......
 STEP CPU TIME =     0.00 TOTAL CPU TIME =          0.0 (      0.0 MIN)
 TOTAL WALL CLOCK TIME=          0.0 SECONDS, CPU UTILIZATION IS   100.00%

          -------------
          GUESS OPTIONS
          -------------
          GUESS =HUCKEL            NORB  =       0          NORDER=       0
          MIX   =       F          PRTMO =       F          PUNMO =       F
          TOLZ  = 1.0E-08          TOLE  = 1.0E-05
          SYMDEN=       F          PURIFY=       F

 INITIAL GUESS ORBITALS GENERATED BY HUCKEL   ROUTINE.
 HUCKEL GUESS REQUIRES     21634 WORDS.

 STATISTICS FOR GENERATION OF SYMMETRY ORBITAL -Q- MATRIX
 NUMBER OF CARTESIAN ATOMIC ORBITALS=         49
 NUMBER OF SPHERICAL CONTAMINANTS DROPPED=     3
 NUMBER OF LINEARLY DEPENDENT MOS DROPPED=     0
 TOTAL NUMBER OF MOS IN VARIATION SPACE=      46

 SYMMETRIES FOR INITIAL GUESS ORBITALS FOLLOW.   BOTH SET(S).
    16 ORBITALS ARE OCCUPIED (    7 CORE ORBITALS).
     8=A        9=A       10=A       11=A       12=A       13=A       14=A   
    15=A       16=A       17=A       18=A       19=A       20=A       21=A   
    22=A       23=A       24=A       25=A       26=A   
 ...... END OF INITIAL ORBITAL SELECTION ......
 STEP CPU TIME =     0.00 TOTAL CPU TIME =          0.0 (      0.0 MIN)
 TOTAL WALL CLOCK TIME=          0.0 SECONDS, CPU UTILIZATION IS    80.00%

                    ----------------------
                    AO INTEGRAL TECHNOLOGY
                    ----------------------
     S,P,L SHELL ROTATED AXIS INTEGRALS, REPROGRAMMED BY
        KAZUYA ISHIMURA (IMS) AND JOSE SIERRA (SYNSTAR).
     S,P,D,L SHELL ROTATED AXIS INTEGRALS PROGRAMMED BY
        KAZUYA ISHIMURA (INSTITUTE FOR MOLECULAR SCIENCE).
     S,P,D,F,G SHELL TO TOTAL QUARTET ANGULAR MOMENTUM SUM 5,
        ERIC PROGRAM BY GRAHAM FLETCHER (ELORET AND NASA ADVANCED
        SUPERCOMPUTING DIVISION, AMES RESEARCH CENTER).
     S,P,D,F,G,L SHELL GENERAL RYS QUADRATURE PROGRAMMED BY
        MICHEL DUPUIS (PACIFIC NORTHWEST NATIONAL LABORATORY).

          --------------------
          2 ELECTRON INTEGRALS
          --------------------

 THE -PK- OPTION IS OFF, THE INTEGRALS ARE NOT IN SUPERMATRIX FORM.
 STORING   15000 INTEGRALS/RECORD ON DISK, USING 12 BYTES/INTEGRAL.
 TWO ELECTRON INTEGRAL EVALUATION REQUIRES   90606 WORDS OF MEMORY.
 II,JST,KST,LST =  1  1  1  1 NREC =         1 INTLOC =    1
 II,JST,KST,LST =  2  1  1  1 NREC =         1 INTLOC =    2
 II,JST,KST,LST =  3  1  1  1 NREC =         1 INTLOC =    7
 II,JST,KST,LST =  4  1  1  1 NREC =         1 INTLOC =   22
 II,JST,KST,LST =  5  1  1  1 NREC =         1 INTLOC =   56
 II,JST,KST,LST =  6  1  1  1 NREC =         1 INTLOC =  125
 II,JST,KST,LST =  7  1  1  1 NREC =         1 INTLOC =  329
 II,JST,KST,LST =  8  1  1  1 NREC =         1 INTLOC =  776
 II,JST,KST,LST =  9  1  1  1 NREC =         1 INTLOC = 2864
 II,JST,KST,LST = 10  1  1  1 NREC =         1 INTLOC = 4995
 II,JST,KST,LST = 11  1  1  1 NREC =         1 INTLOC = 7663
 II,JST,KST,LST = 12  1  1  1 NREC =         1 INTLOC =10781
 II,JST,KST,LST = 13  1  1  1 NREC =         2 INTLOC = 6714
 II,JST,KST,LST = 14  1  1  1 NREC =         3 INTLOC = 6989
 II,JST,KST,LST = 15  1  1  1 NREC =         6 INTLOC = 9041
 II,JST,KST,LST = 16  1  1  1 NREC =         7 INTLOC = 2502
 II,JST,KST,LST = 17  1  1  1 NREC =         7 INTLOC =14700
 II,JST,KST,LST = 18  1  1  1 NREC =         8 INTLOC =13246
 II,JST,KST,LST = 19  1  1  1 NREC =        11 INTLOC =10142
 II,JST,KST,LST = 20  1  1  1 NREC =        15 INTLOC = 2802
 TOTAL NUMBER OF NONZERO TWO-ELECTRON INTEGRALS =              349116
         24 INTEGRAL RECORDS WERE STORED ON DISK FILE  8.
  ...... END OF TWO-ELECTRON INTEGRALS .....
 STEP CPU TIME =     0.11 TOTAL CPU TIME =          0.2 (      0.0 MIN)
 TOTAL WALL CLOCK TIME=          0.1 SECONDS, CPU UTILIZATION IS   100.00%

          --------------------------
               R-PBE SCF CALCULATION
          --------------------------

     NUCLEAR ENERGY =       111.5296944627
     MAXIT =   30     NPUNCH=    2
     EXTRAP=T  DAMP=F  SHIFT=F  RSTRCT=F  DIIS=T  DEM=F  SOSCF=F
         DENSITY MATRIX CONVERGENCE THRESHOLD=  1.00E-05
     COARSE -> FINE DFT GRID SWITCH THRESHOLD=  3.00E-04 (SWITCH IN $DFT)
                   HF -> DFT SWITCH THRESHOLD=  5.00E-03 (SWOFF IN $DFT)
     MEMORY REQUIRED FOR RHF ITERS=    183108 WORDS.

 DFT CODE IS SWITCHING FROM THE FINE GRID NRAD= 96,  NLEB=  302
                      TO THE COARSE GRID NRAD0= 24, NLEB0=  110

     EXCHANGE FUNCTIONAL   =PBE       
     CORRELATION FUNCTIONAL=PBE       
     DFT THRESHOLD         =.460E-07
     GRID CHANGE THRESHOLD =.300E-03
 FOR AN EULER-MACLAURIN QUADRATURE USING  96 RADIAL POINTS:
 SMALLEST GAUSSIAN PRIMITIVE EXPONENT=        0.1001940000 OF TYPE -P-
 ON ATOM NUMBER   1 HAS RADIAL NORMALIZATION=  1.000000
  LARGEST GAUSSIAN PRIMITIVE EXPONENT=    49299.4000000000 OF TYPE -S-
 ON ATOM NUMBER   1 HAS RADIAL NORMALIZATION=  1.000000
 DFT IS SWITCHED OFF, PERFORMING PURE SCF UNTIL SWOFF THRESHOLD IS REACHED.

 ITER EX DEM     TOTAL ENERGY        E CHANGE  DENSITY CHANGE    DIIS ERROR
   1  0  0     -546.0692101417  -546.0692101417   0.587997876   0.946239666
          * * *   INITIATING DIIS PROCEDURE   * * *
   2  1  0     -546.9330506031    -0.8638404614   0.379368620   0.224894796
   3  2  0     -547.0221355196    -0.0890849165   0.140023598   0.141852034
   4  3  0     -547.0998936792    -0.0777581596   0.018238417   0.012557820
   5  4  0     -547.1005793125    -0.0006856332   0.009279163   0.003461609
   6  5  0     -547.1006542977    -0.0000749852   0.001902604   0.000898715
 CONVERGED TO SWOFF, SO DFT CALCULATION IS NOW SWITCHED ON.
          * * *   INITIATING DIIS PROCEDURE   * * *
   7  6  0     -548.2096998096    -1.1090455119   0.285274176   0.093471256
   8  7  0     -548.2233906391    -0.0136908295   0.233978942   0.071812300
   9  8  0     -548.2199123203     0.0034783188   0.092855027   0.067853019
  10  9  0     -548.2404142137    -0.0205018935   0.018967526   0.008636608
  11 10  0     -548.2407354885    -0.0003212748   0.000754672   0.000763113
  12 11  0     -548.2407367694    -0.0000012809   0.000287677   0.000189820
 DFT CODE IS SWITCHING BACK TO THE FINE GRID
          * * *   INITIATING DIIS PROCEDURE   * * *
  13 12  0     -548.2237739851     0.0169627843   0.006841831   0.006585116
  14 13  0     -548.2238951066    -0.0001211215   0.003855643   0.002068939
  15 14  0     -548.2238840629     0.0000110437   0.003542666   0.002530206
  16 15  0     -548.2239046426    -0.0000205798   0.000820868   0.000562529
  17 16  0     -548.2239053836    -0.0000007409   0.000216500   0.000123579
  18 17  0     -548.2239053671     0.0000000165   0.000121201   0.000160459
  19 18  0     -548.2239054357    -0.0000000686   0.000005414   0.000002381
  20 19  0     -548.2239054357    -0.0000000000   0.000000563   0.000000278
  21 20  0     -548.2239054357    -0.0000000000   0.000000075   0.000000041

          -----------------
          DENSITY CONVERGED
          -----------------
     TIME TO FORM FOCK OPERATORS=       2.5 SECONDS (       0.1 SEC/ITER)
     TIME TO SOLVE SCF EQUATIONS=       0.0 SECONDS (       0.0 SEC/ITER)

 FINAL R-PBE ENERGY IS     -548.2239054357 AFTER  21 ITERATIONS
 DFT EXCHANGE + CORRELATION ENERGY =       -42.6251682956
 TOTAL ELECTRON NUMBER             =        31.9999716092

          ------------
          EIGENVECTORS
          ------------

                      1          2          3          4          5
                  -88.2150   -18.7857   -18.7857    -7.8367    -5.8624
                     A          A          A          A          A   
    1  S  1  S    0.997745  -0.000000  -0.000045  -0.308335  -0.000000
    2  S  1  S    0.008367   0.000002   0.000278   1.031410   0.000000
    3  S  1  S   -0.003530   0.000002   0.000333   0.028603  -0.000000
    4  S  1  S    0.000488   0.000055   0.008761  -0.005619  -0.000000
    5  S  1  X   -0.000000  -0.000171   0.000001  -0.000000   0.994210
    6  S  1  Y    0.000193  -0.000000  -0.000076   0.011302  -0.000001
    7  S  1  Z    0.000000   0.000000   0.000000   0.000000   0.000000
    8  S  1  X    0.000000  -0.000788   0.000005   0.000000   0.018292
    9  S  1  Y   -0.000747   0.000010   0.001618   0.001556  -0.000000
   10  S  1  Z    0.000000   0.000000   0.000000   0.000000   0.000000
   11  S  1  X    0.000000  -0.003308   0.000021   0.000000  -0.002553
   12  S  1  Y   -0.000043   0.000023   0.003614  -0.000236  -0.000000
   13  S  1  Z    0.000000   0.000000   0.000000   0.000000   0.000000
   14  S  1 XX   -0.000324  -0.000001  -0.000112   0.000683  -0.000000
   15  S  1 YY    0.000015   0.000002   0.000278  -0.000220  -0.000000
   16  S  1 ZZ    0.000309  -0.000001  -0.000166  -0.000463   0.000000
   17  S  1 XY    0.000000   0.000974  -0.000006   0.000000   0.001753
   18  S  1 XZ    0.000000   0.000000   0.000000   0.000000   0.000000
   19  S  1 YZ    0.000000   0.000000   0.000000   0.000000   0.000000
   20  O  2  S   -0.000026  -0.697789   0.706721  -0.000256  -0.000681
   21  O  2  S   -0.000161  -0.023836   0.024374  -0.000151   0.000460
   22  O  2  S    0.000811   0.010564  -0.013148  -0.000469  -0.001346
   23  O  2  X   -0.000131   0.001139  -0.000876  -0.000097  -0.000948
   24  O  2  Y   -0.000082   0.000820  -0.000580  -0.000077  -0.000730
   25  O  2  Z    0.000000   0.000000   0.000000   0.000000   0.000000
   26  O  2  X   -0.000555  -0.001536   0.002666   0.000849   0.000995
   27  O  2  Y   -0.000411  -0.001495   0.001176   0.000687   0.000902
   28  O  2  Z    0.000000   0.000000   0.000000   0.000000   0.000000
   29  O  2 XX    0.000161   0.000029  -0.000126   0.000329   0.000542
   30  O  2 YY    0.000008   0.000081   0.000090  -0.000033   0.000126
   31  O  2 ZZ   -0.000168  -0.000110   0.000036  -0.000297  -0.000668
   32  O  2 XY    0.000271  -0.000041  -0.000199   0.000489   0.001099
   33  O  2 XZ    0.000000   0.000000   0.000000   0.000000   0.000000
   34  O  2 YZ    0.000000   0.000000   0.000000   0.000000   0.000000
   35  O  3  S   -0.000026   0.706683   0.697828  -0.000256   0.000681
   36  O  3  S   -0.000161   0.024142   0.024070  -0.000151  -0.000460
   37  O  3  S    0.000811  -0.010729  -0.013014  -0.000469   0.001346
   38  O  3  X    0.000131   0.001150   0.000861   0.000097  -0.000948
   39  O  3  Y   -0.000082  -0.000828  -0.000569  -0.000077   0.000730
   40  O  3  Z    0.000000   0.000000   0.000000   0.000000   0.000000
   41  O  3  X    0.000555  -0.001570  -0.002647  -0.000849   0.000995
   42  O  3  Y   -0.000411   0.001510   0.001157   0.000687  -0.000902
   43  O  3  Z    0.000000   0.000000   0.000000   0.000000   0.000000
   44  O  3 XX    0.000161  -0.000031  -0.000126   0.000329  -0.000542
   45  O  3 YY    0.000008  -0.000079   0.000092  -0.000033  -0.000126
   46  O  3 ZZ   -0.000168   0.000110   0.000034  -0.000297   0.000668
   47  O  3 XY   -0.000271  -0.000039   0.000199  -0.000489   0.001099
   48  O  3 XZ    0.000000   0.000000   0.000000   0.000000   0.000000
   49  O  3 YZ    0.000000   0.000000   0.000000   0.000000   0.000000

                      6          7          8          9         10
                   -5.8615    -5.8556    -1.0895    -0.9774    -0.5701
                     A          A          A          A          A   
    1  S  1  S    0.000000   0.003629   0.053449   0.000000   0.063859
    2  S  1  S    0.000000  -0.012555  -0.325527  -0.000000  -0.409467
    3  S  1  S    0.000000   0.000243   0.448602   0.000000   0.637576
    4  S  1  S    0.000000   0.001867   0.056225  -0.000006   0.227612
    5  S  1  X    0.000000   0.000001  -0.000000  -0.148021   0.000000
    6  S  1  Y    0.000000   0.994573  -0.079806   0.000000   0.075666
    7  S  1  Z    0.994825   0.000000   0.000000   0.000000   0.000000
    8  S  1  X    0.000000   0.000000   0.000001   0.330000  -0.000001
    9  S  1  Y    0.000000   0.016874   0.166911  -0.000002  -0.184754
   10  S  1  Z    0.016373   0.000000   0.000000   0.000000   0.000000
   11  S  1  X    0.000000   0.000000   0.000002  -0.013774  -0.000001
   12  S  1  Y    0.000000  -0.002384  -0.019888  -0.000002  -0.062466
   13  S  1  Z   -0.003077   0.000000   0.000000   0.000000   0.000000
   14  S  1 XX    0.000000  -0.000346   0.040757  -0.000001  -0.003173
   15  S  1 YY    0.000000   0.001126   0.001141  -0.000000  -0.020405
   16  S  1 ZZ    0.000000  -0.000780  -0.041898   0.000001   0.023579
   17  S  1 XY    0.000000   0.000000   0.000001   0.101074  -0.000000
   18  S  1 XZ   -0.000000   0.000000   0.000000   0.000000   0.000000
   19  S  1 YZ    0.000842   0.000000   0.000000   0.000000   0.000000
   20  O  2  S    0.000000  -0.000480  -0.133302  -0.160278   0.106779
   21  O  2  S    0.000000   0.000549   0.269741   0.329145  -0.227182
   22  O  2  S    0.000000  -0.001175   0.208922   0.259243  -0.300214
   23  O  2  X    0.000000  -0.000829  -0.112168  -0.091758  -0.104549
   24  O  2  Y    0.000000  -0.000553  -0.069369  -0.079255  -0.137563
   25  O  2  Z    0.000042   0.000000   0.000000   0.000000   0.000000
   26  O  2  X    0.000000   0.000927  -0.022509  -0.007448  -0.050069
   27  O  2  Y    0.000000   0.000083  -0.014395  -0.008349  -0.062524
   28  O  2  Z   -0.000333   0.000000   0.000000   0.000000   0.000000
   29  O  2 XX    0.000000   0.000505   0.008194   0.002457   0.001094
   30  O  2 YY    0.000000  -0.000001  -0.001920   0.000977   0.004222
   31  O  2 ZZ    0.000000  -0.000504  -0.006274  -0.003434  -0.005317
   32  O  2 XY    0.000000   0.000872   0.013068   0.009233   0.009120
   33  O  2 XZ   -0.000056   0.000000   0.000000   0.000000   0.000000
   34  O  2 YZ   -0.000074   0.000000   0.000000   0.000000   0.000000
   35  O  3  S    0.000000  -0.000480  -0.133303   0.160278   0.106780
   36  O  3  S    0.000000   0.000549   0.269740  -0.329146  -0.227182
   37  O  3  S    0.000000  -0.001175   0.208928  -0.259233  -0.300216
   38  O  3  X    0.000000   0.000829   0.112168  -0.091758   0.104549
   39  O  3  Y    0.000000  -0.000553  -0.069369   0.079255  -0.137563
   40  O  3  Z    0.000042   0.000000   0.000000   0.000000   0.000000
   41  O  3  X    0.000000  -0.000927   0.022511  -0.007444   0.050070
   42  O  3  Y    0.000000   0.000083  -0.014396   0.008348  -0.062524
   43  O  3  Z   -0.000333   0.000000   0.000000   0.000000   0.000000
   44  O  3 XX    0.000000   0.000505   0.008194  -0.002457   0.001094
   45  O  3 YY    0.000000  -0.000001  -0.001920  -0.000977   0.004222
   46  O  3 ZZ    0.000000  -0.000504  -0.006274   0.003434  -0.005317
   47  O  3 XY    0.000000  -0.000872  -0.013068   0.009232  -0.009120
   48  O  3 XZ    0.000056   0.000000   0.000000   0.000000   0.000000
   49  O  3 YZ   -0.000074   0.000000   0.000000   0.000000   0.000000

                     11         12         13         14         15
                   -0.4658    -0.4500    -0.4370    -0.3335    -0.2968
                     A          A          A          A          A   
    1  S  1  S    0.000000  -0.003222   0.000000   0.000000   0.000001
    2  S  1  S    0.000000   0.019554  -0.000000   0.000000  -0.000005
    3  S  1  S    0.000000   0.003897   0.000000   0.000000   0.000006
    4  S  1  S    0.000000  -0.156188   0.000000   0.000000   0.000024
    5  S  1  X    0.000000  -0.000000  -0.174291   0.000000  -0.010628
    6  S  1  Y    0.000000  -0.189831   0.000000   0.000000   0.000005
    7  S  1  Z   -0.214643   0.000000   0.000000  -0.000000   0.000000
    8  S  1  X    0.000000   0.000001   0.473949   0.000000   0.023901
    9  S  1  Y    0.000000   0.503422  -0.000001   0.000000  -0.000013
   10  S  1  Z    0.569057   0.000000   0.000000   0.000001   0.000000
   11  S  1  X    0.000000   0.000001  -0.009465   0.000000   0.129261
   12  S  1  Y    0.000000   0.052898  -0.000000   0.000000   0.000001
   13  S  1  Z    0.110321   0.000000   0.000000   0.000000   0.000000
   14  S  1 XX    0.000000  -0.062532  -0.000000   0.000000  -0.000006
   15  S  1 YY    0.000000   0.079515  -0.000000   0.000000   0.000004
   16  S  1 ZZ    0.000000  -0.016982   0.000000   0.000000   0.000002
   17  S  1 XY    0.000000   0.000000   0.047944   0.000000  -0.129572
   18  S  1 XZ   -0.000000   0.000000   0.000000   0.139247   0.000000
   19  S  1 YZ    0.063827   0.000000   0.000000  -0.000000   0.000000
   20  O  2  S    0.000000   0.047225   0.076190   0.000000   0.003663
   21  O  2  S    0.000000  -0.097862  -0.157567   0.000000  -0.009929
   22  O  2  S    0.000000  -0.163814  -0.287536   0.000000  -0.026541
   23  O  2  X    0.000000  -0.322458  -0.237452   0.000000   0.392698
   24  O  2  Y    0.000000   0.103908  -0.291591   0.000000  -0.273030
   25  O  2  Z    0.308370   0.000000   0.000000   0.464859   0.000000
   26  O  2  X    0.000000  -0.172034  -0.100136   0.000000   0.246055
   27  O  2  Y    0.000000   0.073745  -0.143650   0.000000  -0.201069
   28  O  2  Z    0.174638   0.000000   0.000000   0.325088   0.000000
   29  O  2 XX    0.000000   0.020308   0.001034   0.000000  -0.020879
   30  O  2 YY    0.000000  -0.014114   0.008167   0.000000   0.020819
   31  O  2 ZZ    0.000000  -0.006194  -0.009200   0.000000   0.000060
   32  O  2 XY    0.000000   0.002370   0.014778   0.000000   0.004286
   33  O  2 XZ   -0.020284   0.000000   0.000000  -0.018181   0.000000
   34  O  2 YZ   -0.013522   0.000000   0.000000  -0.014712   0.000000
   35  O  3  S    0.000000   0.047225  -0.076189   0.000000  -0.003663
   36  O  3  S    0.000000  -0.097862   0.157566   0.000000   0.009929
   37  O  3  S    0.000000  -0.163812   0.287536   0.000000   0.026532
   38  O  3  X    0.000000   0.322458  -0.237453   0.000000   0.392695
   39  O  3  Y    0.000000   0.103909   0.291591   0.000000   0.273064
   40  O  3  Z    0.308371   0.000000   0.000000  -0.464859   0.000000
   41  O  3  X    0.000000   0.172036  -0.100135   0.000000   0.246052
   42  O  3  Y    0.000000   0.073745   0.143650   0.000000   0.201094
   43  O  3  Z    0.174639   0.000000   0.000000  -0.325088   0.000000
   44  O  3 XX    0.000000   0.020308  -0.001034   0.000000   0.020879
   45  O  3 YY    0.000000  -0.014114  -0.008167   0.000000  -0.020820
   46  O  3 ZZ    0.000000  -0.006194   0.009200   0.000000  -0.000059
   47  O  3 XY    0.000000  -0.002370   0.014778   0.000000   0.004287
   48  O  3 XZ    0.020284   0.000000   0.000000  -0.018181   0.000000
   49  O  3 YZ   -0.013522   0.000000   0.000000   0.014712   0.000000

                     16         17         18         19         20
                   -0.2942    -0.1487     0.0311     0.0575     0.2001
                     A          A          A          A          A   
    1  S  1  S    0.020598   0.000000  -0.000000   0.021450   0.000000
    2  S  1  S   -0.134229   0.000000   0.000003  -0.145327   0.000000
    3  S  1  S    0.159100   0.000000  -0.000004   0.126557   0.000000
    4  S  1  S    0.457698   0.000000  -0.000025   1.076077   0.000000
    5  S  1  X    0.000001   0.000000  -0.146295  -0.000004   0.000000
    6  S  1  Y    0.124505   0.000000   0.000003  -0.113005   0.000000
    7  S  1  Z    0.000000  -0.226209   0.000000   0.000000   0.247819
    8  S  1  X   -0.000001   0.000000   0.453116   0.000013   0.000000
    9  S  1  Y   -0.338769   0.000000  -0.000010   0.381096   0.000000
   10  S  1  Z    0.000000   0.683356   0.000000   0.000000  -0.971368
   11  S  1  X   -0.000005   0.000000   1.057679   0.000017   0.000000
   12  S  1  Y   -0.043338   0.000000  -0.000020   1.056775   0.000000
   13  S  1  Z    0.000000   0.380652   0.000000   0.000000   1.296493
   14  S  1 XX   -0.156200   0.000000   0.000002  -0.128049   0.000000
   15  S  1 YY    0.093812   0.000000   0.000002  -0.126968   0.000000
   16  S  1 ZZ    0.062388   0.000000  -0.000004   0.255017   0.000000
   17  S  1 XY    0.000005   0.000000  -0.238928  -0.000004   0.000000
   18  S  1 XZ    0.000000  -0.000000   0.000000   0.000000   0.000000
   19  S  1 YZ    0.000000  -0.099604   0.000000   0.000000  -0.093709
   20  O  2  S    0.002991   0.000000   0.051513   0.064658   0.000000
   21  O  2  S   -0.009008   0.000000  -0.096430  -0.115899   0.000000
   22  O  2  S   -0.035855   0.000000  -0.510564  -0.673362   0.000000
   23  O  2  X    0.018473   0.000000  -0.009031   0.241551   0.000000
   24  O  2  Y    0.413330   0.000000   0.269656  -0.007833   0.000000
   25  O  2  Z    0.000000  -0.374506   0.000000   0.000000  -0.004877
   26  O  2  X   -0.008799   0.000000  -0.035441   0.355029   0.000000
   27  O  2  Y    0.293047   0.000000   0.264776  -0.038124   0.000000
   28  O  2  Z    0.000000  -0.342771   0.000000   0.000000  -0.103415
   29  O  2 XX    0.003827   0.000000   0.001829  -0.003631   0.000000
   30  O  2 YY   -0.008671   0.000000   0.002537  -0.006800   0.000000
   31  O  2 ZZ    0.004844   0.000000  -0.004366   0.010431   0.000000
   32  O  2 XY   -0.012726   0.000000   0.002394  -0.000601   0.000000
   33  O  2 XZ    0.000000   0.003855   0.000000   0.000000   0.021555
   34  O  2 YZ    0.000000  -0.000472   0.000000   0.000000   0.011621
   35  O  3  S    0.002992   0.000000  -0.051515   0.064656   0.000000
   36  O  3  S   -0.009009   0.000000   0.096430  -0.115899   0.000000
   37  O  3  S   -0.035857   0.000000   0.510599  -0.673339   0.000000
   38  O  3  X   -0.018506   0.000000  -0.009023  -0.241554   0.000000
   39  O  3  Y    0.413307   0.000000  -0.269656  -0.007845   0.000000
   40  O  3  Z    0.000000  -0.374505   0.000000   0.000000  -0.004877
   41  O  3  X    0.008779   0.000000  -0.035422  -0.355025   0.000000
   42  O  3  Y    0.293030   0.000000  -0.264777  -0.038136   0.000000
   43  O  3  Z    0.000000  -0.342771   0.000000   0.000000  -0.103415
   44  O  3 XX    0.003826   0.000000  -0.001829  -0.003631   0.000000
   45  O  3 YY   -0.008669   0.000000  -0.002537  -0.006800   0.000000
   46  O  3 ZZ    0.004844   0.000000   0.004366   0.010431   0.000000
   47  O  3 XY    0.012725   0.000000   0.002394   0.000601   0.000000
   48  O  3 XZ    0.000000  -0.003855   0.000000   0.000000  -0.021555
   49  O  3 YZ    0.000000  -0.000473   0.000000   0.000000   0.011621

                     21         22         23         24         25
                    0.2279     0.3076     0.3117     0.5425     0.5685
                     A          A          A          A          A   
    1  S  1  S   -0.041818  -0.057348  -0.000002   0.000000   0.000000
    2  S  1  S    0.306458   0.416750   0.000012   0.000000   0.000000
    3  S  1  S   -1.160484  -1.493726  -0.000044   0.000000   0.000000
    4  S  1  S    1.519894   1.669905   0.000042   0.000000   0.000000
    5  S  1  X   -0.000001  -0.000008   0.272039   0.000000   0.000000
    6  S  1  Y   -0.227593   0.169065   0.000004   0.000000   0.000000
    7  S  1  Z    0.000000   0.000000   0.000000   0.016637  -0.000000
    8  S  1  X    0.000004   0.000033  -1.021908   0.000000   0.000000
    9  S  1  Y    0.908217  -0.610250  -0.000017   0.000000   0.000000
   10  S  1  Z    0.000000   0.000000   0.000000  -0.088754   0.000000
   11  S  1  X   -0.000002  -0.000032   1.281115   0.000000   0.000000
   12  S  1  Y   -0.739955   0.880462   0.000021   0.000000   0.000000
   13  S  1  Z    0.000000   0.000000   0.000000   0.163934   0.000000
   14  S  1 XX   -0.116589   0.284312   0.000006   0.000000   0.000000
   15  S  1 YY    0.013824  -0.043463  -0.000002   0.000000   0.000000
   16  S  1 ZZ    0.102765  -0.240849  -0.000003   0.000000   0.000000
   17  S  1 XY   -0.000000  -0.000007   0.383979   0.000000   0.000000
   18  S  1 XZ    0.000000   0.000000   0.000000  -0.000001   0.942664
   19  S  1 YZ    0.000000   0.000000   0.000000   0.935886   0.000001
   20  O  2  S    0.018547   0.004226   0.002062   0.000000   0.000000
   21  O  2  S   -0.052438   0.057512   0.059478   0.000000   0.000000
   22  O  2  S   -0.206154  -0.505748  -0.382759   0.000000   0.000000
   23  O  2  X    0.041221  -0.271782  -0.196431   0.000000   0.000000
   24  O  2  Y   -0.032321  -0.144258  -0.163753   0.000000   0.000000
   25  O  2  Z    0.000000   0.000000   0.000000  -0.293238  -0.323558
   26  O  2  X    0.128676   0.009625  -0.063758   0.000000   0.000000
   27  O  2  Y    0.098124  -0.007334  -0.024923   0.000000   0.000000
   28  O  2  Z    0.000000   0.000000   0.000000   0.034766  -0.001106
   29  O  2 XX    0.009155  -0.042603  -0.004005   0.000000   0.000000
   30  O  2 YY   -0.017551   0.019507  -0.020617   0.000000   0.000000
   31  O  2 ZZ    0.008396   0.023096   0.024622   0.000000   0.000000
   32  O  2 XY   -0.013794  -0.033595  -0.039779   0.000000   0.000000
   33  O  2 XZ    0.000000   0.000000   0.000000  -0.046099  -0.028054
   34  O  2 YZ    0.000000   0.000000   0.000000   0.010757  -0.050709
   35  O  3  S    0.018547   0.004226  -0.002061   0.000000   0.000000
   36  O  3  S   -0.052439   0.057510  -0.059481   0.000000   0.000000
   37  O  3  S   -0.206151  -0.505754   0.382743   0.000000   0.000000
   38  O  3  X   -0.041221   0.271790  -0.196420   0.000000   0.000000
   39  O  3  Y   -0.032322  -0.144266   0.163745   0.000000   0.000000
   40  O  3  Z    0.000000   0.000000   0.000000  -0.293238   0.323558
   41  O  3  X   -0.128673  -0.009611  -0.063752   0.000000   0.000000
   42  O  3  Y    0.098122  -0.007341   0.024919   0.000000   0.000000
   43  O  3  Z    0.000000   0.000000   0.000000   0.034766   0.001106
   44  O  3 XX    0.009155  -0.042603   0.004003   0.000000   0.000000
   45  O  3 YY   -0.017551   0.019506   0.020618   0.000000   0.000000
   46  O  3 ZZ    0.008396   0.023097  -0.024621   0.000000   0.000000
   47  O  3 XY    0.013794   0.033596  -0.039778   0.000000   0.000000
   48  O  3 XZ    0.000000   0.000000   0.000000   0.046100  -0.028054
   49  O  3 YZ    0.000000   0.000000   0.000000   0.010757   0.050709

                     26         27         28         29         30
                    0.5824     0.6406     0.6612     0.7767     0.7831
                     A          A          A          A          A   
    1  S  1  S    0.011414   0.023676  -0.000000   0.008667   0.000000
    2  S  1  S   -0.088161  -0.190862   0.000002  -0.069438   0.000000
    3  S  1  S    0.328323   0.905176  -0.000011   0.352373   0.000000
    4  S  1  S    0.452876   0.763407  -0.000020  -0.020290   0.000000
    5  S  1  X   -0.000001  -0.000003  -0.189474  -0.000000   0.000000
    6  S  1  Y   -0.050246  -0.120253   0.000002  -0.030090   0.000000
    7  S  1  Z    0.000000   0.000000   0.000000   0.000000  -0.000000
    8  S  1  X    0.000004   0.000017   1.124228   0.000001   0.000000
    9  S  1  Y    0.258831   0.719597  -0.000011   0.132696   0.000000
   10  S  1  Z    0.000000   0.000000   0.000000   0.000000  -0.000000
   11  S  1  X    0.000002   0.000003   0.003030  -0.000000   0.000000
   12  S  1  Y    0.212429   0.042782  -0.000004  -0.581314   0.000000
   13  S  1  Z    0.000000   0.000000   0.000000   0.000000  -0.000001
   14  S  1 XX   -0.190169   0.558824  -0.000007   0.469775   0.000000
   15  S  1 YY    0.846259  -0.234678   0.000001  -0.513155   0.000000
   16  S  1 ZZ   -0.656090  -0.324145   0.000005   0.043381   0.000000
   17  S  1 XY    0.000002   0.000008   0.502712   0.000000   0.000000
   18  S  1 XZ    0.000000   0.000000   0.000000   0.000000   0.391002
   19  S  1 YZ    0.000000   0.000000   0.000000   0.000000  -0.000001
   20  O  2  S    0.036986   0.053819   0.065725   0.005328   0.000000
   21  O  2  S   -0.121269  -0.103838  -0.165008   0.011737   0.000000
   22  O  2  S   -0.278219  -0.586458  -0.543814  -0.029446   0.000000
   23  O  2  X    0.127995  -0.358762  -0.158935   0.279103   0.000000
   24  O  2  Y   -0.290947   0.098060  -0.241055  -0.418506   0.000000
   25  O  2  Z    0.000000   0.000000   0.000000   0.000000   0.574290
   26  O  2  X    0.325086   0.915985   0.927316  -0.271469   0.000000
   27  O  2  Y    0.247026   0.453246   0.758088   0.850011   0.000000
   28  O  2  Z    0.000000   0.000000   0.000000   0.000000  -0.831873
   29  O  2 XX    0.046146  -0.011939   0.006274  -0.028684   0.000000
   30  O  2 YY   -0.022360   0.020012   0.001539   0.041997   0.000000
   31  O  2 ZZ   -0.023787  -0.008072  -0.007813  -0.013313   0.000000
   32  O  2 XY   -0.031037   0.025082   0.014708   0.024743   0.000000
   33  O  2 XZ    0.000000   0.000000   0.000000   0.000000  -0.042293
   34  O  2 YZ    0.000000   0.000000   0.000000   0.000000  -0.029687
   35  O  3  S    0.036986   0.053817  -0.065727   0.005328   0.000000
   36  O  3  S   -0.121270  -0.103837   0.165012   0.011738   0.000000
   37  O  3  S   -0.278211  -0.586434   0.543836  -0.029445   0.000000
   38  O  3  X   -0.127999   0.358751  -0.158950  -0.279103   0.000000
   39  O  3  Y   -0.290946   0.098065   0.241059  -0.418505   0.000000
   40  O  3  Z    0.000000   0.000000   0.000000   0.000000  -0.574292
   41  O  3  X   -0.325076  -0.915949   0.927350   0.271471   0.000000
   42  O  3  Y    0.247021   0.453225  -0.758107   0.850010   0.000000
   43  O  3  Z    0.000000   0.000000   0.000000   0.000000   0.831876
   44  O  3 XX    0.046146  -0.011940  -0.006273  -0.028684   0.000000
   45  O  3 YY   -0.022360   0.020012  -0.001540   0.041997   0.000000
   46  O  3 ZZ   -0.023787  -0.008072   0.007813  -0.013313   0.000000
   47  O  3 XY    0.031037  -0.025083   0.014709  -0.024743   0.000000
   48  O  3 XZ    0.000000   0.000000   0.000000   0.000000  -0.042293
   49  O  3 YZ    0.000000   0.000000   0.000000   0.000000   0.029687

                     31         32         33         34         35
                    0.8427     0.9076     0.9468     1.1938     1.4250
                     A          A          A          A          A   
    1  S  1  S    0.000000   0.000000   0.010903  -0.000000  -0.000000
    2  S  1  S    0.000000  -0.000001  -0.064139   0.000000   0.000002
    3  S  1  S    0.000000  -0.000002  -0.276049   0.000001  -0.000005
    4  S  1  S    0.000000   0.000004   0.326730  -0.000020  -0.000069
    5  S  1  X    0.000000  -0.044788   0.000000  -0.160697   0.019690
    6  S  1  Y    0.000000  -0.000001  -0.092775   0.000001   0.000002
    7  S  1  Z    0.004812   0.000000   0.000000   0.000000   0.000000
    8  S  1  X    0.000000   0.215365  -0.000001   0.630604  -0.429865
    9  S  1  Y    0.000000   0.000002   0.252719  -0.000005  -0.000019
   10  S  1  Z   -0.079007   0.000000   0.000000   0.000000   0.000000
   11  S  1  X    0.000000  -0.522600   0.000008   0.555997  -0.692299
   12  S  1  Y    0.000000   0.000001   0.090750  -0.000008  -0.000027
   13  S  1  Z   -0.666371   0.000000   0.000000   0.000000   0.000000
   14  S  1 XX    0.000000   0.000006   0.745401  -0.000004  -0.000005
   15  S  1 YY    0.000000  -0.000000  -0.025840  -0.000001  -0.000004
   16  S  1 ZZ    0.000000  -0.000006  -0.719560   0.000005   0.000009
   17  S  1 XY    0.000000   0.223866  -0.000001   1.026378   0.110832
   18  S  1 XZ   -0.000000   0.000000   0.000000   0.000000   0.000000
   19  S  1 YZ   -0.384391   0.000000   0.000000   0.000000   0.000000
   20  O  2  S    0.000000   0.005750   0.042464   0.020731   0.087533
   21  O  2  S    0.000000   0.003302  -0.275055   0.131632  -1.261210
   22  O  2  S    0.000000  -0.011033  -0.090958  -0.912865   1.779755
   23  O  2  X    0.000000  -0.330865   0.429648   0.570065   0.126333
   24  O  2  Y    0.000000   0.522650   0.413296   0.272107   0.105650
   25  O  2  Z   -0.581502   0.000000   0.000000   0.000000   0.000000
   26  O  2  X    0.000000   0.741016  -0.284929  -0.152981  -0.393589
   27  O  2  Y    0.000000  -0.645853  -0.245477   0.089574  -0.407006
   28  O  2  Z    0.960184   0.000000   0.000000   0.000000   0.000000
   29  O  2 XX    0.000000   0.062235  -0.016057   0.029092  -0.075825
   30  O  2 YY    0.000000  -0.037046   0.047865  -0.042641  -0.040985
   31  O  2 ZZ    0.000000  -0.025189  -0.031808   0.013549   0.116810
   32  O  2 XY    0.000000  -0.015217  -0.029672   0.067710  -0.065730
   33  O  2 XZ    0.042616   0.000000   0.000000   0.000000   0.000000
   34  O  2 YZ    0.023871   0.000000   0.000000   0.000000   0.000000
   35  O  3  S    0.000000  -0.005750   0.042465  -0.020729  -0.087528
   36  O  3  S    0.000000  -0.003295  -0.275066  -0.131655   1.261117
   37  O  3  S    0.000000   0.011020  -0.090943   0.912909  -1.779588
   38  O  3  X    0.000000  -0.330876  -0.429639   0.570069   0.126337
   39  O  3  Y    0.000000  -0.522641   0.413303  -0.272111  -0.105654
   40  O  3  Z   -0.581500   0.000000   0.000000   0.000000   0.000000
   41  O  3  X    0.000000   0.741024   0.284913  -0.152974  -0.393550
   42  O  3  Y    0.000000   0.645847  -0.245488  -0.089576   0.406992
   43  O  3  Z    0.960181   0.000000   0.000000   0.000000   0.000000
   44  O  3 XX    0.000000  -0.062235  -0.016055  -0.029091   0.075821
   45  O  3 YY    0.000000   0.037047   0.047864   0.042641   0.040988
   46  O  3 ZZ    0.000000   0.025188  -0.031809  -0.013550  -0.116808
   47  O  3 XY    0.000000  -0.015216   0.029672   0.067711  -0.065722
   48  O  3 XZ   -0.042616   0.000000   0.000000   0.000000   0.000000
   49  O  3 YZ    0.023871   0.000000   0.000000   0.000000   0.000000

                     36         37         38         39         40
                    1.4888     2.0606     2.0652     2.0917     2.0932
                     A          A          A          A          A   
    1  S  1  S   -0.003146   0.000000   0.000000   0.000000   0.000823
    2  S  1  S    0.035564   0.000000   0.000000  -0.000000  -0.004123
    3  S  1  S   -0.033148   0.000000   0.000000  -0.000003  -0.020359
    4  S  1  S   -2.165772   0.000000   0.000000  -0.000008  -0.115991
    5  S  1  X    0.000000   0.000000   0.000000   0.001186  -0.000000
    6  S  1  Y    0.079029   0.000000   0.000000  -0.000000  -0.001630
    7  S  1  Z    0.000000  -0.000001  -0.022178   0.000000   0.000000
    8  S  1  X    0.000011   0.000000   0.000000  -0.062176   0.000006
    9  S  1  Y   -0.568517   0.000000   0.000000  -0.000002  -0.019518
   10  S  1  Z    0.000000   0.000002   0.091450   0.000000   0.000000
   11  S  1  X    0.000014   0.000000   0.000000   0.009110  -0.000001
   12  S  1  Y   -0.865629   0.000000   0.000000  -0.000004  -0.060611
   13  S  1  Z    0.000000   0.000000   0.009246   0.000000   0.000000
   14  S  1 XX   -0.217734   0.000000   0.000000   0.000007   0.069335
   15  S  1 YY   -0.114319   0.000000   0.000000   0.000008   0.083531
   16  S  1 ZZ    0.332053   0.000000   0.000000  -0.000014  -0.152867
   17  S  1 XY   -0.000013   0.000000   0.000000   0.144188  -0.000013
   18  S  1 XZ    0.000000   0.033954  -0.000001   0.000000   0.000000
   19  S  1 YZ    0.000000  -0.000001  -0.036832   0.000000   0.000000
   20  O  2  S    0.065527   0.000000   0.000000   0.010479   0.008667
   21  O  2  S   -1.270263   0.000000   0.000000  -0.145307  -0.118044
   22  O  2  S    2.413297   0.000000   0.000000   0.144270   0.151396
   23  O  2  X   -0.070620   0.000000   0.000000   0.079674   0.049903
   24  O  2  Y   -0.077889   0.000000   0.000000   0.022405   0.011549
   25  O  2  Z    0.000000   0.026801   0.028801   0.000000   0.000000
   26  O  2  X   -0.565192   0.000000   0.000000  -0.110277  -0.073991
   27  O  2  Y   -0.184698   0.000000   0.000000  -0.028767  -0.009389
   28  O  2  Z    0.000000  -0.043149  -0.046625   0.000000   0.000000
   29  O  2 XX   -0.071924   0.000000   0.000000   0.153467  -0.216080
   30  O  2 YY    0.033048   0.000000   0.000000   0.458140  -0.400629
   31  O  2 ZZ    0.038876   0.000000   0.000000  -0.611607   0.616709
   32  O  2 XY   -0.128253   0.000000   0.000000  -0.300169   0.328842
   33  O  2 XZ    0.000000   0.542440  -0.234879   0.000000   0.000000
   34  O  2 YZ    0.000000  -0.454837   0.668187   0.000000   0.000000
   35  O  3  S    0.065533   0.000000   0.000000  -0.010478   0.008669
   36  O  3  S   -1.270348   0.000000   0.000000   0.145288  -0.118070
   37  O  3  S    2.413404   0.000000   0.000000  -0.144247   0.151421
   38  O  3  X    0.070600   0.000000   0.000000   0.079665  -0.049918
   39  O  3  Y   -0.077880   0.000000   0.000000  -0.022403   0.011553
   40  O  3  Z    0.000000  -0.026800   0.028802   0.000000   0.000000
   41  O  3  X    0.565229   0.000000   0.000000  -0.110265   0.074011
   42  O  3  Y   -0.184720   0.000000   0.000000   0.028766  -0.009394
   43  O  3  Z    0.000000   0.043147  -0.046627   0.000000   0.000000
   44  O  3 XX   -0.071931   0.000000   0.000000  -0.153505  -0.216052
   45  O  3 YY    0.033044   0.000000   0.000000  -0.458213  -0.400545
   46  O  3 ZZ    0.038887   0.000000   0.000000   0.611718   0.616598
   47  O  3 XY    0.128256   0.000000   0.000000  -0.300230  -0.328789
   48  O  3 XZ    0.000000   0.542452   0.234850   0.000000   0.000000
   49  O  3 YZ    0.000000   0.454872   0.668163   0.000000   0.000000

                     41         42         43         44         45
                    2.1340     2.3119     2.3165     2.5340     2.8071
                     A          A          A          A          A   
    1  S  1  S   -0.000000   0.000000   0.000000  -0.001024  -0.039970
    2  S  1  S    0.000000   0.000000   0.000000   0.007796   0.363747
    3  S  1  S   -0.000001   0.000000   0.000000  -0.042523  -1.408805
    4  S  1  S    0.000002   0.000000   0.000000   0.109588  -0.935117
    5  S  1  X   -0.041578   0.000000   0.000000   0.000000   0.000000
    6  S  1  Y   -0.000000   0.000000   0.000000  -0.073721   0.148911
    7  S  1  Z    0.000000   0.083983  -0.000002   0.000000   0.000000
    8  S  1  X    0.161012   0.000000   0.000000  -0.000002  -0.000000
    9  S  1  Y    0.000000   0.000000   0.000000   0.305921  -1.044392
   10  S  1  Z    0.000000  -0.344880   0.000008   0.000000   0.000000
   11  S  1  X    0.041381   0.000000   0.000000   0.000000  -0.000002
   12  S  1  Y    0.000001   0.000000   0.000000   0.137926  -0.133683
   13  S  1  Z    0.000000  -0.079797   0.000002   0.000000   0.000000
   14  S  1 XX   -0.000000   0.000000   0.000000  -0.548613  -0.455939
   15  S  1 YY    0.000000   0.000000   0.000000   0.559485   0.010018
   16  S  1 ZZ   -0.000000   0.000000   0.000000  -0.010872   0.445921
   17  S  1 XY   -0.211594   0.000000   0.000000  -0.000000  -0.000002
   18  S  1 XZ    0.000000   0.000013   0.525265   0.000000   0.000000
   19  S  1 YZ    0.000000  -0.393266   0.000009   0.000000   0.000000
   20  O  2  S   -0.000053   0.000000   0.000000  -0.001740  -0.004294
   21  O  2  S    0.001484   0.000000   0.000000   0.057564  -0.524470
   22  O  2  S    0.010942   0.000000   0.000000  -0.113019   1.452038
   23  O  2  X    0.050949   0.000000   0.000000  -0.006742  -0.063138
   24  O  2  Y   -0.088657   0.000000   0.000000  -0.007373  -0.035480
   25  O  2  Z    0.000000  -0.048952   0.035536   0.000000   0.000000
   26  O  2  X   -0.137533   0.000000   0.000000   0.129763  -0.683759
   27  O  2  Y    0.140407   0.000000   0.000000  -0.187303  -0.478672
   28  O  2  Z    0.000000   0.206401  -0.179274   0.000000   0.000000
   29  O  2 XX    0.603841   0.000000   0.000000  -0.637810   0.423989
   30  O  2 YY   -0.551969   0.000000   0.000000   0.648182   0.008752
   31  O  2 ZZ   -0.051872   0.000000   0.000000  -0.010372  -0.432741
   32  O  2 XY   -0.274482   0.000000   0.000000   0.269603   0.696621
   33  O  2 XZ    0.000000  -0.706490   0.494420   0.000000   0.000000
   34  O  2 YZ    0.000000  -0.259882   0.571642   0.000000   0.000000
   35  O  3  S    0.000053   0.000000   0.000000  -0.001740  -0.004294
   36  O  3  S   -0.001483   0.000000   0.000000   0.057565  -0.524472
   37  O  3  S   -0.010946   0.000000   0.000000  -0.113021   1.452038
   38  O  3  X    0.050949   0.000000   0.000000   0.006743   0.063136
   39  O  3  Y    0.088657   0.000000   0.000000  -0.007373  -0.035479
   40  O  3  Z    0.000000  -0.048954  -0.035534   0.000000   0.000000
   41  O  3  X   -0.137534   0.000000   0.000000  -0.129765   0.683761
   42  O  3  Y   -0.140407   0.000000   0.000000  -0.187302  -0.478671
   43  O  3  Z    0.000000   0.206409   0.179265   0.000000   0.000000
   44  O  3 XX   -0.603840   0.000000   0.000000  -0.637811   0.423989
   45  O  3 YY    0.551969   0.000000   0.000000   0.648182   0.008752
   46  O  3 ZZ    0.051871   0.000000   0.000000  -0.010371  -0.432742
   47  O  3 XY   -0.274483   0.000000   0.000000  -0.269601  -0.696620
   48  O  3 XZ    0.000000   0.706513   0.494386   0.000000   0.000000
   49  O  3 YZ    0.000000  -0.259909  -0.571630   0.000000   0.000000

                     46
                    2.9272
                     A   
    1  S  1  S   -0.000000
    2  S  1  S    0.000000
    3  S  1  S    0.000001
    4  S  1  S   -0.000004
    5  S  1  X   -0.249923
    6  S  1  Y    0.000000
    7  S  1  Z    0.000000
    8  S  1  X    1.683765
    9  S  1  Y   -0.000001
   10  S  1  Z    0.000000
   11  S  1  X    0.136132
   12  S  1  Y   -0.000001
   13  S  1  Z    0.000000
   14  S  1 XX   -0.000002
   15  S  1 YY    0.000001
   16  S  1 ZZ    0.000001
   17  S  1 XY    0.841982
   18  S  1 XZ    0.000000
   19  S  1 YZ    0.000000
   20  O  2  S    0.013082
   21  O  2  S    0.456379
   22  O  2  S   -1.472698
   23  O  2  X    0.117726
   24  O  2  Y    0.097962
   25  O  2  Z    0.000000
   26  O  2  X    0.775496
   27  O  2  Y    0.522488
   28  O  2  Z    0.000000
   29  O  2 XX   -0.463462
   30  O  2 YY    0.029859
   31  O  2 ZZ    0.433603
   32  O  2 XY   -0.740282
   33  O  2 XZ    0.000000
   34  O  2 YZ    0.000000
   35  O  3  S   -0.013082
   36  O  3  S   -0.456379
   37  O  3  S    1.472703
   38  O  3  X    0.117727
   39  O  3  Y   -0.097962
   40  O  3  Z    0.000000
   41  O  3  X    0.775497
   42  O  3  Y   -0.522489
   43  O  3  Z    0.000000
   44  O  3 XX    0.463461
   45  O  3 YY   -0.029857
   46  O  3 ZZ   -0.433604
   47  O  3 XY   -0.740283
   48  O  3 XZ    0.000000
   49  O  3 YZ    0.000000
 ...... END OF RHF CALCULATION ......
 STEP CPU TIME =     2.57 TOTAL CPU TIME =          2.7 (      0.0 MIN)
 TOTAL WALL CLOCK TIME=          2.8 SECONDS, CPU UTILIZATION IS    98.91%

     ---------------------------------------------------------------------
     PROPERTIES FOR THE PBE      DFT FUNCTIONAL (RHF  TYPE) DENSITY MATRIX
     ---------------------------------------------------------------------

          -----------------
          ENERGY COMPONENTS
          -----------------

         WAVEFUNCTION NORMALIZATION =       1.0000000000

                ONE ELECTRON ENERGY =    -977.0118279519
                TWO ELECTRON ENERGY =     317.2582280535
           NUCLEAR REPULSION ENERGY =     111.5296944627
                                      ------------------
                       TOTAL ENERGY =    -548.2239054357

 ELECTRON-ELECTRON POTENTIAL ENERGY =     317.2582280535
  NUCLEUS-ELECTRON POTENTIAL ENERGY =   -1525.0201478997
   NUCLEUS-NUCLEUS POTENTIAL ENERGY =     111.5296944627
                                      ------------------
             TOTAL POTENTIAL ENERGY =   -1096.2322253835
               TOTAL KINETIC ENERGY =     548.0083199478
                 VIRIAL RATIO (V/T) =       2.0003933982

          ---------------------------------------
          MULLIKEN AND LOWDIN POPULATION ANALYSES
          ---------------------------------------

     ATOMIC MULLIKEN POPULATION IN EACH MOLECULAR ORBITAL

                      1          2          3          4          5

                  2.000000   2.000000   2.000000   2.000000   2.000000

    1             1.999890   0.000518   0.001675   2.000956   2.000171
    2             0.000055   0.987084   1.011819  -0.000478  -0.000086
    3             0.000055   1.012398   0.986506  -0.000478  -0.000086

                      6          7          8          9         10

                  2.000000   2.000000   2.000000   2.000000   2.000000

    1             2.000044   2.000097   0.764043   0.504414   1.014416
    2            -0.000022  -0.000049   0.617974   0.747799   0.492790
    3            -0.000022  -0.000049   0.617984   0.747787   0.492794

                     11         12         13         14         15

                  2.000000   2.000000   2.000000   2.000000   2.000000

    1             1.016235   0.739400   0.393053   0.119379   0.180226
    2             0.491881   0.630299   0.803474   0.940311   0.909848
    3             0.491884   0.630302   0.803472   0.940310   0.909926

                     16

                  2.000000

    1             0.695196
    2             0.652444
    3             0.652360

               ----- POPULATIONS IN EACH AO -----
                             MULLIKEN      LOWDIN
              1  S  1  S      1.99980     1.99922
              2  S  1  S      1.99182     1.87988
              3  S  1  S      1.27263     0.62661
              4  S  1  S      0.59141     0.48863
              5  S  1  X      1.99422     1.95884
              6  S  1  Y      1.99528     1.96750
              7  S  1  Z      1.99372     1.95992
              8  S  1  X      0.84078     0.67125
              9  S  1  Y      1.05795     0.95105
             10  S  1  Z      0.85131     0.74373
             11  S  1  X      0.06882     0.20497
             12  S  1  Y      0.08850     0.24492
             13  S  1  Z      0.14739     0.25678
             14  S  1 XX      0.04285     0.34005
             15  S  1 YY      0.17542     0.31826
             16  S  1 ZZ      0.17457     0.27135
             17  S  1 XY      0.11938     0.19545
             18  S  1 XZ      0.02386     0.14541
             19  S  1 YZ      0.00000     0.02304
             20  O  2  S      1.99539     1.97243
             21  O  2  S      0.93910     0.67747
             22  O  2  S      0.87663     0.50771
             23  O  2  X      0.99584     0.95902
             24  O  2  Y      1.03653     1.00873
             25  O  2  Z      0.86898     0.82978
             26  O  2  X      0.43852     0.56271
             27  O  2  Y      0.55441     0.63934
             28  O  2  Z      0.55470     0.59372
             29  O  2 XX      0.00244     0.20521
             30  O  2 YY      0.00688     0.19618
             31  O  2 ZZ      0.00723     0.19656
             32  O  2 XY      0.00557     0.01565
             33  O  2 XZ      0.00293     0.00814
             34  O  2 YZ      0.00000     0.00392
             35  O  3  S      1.99539     1.97243
             36  O  3  S      0.93910     0.67747
             37  O  3  S      0.87663     0.50771
             38  O  3  X      0.99584     0.95902
             39  O  3  Y      1.03653     1.00873
             40  O  3  Z      0.86898     0.82978
             41  O  3  X      0.43852     0.56271
             42  O  3  Y      0.55441     0.63934
             43  O  3  Z      0.55470     0.59372
             44  O  3 XX      0.00244     0.20521
             45  O  3 YY      0.00688     0.19618
             46  O  3 ZZ      0.00723     0.19656
             47  O  3 XY      0.00557     0.01565
             48  O  3 XZ      0.00293     0.00814
             49  O  3 YZ      0.00000     0.00392

          ----- MULLIKEN ATOMIC OVERLAP POPULATIONS -----
          (OFF-DIAGONAL ELEMENTS NEED TO BE MULTIPLIED BY 2)

             1           2           3

    1   14.5900770
    2    0.4198140   7.9379028
    3    0.4198220  -0.0725722   7.9378925

          TOTAL MULLIKEN AND LOWDIN ATOMIC POPULATIONS
       ATOM         MULL.POP.    CHARGE          LOW.POP.     CHARGE
    1 S            15.429713    0.570287        15.246868    0.753132
    2 O             8.285145   -0.285145         8.376567   -0.376567
    3 O             8.285142   -0.285142         8.376566   -0.376566

          MULLIKEN SPHERICAL HARMONIC POPULATIONS
       ATOM           S       P       D      F      G      H      I    TOTAL
    1 S             5.86    9.04    0.54   0.00   0.00   0.00   0.00   15.43
    2 O             3.81    4.45    0.03   0.00   0.00   0.00   0.00    8.29
    3 O             3.81    4.45    0.03   0.00   0.00   0.00   0.00    8.29

          -------------------------------
          BOND ORDER AND VALENCE ANALYSIS     BOND ORDER THRESHOLD=0.050
          -------------------------------

                   BOND                       BOND                       BOND
  ATOM PAIR DIST  ORDER      ATOM PAIR DIST  ORDER      ATOM PAIR DIST  ORDER
    1   2  1.400  1.939        1   3  1.400  1.940        2   3  2.294  0.210

                       TOTAL       BONDED        FREE
      ATOM            VALENCE     VALENCE     VALENCE
    1 S                 3.879       3.879       0.000
    2 O                 2.150       2.150      -0.000
    3 O                 2.150       2.150       0.000

          ---------------------
          ELECTROSTATIC MOMENTS
          ---------------------

 POINT   1           X           Y           Z (BOHR)    CHARGE
                 0.000000   -0.000000    0.000000        0.00 (A.U.)
         DX          DY          DZ         /D/  (DEBYE)
    -0.000006   -1.943101    0.000000    1.943101
 ...... END OF PROPERTY EVALUATION ......
 STEP CPU TIME =     0.00 TOTAL CPU TIME =          2.7 (      0.0 MIN)
 TOTAL WALL CLOCK TIME=          2.8 SECONDS, CPU UTILIZATION IS    98.55%
                580000  WORDS OF DYNAMIC MEMORY USED
 EXECUTION OF GAMESS TERMINATED NORMALLY Sun Sep 29 10:45:43 2019
 DDI: 263640 bytes (0.3 MB / 0 MWords) used by master data server.

 ----------------------------------------
 CPU timing information for all processes
 ========================================
 0: 2.649 + 0.83 = 2.732
 ----------------------------------------
 ddikick.x: exited gracefully.
----- accounting info -----
Files used on the master node crcfe02.crc.nd.edu were:
-rw-r--r-- 1 cdrisko campus     208 Sep 29 10:45 /afs/crc.nd.edu/user/c/cdrisko/SO2.F05
-rw-r--r-- 1 cdrisko campus   37566 Sep 29 10:45 /afs/crc.nd.edu/user/c/cdrisko/SO2.F07
-rw-r--r-- 1 cdrisko campus 4320384 Sep 29 10:45 /afs/crc.nd.edu/user/c/cdrisko/SO2.F08
-rw-r--r-- 1 cdrisko campus 1766880 Sep 29 10:45 /afs/crc.nd.edu/user/c/cdrisko/SO2.F10
Sun Sep 29 10:45:46 EDT 2019
0.452u 0.226s 0:06.42 10.4%	0+0k 0+24io 0pf+0w
