   1   1   0   0
  0.1728000E+04  0.1200000E-08  0.1200000E-08  0.1200000E-08  0.5000000E-15
  1.000000000000000E-004
  CAR 
 unknown system                          
      2.01810073    -29.26719761  301    -10.46994753      1.00000000
    -29.267  0.0000E+00  0.0000E+00
    -29.163  0.0000E+00  0.0000E+00
    -29.059  0.0000E+00  0.0000E+00
    -28.954  0.0000E+00  0.0000E+00
    -28.850  0.0000E+00  0.0000E+00
    -28.746  0.0000E+00  0.0000E+00
    -28.641  0.0000E+00  0.0000E+00
    -28.537  0.0000E+00  0.0000E+00
    -28.433  0.0000E+00  0.0000E+00
    -28.329  0.0000E+00  0.0000E+00
    -28.224  0.0000E+00  0.0000E+00
    -28.120  0.0000E+00  0.0000E+00
    -28.016  0.0000E+00  0.0000E+00
    -27.912  0.0000E+00  0.0000E+00
    -27.807  0.1918E+02  0.2000E+01
    -27.703  0.0000E+00  0.2000E+01
    -27.599  0.0000E+00  0.2000E+01
    -27.494  0.0000E+00  0.2000E+01
    -27.390  0.0000E+00  0.2000E+01
    -27.286  0.0000E+00  0.2000E+01
    -27.182  0.0000E+00  0.2000E+01
    -27.077  0.0000E+00  0.2000E+01
    -26.973  0.0000E+00  0.2000E+01
    -26.869  0.0000E+00  0.2000E+01
    -26.764  0.0000E+00  0.2000E+01
    -26.660  0.0000E+00  0.2000E+01
    -26.556  0.0000E+00  0.2000E+01
    -26.452  0.0000E+00  0.2000E+01
    -26.347  0.0000E+00  0.2000E+01
    -26.243  0.0000E+00  0.2000E+01
    -26.139  0.0000E+00  0.2000E+01
    -26.034  0.0000E+00  0.2000E+01
    -25.930  0.0000E+00  0.2000E+01
    -25.826  0.0000E+00  0.2000E+01
    -25.722  0.0000E+00  0.2000E+01
    -25.617  0.0000E+00  0.2000E+01
    -25.513  0.0000E+00  0.2000E+01
    -25.409  0.0000E+00  0.2000E+01
    -25.304  0.0000E+00  0.2000E+01
    -25.200  0.0000E+00  0.2000E+01
    -25.096  0.0000E+00  0.2000E+01
    -24.992  0.0000E+00  0.2000E+01
    -24.887  0.0000E+00  0.2000E+01
    -24.783  0.0000E+00  0.2000E+01
    -24.679  0.0000E+00  0.2000E+01
    -24.574  0.0000E+00  0.2000E+01
    -24.470  0.0000E+00  0.2000E+01
    -24.366  0.0000E+00  0.2000E+01
    -24.262  0.0000E+00  0.2000E+01
    -24.157  0.0000E+00  0.2000E+01
    -24.053  0.0000E+00  0.2000E+01
    -23.949  0.0000E+00  0.2000E+01
    -23.844  0.0000E+00  0.2000E+01
    -23.740  0.0000E+00  0.2000E+01
    -23.636  0.0000E+00  0.2000E+01
    -23.532  0.0000E+00  0.2000E+01
    -23.427  0.0000E+00  0.2000E+01
    -23.323  0.0000E+00  0.2000E+01
    -23.219  0.0000E+00  0.2000E+01
    -23.114  0.0000E+00  0.2000E+01
    -23.010  0.0000E+00  0.2000E+01
    -22.906  0.0000E+00  0.2000E+01
    -22.802  0.0000E+00  0.2000E+01
    -22.697  0.0000E+00  0.2000E+01
    -22.593  0.0000E+00  0.2000E+01
    -22.489  0.0000E+00  0.2000E+01
    -22.384  0.0000E+00  0.2000E+01
    -22.280  0.0000E+00  0.2000E+01
    -22.176  0.0000E+00  0.2000E+01
    -22.072  0.0000E+00  0.2000E+01
    -21.967  0.0000E+00  0.2000E+01
    -21.863  0.0000E+00  0.2000E+01
    -21.759  0.0000E+00  0.2000E+01
    -21.654  0.0000E+00  0.2000E+01
    -21.550  0.0000E+00  0.2000E+01
    -21.446  0.0000E+00  0.2000E+01
    -21.342  0.0000E+00  0.2000E+01
    -21.237  0.0000E+00  0.2000E+01
    -21.133  0.0000E+00  0.2000E+01
    -21.029  0.0000E+00  0.2000E+01
    -20.924  0.0000E+00  0.2000E+01
    -20.820  0.0000E+00  0.2000E+01
    -20.716  0.0000E+00  0.2000E+01
    -20.612  0.0000E+00  0.2000E+01
    -20.507  0.0000E+00  0.2000E+01
    -20.403  0.0000E+00  0.2000E+01
    -20.299  0.0000E+00  0.2000E+01
    -20.194  0.0000E+00  0.2000E+01
    -20.090  0.0000E+00  0.2000E+01
    -19.986  0.0000E+00  0.2000E+01
    -19.882  0.0000E+00  0.2000E+01
    -19.777  0.0000E+00  0.2000E+01
    -19.673  0.0000E+00  0.2000E+01
    -19.569  0.0000E+00  0.2000E+01
    -19.464  0.0000E+00  0.2000E+01
    -19.360  0.0000E+00  0.2000E+01
    -19.256  0.0000E+00  0.2000E+01
    -19.152  0.0000E+00  0.2000E+01
    -19.047  0.0000E+00  0.2000E+01
    -18.943  0.0000E+00  0.2000E+01
    -18.839  0.0000E+00  0.2000E+01
    -18.734  0.0000E+00  0.2000E+01
    -18.630  0.0000E+00  0.2000E+01
    -18.526  0.0000E+00  0.2000E+01
    -18.422  0.0000E+00  0.2000E+01
    -18.317  0.0000E+00  0.2000E+01
    -18.213  0.0000E+00  0.2000E+01
    -18.109  0.0000E+00  0.2000E+01
    -18.004  0.0000E+00  0.2000E+01
    -17.900  0.0000E+00  0.2000E+01
    -17.796  0.0000E+00  0.2000E+01
    -17.692  0.0000E+00  0.2000E+01
    -17.587  0.0000E+00  0.2000E+01
    -17.483  0.0000E+00  0.2000E+01
    -17.379  0.0000E+00  0.2000E+01
    -17.274  0.0000E+00  0.2000E+01
    -17.170  0.0000E+00  0.2000E+01
    -17.066  0.0000E+00  0.2000E+01
    -16.962  0.0000E+00  0.2000E+01
    -16.857  0.0000E+00  0.2000E+01
    -16.753  0.0000E+00  0.2000E+01
    -16.649  0.0000E+00  0.2000E+01
    -16.545  0.0000E+00  0.2000E+01
    -16.440  0.0000E+00  0.2000E+01
    -16.336  0.0000E+00  0.2000E+01
    -16.232  0.0000E+00  0.2000E+01
    -16.127  0.0000E+00  0.2000E+01
    -16.023  0.0000E+00  0.2000E+01
    -15.919  0.0000E+00  0.2000E+01
    -15.815  0.0000E+00  0.2000E+01
    -15.710  0.0000E+00  0.2000E+01
    -15.606  0.0000E+00  0.2000E+01
    -15.502  0.0000E+00  0.2000E+01
    -15.397  0.0000E+00  0.2000E+01
    -15.293  0.0000E+00  0.2000E+01
    -15.189  0.0000E+00  0.2000E+01
    -15.085  0.0000E+00  0.2000E+01
    -14.980  0.0000E+00  0.2000E+01
    -14.876  0.0000E+00  0.2000E+01
    -14.772  0.0000E+00  0.2000E+01
    -14.667  0.0000E+00  0.2000E+01
    -14.563  0.0000E+00  0.2000E+01
    -14.459  0.0000E+00  0.2000E+01
    -14.355  0.0000E+00  0.2000E+01
    -14.250  0.0000E+00  0.2000E+01
    -14.146  0.0000E+00  0.2000E+01
    -14.042  0.0000E+00  0.2000E+01
    -13.937  0.0000E+00  0.2000E+01
    -13.833  0.0000E+00  0.2000E+01
    -13.729  0.0000E+00  0.2000E+01
    -13.625  0.0000E+00  0.2000E+01
    -13.520  0.0000E+00  0.2000E+01
    -13.416  0.0000E+00  0.2000E+01
    -13.312  0.0000E+00  0.2000E+01
    -13.207  0.0000E+00  0.2000E+01
    -13.103  0.0000E+00  0.2000E+01
    -12.999  0.0000E+00  0.2000E+01
    -12.895  0.0000E+00  0.2000E+01
    -12.790  0.0000E+00  0.2000E+01
    -12.686  0.0000E+00  0.2000E+01
    -12.582  0.0000E+00  0.2000E+01
    -12.477  0.0000E+00  0.2000E+01
    -12.373  0.0000E+00  0.2000E+01
    -12.269  0.0000E+00  0.2000E+01
    -12.165  0.0000E+00  0.2000E+01
    -12.060  0.0000E+00  0.2000E+01
    -11.956  0.0000E+00  0.2000E+01
    -11.852  0.0000E+00  0.2000E+01
    -11.747  0.0000E+00  0.2000E+01
    -11.643  0.0000E+00  0.2000E+01
    -11.539  0.0000E+00  0.2000E+01
    -11.435  0.0000E+00  0.2000E+01
    -11.330  0.0000E+00  0.2000E+01
    -11.226  0.0000E+00  0.2000E+01
    -11.122  0.0000E+00  0.2000E+01
    -11.017  0.0000E+00  0.2000E+01
    -10.913  0.0000E+00  0.2000E+01
    -10.809  0.0000E+00  0.2000E+01
    -10.705  0.0000E+00  0.2000E+01
    -10.600  0.2982E-04  0.2000E+01
    -10.496  0.5753E+02  0.8000E+01
    -10.392  0.0000E+00  0.8000E+01
    -10.287  0.0000E+00  0.8000E+01
    -10.183  0.0000E+00  0.8000E+01
    -10.079  0.0000E+00  0.8000E+01
     -9.975  0.0000E+00  0.8000E+01
     -9.870  0.0000E+00  0.8000E+01
     -9.766  0.0000E+00  0.8000E+01
     -9.662  0.0000E+00  0.8000E+01
     -9.557  0.0000E+00  0.8000E+01
     -9.453  0.0000E+00  0.8000E+01
     -9.349  0.0000E+00  0.8000E+01
     -9.245  0.0000E+00  0.8000E+01
     -9.140  0.0000E+00  0.8000E+01
     -9.036  0.0000E+00  0.8000E+01
     -8.932  0.0000E+00  0.8000E+01
     -8.827  0.0000E+00  0.8000E+01
     -8.723  0.0000E+00  0.8000E+01
     -8.619  0.0000E+00  0.8000E+01
     -8.515  0.0000E+00  0.8000E+01
     -8.410  0.0000E+00  0.8000E+01
     -8.306  0.0000E+00  0.8000E+01
     -8.202  0.0000E+00  0.8000E+01
     -8.097  0.0000E+00  0.8000E+01
     -7.993  0.0000E+00  0.8000E+01
     -7.889  0.0000E+00  0.8000E+01
     -7.785  0.0000E+00  0.8000E+01
     -7.680  0.0000E+00  0.8000E+01
     -7.576  0.0000E+00  0.8000E+01
     -7.472  0.0000E+00  0.8000E+01
     -7.367  0.0000E+00  0.8000E+01
     -7.263  0.0000E+00  0.8000E+01
     -7.159  0.0000E+00  0.8000E+01
     -7.055  0.0000E+00  0.8000E+01
     -6.950  0.0000E+00  0.8000E+01
     -6.846  0.0000E+00  0.8000E+01
     -6.742  0.0000E+00  0.8000E+01
     -6.637  0.0000E+00  0.8000E+01
     -6.533  0.0000E+00  0.8000E+01
     -6.429  0.0000E+00  0.8000E+01
     -6.325  0.0000E+00  0.8000E+01
     -6.220  0.0000E+00  0.8000E+01
     -6.116  0.0000E+00  0.8000E+01
     -6.012  0.0000E+00  0.8000E+01
     -5.908  0.0000E+00  0.8000E+01
     -5.803  0.0000E+00  0.8000E+01
     -5.699  0.0000E+00  0.8000E+01
     -5.595  0.0000E+00  0.8000E+01
     -5.490  0.0000E+00  0.8000E+01
     -5.386  0.0000E+00  0.8000E+01
     -5.282  0.0000E+00  0.8000E+01
     -5.178  0.0000E+00  0.8000E+01
     -5.073  0.0000E+00  0.8000E+01
     -4.969  0.0000E+00  0.8000E+01
     -4.865  0.0000E+00  0.8000E+01
     -4.760  0.0000E+00  0.8000E+01
     -4.656  0.0000E+00  0.8000E+01
     -4.552  0.0000E+00  0.8000E+01
     -4.448  0.0000E+00  0.8000E+01
     -4.343  0.0000E+00  0.8000E+01
     -4.239  0.0000E+00  0.8000E+01
     -4.135  0.0000E+00  0.8000E+01
     -4.030  0.0000E+00  0.8000E+01
     -3.926  0.0000E+00  0.8000E+01
     -3.822  0.0000E+00  0.8000E+01
     -3.718  0.0000E+00  0.8000E+01
     -3.613  0.0000E+00  0.8000E+01
     -3.509  0.0000E+00  0.8000E+01
     -3.405  0.0000E+00  0.8000E+01
     -3.300  0.0000E+00  0.8000E+01
     -3.196  0.0000E+00  0.8000E+01
     -3.092  0.0000E+00  0.8000E+01
     -2.988  0.0000E+00  0.8000E+01
     -2.883  0.0000E+00  0.8000E+01
     -2.779  0.0000E+00  0.8000E+01
     -2.675  0.0000E+00  0.8000E+01
     -2.570  0.0000E+00  0.8000E+01
     -2.466  0.0000E+00  0.8000E+01
     -2.362  0.0000E+00  0.8000E+01
     -2.258  0.0000E+00  0.8000E+01
     -2.153  0.0000E+00  0.8000E+01
     -2.049  0.0000E+00  0.8000E+01
     -1.945  0.0000E+00  0.8000E+01
     -1.840  0.0000E+00  0.8000E+01
     -1.736  0.0000E+00  0.8000E+01
     -1.632  0.0000E+00  0.8000E+01
     -1.528  0.0000E+00  0.8000E+01
     -1.423  0.0000E+00  0.8000E+01
     -1.319  0.0000E+00  0.8000E+01
     -1.215  0.0000E+00  0.8000E+01
     -1.110  0.0000E+00  0.8000E+01
     -1.006  0.0000E+00  0.8000E+01
     -0.902  0.0000E+00  0.8000E+01
     -0.798  0.0000E+00  0.8000E+01
     -0.693  0.0000E+00  0.8000E+01
     -0.589  0.1917E+02  0.9999E+01
     -0.485  0.0000E+00  0.1000E+02
     -0.380  0.0000E+00  0.1000E+02
     -0.276  0.0000E+00  0.1000E+02
     -0.172  0.0000E+00  0.1000E+02
     -0.068  0.0000E+00  0.1000E+02
      0.037  0.0000E+00  0.1000E+02
      0.141  0.0000E+00  0.1000E+02
      0.245  0.0000E+00  0.1000E+02
      0.350  0.1911E+02  0.1199E+02
      0.454  0.0000E+00  0.1200E+02
      0.558  0.1571E-05  0.1200E+02
      0.662  0.3836E+02  0.1600E+02
      0.767  0.0000E+00  0.1600E+02
      0.871  0.0000E+00  0.1600E+02
      0.975  0.0000E+00  0.1600E+02
      1.080  0.0000E+00  0.1600E+02
      1.184  0.0000E+00  0.1600E+02
      1.288  0.0000E+00  0.1600E+02
      1.392  0.0000E+00  0.1600E+02
      1.497  0.0000E+00  0.1600E+02
      1.601  0.0000E+00  0.1600E+02
      1.705  0.0000E+00  0.1600E+02
      1.810  0.0000E+00  0.1600E+02
      1.914  0.0000E+00  0.1600E+02
      2.018  0.0000E+00  0.1600E+02
