       N       E                     dE             d eps       ncg     rms          rms(c)
DAV:   1     0.283091813147E+02    0.28309E+02   -0.10706E+03    32   0.133E+02
DAV:   2    -0.396111537707E+01   -0.32270E+02   -0.32270E+02    24   0.813E+01
DAV:   3    -0.544633912925E+01   -0.14852E+01   -0.14852E+01    16   0.175E+01
DAV:   4    -0.545442114916E+01   -0.80820E-02   -0.80820E-02    32   0.130E+00
DAV:   5    -0.545442202126E+01   -0.87210E-06   -0.87210E-06    16   0.143E-02    0.878E+00
DAV:   6    -0.292690131737E+01    0.25275E+01   -0.37242E+00    16   0.111E+01    0.420E+00
DAV:   7    -0.266171558445E+01    0.26519E+00   -0.17368E+00    16   0.799E+00    0.915E-01
DAV:   8    -0.271789611281E+01   -0.56181E-01   -0.17004E-02    16   0.909E-01    0.224E-01
DAV:   9    -0.271624476191E+01    0.16514E-02   -0.80204E-03    16   0.515E-01    0.217E-02
DAV:  10    -0.271757553463E+01   -0.13308E-02   -0.18070E-04    16   0.103E-01    0.256E-02
DAV:  11    -0.271831676884E+01   -0.74123E-03   -0.18088E-04    16   0.669E-02    0.114E-02
DAV:  12    -0.271919446642E+01   -0.87770E-03   -0.11906E-04    16   0.655E-02    0.618E-03
DAV:  13    -0.271947220964E+01   -0.27774E-03   -0.33342E-05    16   0.358E-02    0.556E-03
DAV:  14    -0.271954955588E+01   -0.77346E-04   -0.62573E-06    16   0.181E-02
   1 F= -.27195496E+01 E0= -.27195496E+01  d E =-.227483E-41
