<?xml version="1.0" encoding="ISO-8859-1"?>
<modeling>
 <generator>
  <i name="program" type="string">vasp </i>
  <i name="version" type="string">5.4.1  </i>
  <i name="subversion" type="string">05Feb16 (build Feb 08 2018 09:21:51) complex                          parallel </i>
  <i name="platform" type="string">LinuxIFC </i>
  <i name="date" type="string">2019 11 07 </i>
  <i name="time" type="string">19:59:30 </i>
 </generator>
 <incar>
  <i type="string" name="PREC">normal</i>
  <i name="ENCUT">    100.00000000</i>
  <i type="int" name="ISMEAR">     0</i>
  <i name="SIGMA">      0.01000000</i>
  <i type="logical" name="LWAVE"> F  </i>
  <i type="logical" name="LCHARG"> F  </i>
  <v type="int" name="KPOINT_BSE">    -1     0     0     0</v>
 </incar>
 <kpoints>
  <generation param="Monkhorst-Pack">
   <v type="int" name="divisions">       1        1        1 </v>
   <v name="usershift">      0.00000000       0.00000000       0.00000000 </v>
   <v name="genvec1">      1.00000000       0.00000000       0.00000000 </v>
   <v name="genvec2">      0.00000000       1.00000000       0.00000000 </v>
   <v name="genvec3">      0.00000000       0.00000000       1.00000000 </v>
   <v name="shift">      0.00000000       0.00000000       0.00000000 </v>
  </generation>
  <varray name="kpointlist" >
   <v>       0.00000000       0.00000000       0.00000000 </v>
  </varray>
  <varray name="weights" >
   <v>       1.00000000 </v>
  </varray>
 </kpoints>
 <parameters>
  <separator name="general" >
   <i type="string" name="SYSTEM">unknown system</i>
   <i type="logical" name="LCOMPAT"> F  </i>
  </separator>
  <separator name="electronic" >
   <i type="string" name="PREC">normal</i>
   <i name="ENMAX">    100.00000000</i>
   <i name="ENAUG">    482.93000000</i>
   <i name="EDIFF">      0.00010000</i>
   <i type="int" name="IALGO">    38</i>
   <i type="int" name="IWAVPR">    10</i>
   <i type="int" name="NBANDS">     8</i>
   <i name="NELECT">      8.00000000</i>
   <i type="int" name="TURBO">     0</i>
   <i type="int" name="IRESTART">     0</i>
   <i type="int" name="NREBOOT">     0</i>
   <i type="int" name="NMIN">     0</i>
   <i name="EREF">      0.00000000</i>
   <separator name="electronic smearing" >
    <i type="int" name="ISMEAR">     0</i>
    <i name="SIGMA">      0.01000000</i>
    <i name="KSPACING">      0.50000000</i>
    <i type="logical" name="KGAMMA"> T  </i>
   </separator>
   <separator name="electronic projectors" >
    <i type="logical" name="LREAL"> F  </i>
    <v name="ROPT">      0.00000000</v>
    <i type="int" name="LMAXPAW">  -100</i>
    <i type="int" name="LMAXMIX">     2</i>
    <i type="logical" name="NLSPLINE"> F  </i>
   </separator>
   <separator name="electronic startup" >
    <i type="int" name="ISTART">     0</i>
    <i type="int" name="ICHARG">     2</i>
    <i type="int" name="INIWAV">     1</i>
   </separator>
   <separator name="electronic spin" >
    <i type="int" name="ISPIN">     1</i>
    <i type="logical" name="LNONCOLLINEAR"> F  </i>
    <v name="MAGMOM">      1.00000000</v>
    <i name="NUPDOWN">     -1.00000000</i>
    <i type="logical" name="LSORBIT"> F  </i>
    <v name="SAXIS">      0.00000000      0.00000000      1.00000000</v>
    <i type="logical" name="LSPIRAL"> F  </i>
    <v name="QSPIRAL">      0.00000000      0.00000000      0.00000000</v>
    <i type="logical" name="LZEROZ"> F  </i>
   </separator>
   <separator name="electronic exchange-correlation" >
    <i type="logical" name="LASPH"> F  </i>
    <i type="logical" name="LMETAGGA"> F  </i>
   </separator>
   <separator name="electronic convergence" >
    <i type="int" name="NELM">    60</i>
    <i type="int" name="NELMDL">    -5</i>
    <i type="int" name="NELMIN">     2</i>
    <i name="ENINI">    100.00000000</i>
    <separator name="electronic convergence detail" >
     <i type="logical" name="LDIAG"> T  </i>
     <i type="logical" name="LSUBROT"> F  </i>
     <i name="WEIMIN">      0.00000000</i>
     <i name="EBREAK">      0.00000313</i>
     <i name="DEPER">      0.30000000</i>
     <i type="int" name="NRMM">     4</i>
     <i name="TIME">      0.40000000</i>
    </separator>
   </separator>
   <separator name="electronic mixer" >
    <i name="AMIX">      0.40000000</i>
    <i name="BMIX">      1.00000000</i>
    <i name="AMIN">      0.10000000</i>
    <i name="AMIX_MAG">      1.60000000</i>
    <i name="BMIX_MAG">      1.00000000</i>
    <separator name="electronic mixer details" >
     <i type="int" name="IMIX">     4</i>
     <i type="logical" name="MIXFIRST"> F  </i>
     <i type="int" name="MAXMIX">   -45</i>
     <i name="WC">    100.00000000</i>
     <i type="int" name="INIMIX">     1</i>
     <i type="int" name="MIXPRE">     1</i>
     <i type="int" name="MREMOVE">     5</i>
    </separator>
   </separator>
   <separator name="electronic dipolcorrection" >
    <i type="logical" name="LDIPOL"> F  </i>
    <i type="logical" name="LMONO"> F  </i>
    <i type="int" name="IDIPOL">     0</i>
    <i name="EPSILON">      1.00000000</i>
    <v name="DIPOL">   -100.00000000   -100.00000000   -100.00000000</v>
    <i name="EFIELD">      0.00000000</i>
   </separator>
  </separator>
  <separator name="grids" >
   <i type="int" name="NGX">    30</i>
   <i type="int" name="NGY">    30</i>
   <i type="int" name="NGZ">    30</i>
   <i type="int" name="NGXF">    60</i>
   <i type="int" name="NGYF">    60</i>
   <i type="int" name="NGZF">    60</i>
   <i type="logical" name="ADDGRID"> F  </i>
  </separator>
  <separator name="ionic" >
   <i type="int" name="NSW">     0</i>
   <i type="int" name="IBRION">    -1</i>
   <i type="int" name="ISIF">     2</i>
   <i name="PSTRESS">      0.00000000</i>
   <i name="EDIFFG">      0.00100000</i>
   <i type="int" name="NFREE">     0</i>
   <i name="POTIM">      0.50000000</i>
   <i name="SMASS">     -3.00000000</i>
   <i name="SCALEE">      1.00000000</i>
  </separator>
  <separator name="ionic md" >
   <i name="TEBEG">      0.00010000</i>
   <i name="TEEND">      0.00010000</i>
   <i type="int" name="NBLOCK">     1</i>
   <i type="int" name="KBLOCK">     1</i>
   <i type="int" name="NPACO">   256</i>
   <i name="APACO">     16.00000000</i>
  </separator>
  <separator name="symmetry" >
   <i type="int" name="ISYM">     2</i>
   <i name="SYMPREC">      0.00001000</i>
  </separator>
  <separator name="dos" >
   <i type="logical" name="LORBIT"> F  </i>
   <v name="RWIGS">     -1.00000000</v>
   <i type="int" name="NEDOS">   301</i>
   <i name="EMIN">     10.00000000</i>
   <i name="EMAX">    -10.00000000</i>
   <i name="EFERMI">      0.00000000</i>
  </separator>
  <separator name="writing" >
   <i type="int" name="NWRITE">     2</i>
   <i type="logical" name="LWAVE"> F  </i>
   <i type="logical" name="LCHARG"> F  </i>
   <i type="logical" name="LPARD"> F  </i>
   <i type="logical" name="LVTOT"> F  </i>
   <i type="logical" name="LVHAR"> F  </i>
   <i type="logical" name="LELF"> F  </i>
   <i type="logical" name="LOPTICS"> F  </i>
   <v name="STM">      0.00000000      0.00000000      0.00000000      0.00000000      0.00000000      0.00000000      0.00000000</v>
  </separator>
  <separator name="performance" >
   <i type="int" name="NPAR">     8</i>
   <i type="int" name="NSIM">     4</i>
   <i type="int" name="NBLK">    -1</i>
   <i type="logical" name="LPLANE"> T  </i>
   <i type="logical" name="LSCALAPACK"> F  </i>
   <i type="logical" name="LSCAAWARE"> F  </i>
   <i type="logical" name="LSCALU"> F  </i>
   <i type="logical" name="LASYNC"> F  </i>
   <i type="logical" name="LORBITALREAL"> F  </i>
  </separator>
  <separator name="miscellaneous" >
   <i type="int" name="IDIOT">     3</i>
   <i type="logical" name="LMUSIC"> F  </i>
   <v name="POMASS">     39.94900000</v>
   <v name="DARWINR">      0.00000000</v>
   <v name="DARWINV">      1.00000000</v>
   <i type="logical" name="LCORR"> T  </i>
  </separator>
  <i type="logical" name="GGA_COMPAT"> T  </i>
  <i type="logical" name="LBERRY"> F  </i>
  <i type="int" name="ICORELEVEL">     0</i>
  <i type="logical" name="LDAU"> F  </i>
  <i type="int" name="I_CONSTRAINED_M">     0</i>
  <separator name="electronic exchange-correlation" >
   <i type="string" name="GGA">--</i>
   <i type="int" name="VOSKOWN">     0</i>
   <i type="logical" name="LHFCALC"> F  </i>
   <i type="string" name="PRECFOCK"></i>
   <i type="logical" name="LSYMGRAD"> F  </i>
   <i type="logical" name="LHFONE"> F  </i>
   <i type="logical" name="LRHFCALC"> F  </i>
   <i type="logical" name="LTHOMAS"> F  </i>
   <i type="logical" name="LMODELHF"> F  </i>
   <i name="ENCUT4O">     -1.00000000</i>
   <i type="int" name="EXXOEP">     0</i>
   <i type="int" name="FOURORBIT">     0</i>
   <i name="AEXX">      0.00000000</i>
   <i name="HFALPHA">      0.00000000</i>
   <i name="MCALPHA">      0.00000000</i>
   <i name="ALDAX">      1.00000000</i>
   <i name="AGGAX">      1.00000000</i>
   <i name="ALDAC">      1.00000000</i>
   <i name="AGGAC">      1.00000000</i>
   <i type="int" name="NKREDX">     1</i>
   <i type="int" name="NKREDY">     1</i>
   <i type="int" name="NKREDZ">     1</i>
   <i type="logical" name="SHIFTRED"> F  </i>
   <i type="logical" name="ODDONLY"> F  </i>
   <i type="logical" name="EVENONLY"> F  </i>
   <i type="int" name="LMAXFOCK">     0</i>
   <i type="int" name="NMAXFOCKAE">     0</i>
   <i type="logical" name="LFOCKAEDFT"> F  </i>
   <i name="HFSCREEN">      0.00000000</i>
   <i name="HFSCREENC">      0.00000000</i>
   <i type="int" name="NBANDSGWLOW">     0</i>
  </separator>
  <separator name="vdW DFT" >
   <i type="logical" name="LUSE_VDW"> F  </i>
   <i name="Zab_VDW">     -0.84910000</i>
   <i name="PARAM1">      0.12340000</i>
   <i name="PARAM2">      1.00000000</i>
   <i name="PARAM3">      0.00000000</i>
  </separator>
  <separator name="model GW" >
   <i type="int" name="MODEL_GW">     0</i>
   <i name="MODEL_EPS0">   1036.80000000</i>
   <i name="MODEL_ALPHA">      1.00000000</i>
  </separator>
  <separator name="linear response parameters" >
   <i type="logical" name="LEPSILON"> F  </i>
   <i type="logical" name="LRPA"> F  </i>
   <i type="logical" name="LNABLA"> F  </i>
   <i type="logical" name="LVEL"> F  </i>
   <i type="int" name="KINTER">     0</i>
   <i name="CSHIFT">      0.10000000</i>
   <i name="OMEGAMAX">     -1.00000000</i>
   <i name="DEG_THRESHOLD">      0.00200000</i>
  </separator>
  <separator name="orbital magnetization" >
   <i type="logical" name="NUCIND"> F  </i>
   <v name="MAGPOS">      0.00000000      0.00000000      0.00000000</v>
   <i type="logical" name="LNICSALL"> T  </i>
   <i type="logical" name="ORBITALMAG"> F  </i>
   <i type="logical" name="LMAGBLOCH"> F  </i>
   <i type="logical" name="LCHIMAG"> F  </i>
   <i type="logical" name="LGAUGE"> T  </i>
   <i type="int" name="MAGATOM">     0</i>
   <v name="MAGDIPOL">      0.00000000      0.00000000      0.00000000</v>
   <v name="AVECCONST">      0.00000000      0.00000000      0.00000000</v>
  </separator>
  <separator name="response functions" >
   <i type="logical" name="LADDER"> F  </i>
   <i type="logical" name="LFXC"> F  </i>
   <i type="logical" name="LHARTREE"> T  </i>
   <i type="int" name="IBSE">     0</i>
   <v type="int" name="KPOINT">    -1     0     0     0</v>
   <i type="logical" name="LTCTE"> F  </i>
   <i type="logical" name="LTETE"> F  </i>
   <i type="logical" name="LTRIPLET"> F  </i>
   <i type="logical" name="LFXCEPS"> F  </i>
   <i type="logical" name="LFXHEG"> F  </i>
   <i type="int" name="NATURALO">     0</i>
   <i type="logical" name="L2ORDER"> F  </i>
   <i type="logical" name="LUSEW"> F  </i>
   <i name="ENCUTGW">     -2.00000000</i>
   <i name="ENCUTGWSOFT">     -2.00000000</i>
   <i name="ENCUTLF">     -1.00000000</i>
   <i type="int" name="LMAXMP2">    -1</i>
   <i name="SCISSOR">      0.00000000</i>
   <i type="int" name="NOMEGA">     0</i>
   <i type="int" name="NOMEGAR">     0</i>
   <i type="int" name="NBANDSGW">    -1</i>
   <i type="int" name="NBANDSO">    -1</i>
   <i type="int" name="NBANDSV">    -1</i>
   <i type="int" name="NELM">     1</i>
   <i type="int" name="NELMHF">     1</i>
   <i type="int" name="DIM">     3</i>
   <i type="int" name="ANTIRES">     0</i>
   <i name="OMEGAMAX">    -30.00000000</i>
   <i name="OMEGAMIN">    -30.00000000</i>
   <i name="OMEGATL">   -200.00000000</i>
   <i type="int" name="OMEGAGRID">     0</i>
   <i name="CSHIFT">     -0.10000000</i>
   <i type="logical" name="SELFENERGY"> F  </i>
   <i type="logical" name="LSPECTRAL"> F  </i>
   <i type="logical" name="LSPECTRALGW"> F  </i>
   <i type="logical" name="LSINGLES"> F  </i>
   <i type="logical" name="LFERMIGW"> F  </i>
   <i type="logical" name="ODDONLYGW"> F  </i>
   <i type="logical" name="EVENONLYGW"> F  </i>
   <i type="int" name="NKREDLFX">     1</i>
   <i type="int" name="NKREDLFY">     1</i>
   <i type="int" name="NKREDLFZ">     1</i>
   <i type="int" name="MAXMEM">  1800</i>
   <i type="int" name="TELESCOPE">     0</i>
   <i type="int" name="TAUPAR">     1</i>
   <i type="int" name="OMEGAPAR">    -1</i>
   <i name="LAMBDA">      1.00000000</i>
  </separator>
  <separator name="External order field" >
   <i name="OFIELD_KAPPA">      0.00000000</i>
   <v name="OFIELD_K">      0.00000000      0.00000000      0.00000000</v>
   <i name="OFIELD_Q6_NEAR">      0.00000000</i>
   <i name="OFIELD_Q6_FAR">      0.00000000</i>
   <i name="OFIELD_A">      0.00000000</i>
  </separator>
 </parameters>
 <atominfo>
  <atoms>       1 </atoms>
  <types>       1 </types>
  <array name="atoms" >
   <dimension dim="1">ion</dimension>
   <field type="string">element</field>
   <field type="int">atomtype</field>
   <set>
    <rc><c>Ar</c><c>   1</c></rc>
   </set>
  </array>
  <array name="atomtypes" >
   <dimension dim="1">type</dimension>
   <field type="int">atomspertype</field>
   <field type="string">element</field>
   <field>mass</field>
   <field>valence</field>
   <field type="string">pseudopotential</field>
   <set>
    <rc><c>   1</c><c>Ar</c><c>     39.94900000</c><c>      8.00000000</c><c>  PAW_PBE Ar 07Sep2000                  </c></rc>
   </set>
  </array>
 </atominfo>
 <structure name="initialpos" >
  <crystal>
   <varray name="basis" >
    <v>      12.00000000       0.00000000       0.00000000 </v>
    <v>       0.00000000      12.00000000       0.00000000 </v>
    <v>       0.00000000       0.00000000      12.00000000 </v>
   </varray>
   <i name="volume">   1728.00000000 </i>
   <varray name="rec_basis" >
    <v>       0.08333333       0.00000000       0.00000000 </v>
    <v>       0.00000000       0.08333333       0.00000000 </v>
    <v>       0.00000000       0.00000000       0.08333333 </v>
   </varray>
  </crystal>
  <varray name="positions" >
   <v>       0.50000000       0.50000000       0.50000000 </v>
  </varray>
 </structure>
 <calculation>
  <scstep>
   <time name="dav">    0.01    0.01</time>
   <time name="total">    0.03    0.04</time>
   <energy>
    <i name="alphaZ">      0.08552978 </i>
    <i name="ewald">   -108.95061336 </i>
    <i name="hartreedc">   -385.56052699 </i>
    <i name="XCdc">     29.15780960 </i>
    <i name="pawpsdc">    464.39213177 </i>
    <i name="pawaedc">   -468.88429268 </i>
    <i name="eentropy">     -0.00000000 </i>
    <i name="bandstr">    -60.74537481 </i>
    <i name="atom">    558.81451801 </i>
    <i name="e_fr_energy">     28.30918131 </i>
    <i name="e_wo_entrp">     28.30918131 </i>
    <i name="e_0_energy">     28.30918131 </i>
   </energy>
  </scstep>
  <scstep>
   <time name="dav">    0.01    0.01</time>
   <time name="total">    0.01    0.01</time>
   <energy>
    <i name="e_fr_energy">     -3.96111538 </i>
    <i name="e_wo_entrp">     -3.96111538 </i>
    <i name="e_0_energy">     -3.96111538 </i>
   </energy>
  </scstep>
  <scstep>
   <time name="dav">    0.00    0.00</time>
   <time name="total">    0.01    0.01</time>
   <energy>
    <i name="e_fr_energy">     -5.44633913 </i>
    <i name="e_wo_entrp">     -5.44633913 </i>
    <i name="e_0_energy">     -5.44633913 </i>
   </energy>
  </scstep>
  <scstep>
   <time name="dav">    0.01    0.01</time>
   <time name="total">    0.01    0.01</time>
   <energy>
    <i name="e_fr_energy">     -5.45442115 </i>
    <i name="e_wo_entrp">     -5.45442115 </i>
    <i name="e_0_energy">     -5.45442115 </i>
   </energy>
  </scstep>
  <scstep>
   <time name="dav">    0.00    0.00</time>
   <time name="total">    0.01    0.02</time>
   <energy>
    <i name="e_fr_energy">     -5.45442202 </i>
    <i name="e_wo_entrp">     -5.45442202 </i>
    <i name="e_0_energy">     -5.45442202 </i>
   </energy>
  </scstep>
  <scstep>
   <time name="dav">    0.01    0.01</time>
   <time name="total">    0.03    0.03</time>
   <energy>
    <i name="e_fr_energy">     -2.92690132 </i>
    <i name="e_wo_entrp">     -2.92690132 </i>
    <i name="e_0_energy">     -2.92690132 </i>
   </energy>
  </scstep>
  <scstep>
   <time name="dav">    0.01    0.01</time>
   <time name="total">    0.03    0.03</time>
   <energy>
    <i name="e_fr_energy">     -2.66171558 </i>
    <i name="e_wo_entrp">     -2.66171558 </i>
    <i name="e_0_energy">     -2.66171558 </i>
   </energy>
  </scstep>
  <scstep>
   <time name="dav">    0.01    0.01</time>
   <time name="total">    0.02    0.03</time>
   <energy>
    <i name="e_fr_energy">     -2.71789611 </i>
    <i name="e_wo_entrp">     -2.71789611 </i>
    <i name="e_0_energy">     -2.71789611 </i>
   </energy>
  </scstep>
  <scstep>
   <time name="dav">    0.01    0.01</time>
   <time name="total">    0.03    0.03</time>
   <energy>
    <i name="e_fr_energy">     -2.71624476 </i>
    <i name="e_wo_entrp">     -2.71624476 </i>
    <i name="e_0_energy">     -2.71624476 </i>
   </energy>
  </scstep>
  <scstep>
   <time name="dav">    0.01    0.01</time>
   <time name="total">    0.03    0.03</time>
   <energy>
    <i name="e_fr_energy">     -2.71757553 </i>
    <i name="e_wo_entrp">     -2.71757553 </i>
    <i name="e_0_energy">     -2.71757553 </i>
   </energy>
  </scstep>
  <scstep>
   <time name="dav">    0.01    0.01</time>
   <time name="total">    0.03    0.03</time>
   <energy>
    <i name="e_fr_energy">     -2.71831677 </i>
    <i name="e_wo_entrp">     -2.71831677 </i>
    <i name="e_0_energy">     -2.71831677 </i>
   </energy>
  </scstep>
  <scstep>
   <time name="dav">    0.01    0.01</time>
   <time name="total">    0.03    0.04</time>
   <energy>
    <i name="e_fr_energy">     -2.71919447 </i>
    <i name="e_wo_entrp">     -2.71919447 </i>
    <i name="e_0_energy">     -2.71919447 </i>
   </energy>
  </scstep>
  <scstep>
   <time name="dav">    0.01    0.01</time>
   <time name="total">    0.03    0.03</time>
   <energy>
    <i name="e_fr_energy">     -2.71947221 </i>
    <i name="e_wo_entrp">     -2.71947221 </i>
    <i name="e_0_energy">     -2.71947221 </i>
   </energy>
  </scstep>
  <scstep>
   <time name="dav">    0.01    0.01</time>
   <time name="total">    0.02    0.03</time>
   <energy>
    <i name="alphaZ">      0.08552978 </i>
    <i name="ewald">   -108.95061336 </i>
    <i name="hartreedc">   -358.96281891 </i>
    <i name="XCdc">     28.10164080 </i>
    <i name="pawpsdc">    245.43871473 </i>
    <i name="pawaedc">   -248.16166009 </i>
    <i name="eentropy">     -0.00000000 </i>
    <i name="bandstr">   -119.08486051 </i>
    <i name="atom">    558.81451801 </i>
    <i name="e_fr_energy">     -2.71954956 </i>
    <i name="e_wo_entrp">     -2.71954956 </i>
    <i name="e_0_energy">     -2.71954956 </i>
   </energy>
  </scstep>
  <structure>
   <crystal>
    <varray name="basis" >
     <v>      12.00000000       0.00000000       0.00000000 </v>
     <v>       0.00000000      12.00000000       0.00000000 </v>
     <v>       0.00000000       0.00000000      12.00000000 </v>
    </varray>
    <i name="volume">   1728.00000000 </i>
    <varray name="rec_basis" >
     <v>       0.08333333       0.00000000       0.00000000 </v>
     <v>       0.00000000       0.08333333       0.00000000 </v>
     <v>       0.00000000       0.00000000       0.08333333 </v>
    </varray>
   </crystal>
   <varray name="positions" >
    <v>       0.50000000       0.50000000       0.50000000 </v>
   </varray>
  </structure>
  <varray name="forces" >
   <v>       0.00000000       0.00000000       0.00000000 </v>
  </varray>
  <varray name="stress" >
   <v>     -29.76501909      -0.00000000       0.00000000 </v>
   <v>      -0.00000000     -29.76501909      -0.00000000 </v>
   <v>      -0.00000000      -0.00000000     -29.76501909 </v>
  </varray>
  <energy>
   <i name="e_fr_energy">     -2.71954956 </i>
   <i name="e_wo_entrp">     -2.71954956 </i>
   <i name="e_0_energy">     -0.00000000 </i>
  </energy>
  <time name="totalsc">    0.36    0.43</time>
  <eigenvalues>
   <array>
    <dimension dim="1">band</dimension>
    <dimension dim="2">kpoint</dimension>
    <dimension dim="3">spin</dimension>
    <field>eigene</field>
    <field>occ</field>
    <set>
     <set comment="spin 1">
      <set comment="kpoint 1">
       <r>  -27.8451    1.0000 </r>
       <r>  -10.5658    1.0000 </r>
       <r>  -10.5658    1.0000 </r>
       <r>  -10.5658    1.0000 </r>
       <r>   -0.6124    0.0000 </r>
       <r>    0.3306    0.0000 </r>
       <r>    0.5960    0.0000 </r>
       <r>    0.5960    0.0000 </r>
      </set>
     </set>
    </set>
   </array>
  </eigenvalues>
  <separator name="orbital magnetization" >
   <v name="MAGDIPOLOUT">      0.00000000      0.00000000      0.00000000</v>
  </separator>
  <dos>
   <i name="efermi">    -10.46994753 </i>
   <total>
    <array>
     <dimension dim="1">gridpoints</dimension>
     <dimension dim="2">spin</dimension>
     <field>energy</field>
     <field>total</field>
     <field>integrated</field>
     <set>
      <set comment="spin 1">
       <r>   -29.2672     0.0000     0.0000 </r>
       <r>   -29.1629     0.0000     0.0000 </r>
       <r>   -29.0586     0.0000     0.0000 </r>
       <r>   -28.9543     0.0000     0.0000 </r>
       <r>   -28.8501     0.0000     0.0000 </r>
       <r>   -28.7458     0.0000     0.0000 </r>
       <r>   -28.6415     0.0000     0.0000 </r>
       <r>   -28.5372     0.0000     0.0000 </r>
       <r>   -28.4329     0.0000     0.0000 </r>
       <r>   -28.3286     0.0000     0.0000 </r>
       <r>   -28.2244     0.0000     0.0000 </r>
       <r>   -28.1201     0.0000     0.0000 </r>
       <r>   -28.0158     0.0000     0.0000 </r>
       <r>   -27.9115     0.0000     0.0000 </r>
       <r>   -27.8072    19.1783     2.0000 </r>
       <r>   -27.7029     0.0000     2.0000 </r>
       <r>   -27.5986     0.0000     2.0000 </r>
       <r>   -27.4944     0.0000     2.0000 </r>
       <r>   -27.3901     0.0000     2.0000 </r>
       <r>   -27.2858     0.0000     2.0000 </r>
       <r>   -27.1815     0.0000     2.0000 </r>
       <r>   -27.0772     0.0000     2.0000 </r>
       <r>   -26.9729     0.0000     2.0000 </r>
       <r>   -26.8687     0.0000     2.0000 </r>
       <r>   -26.7644     0.0000     2.0000 </r>
       <r>   -26.6601     0.0000     2.0000 </r>
       <r>   -26.5558     0.0000     2.0000 </r>
       <r>   -26.4515     0.0000     2.0000 </r>
       <r>   -26.3472     0.0000     2.0000 </r>
       <r>   -26.2430     0.0000     2.0000 </r>
       <r>   -26.1387     0.0000     2.0000 </r>
       <r>   -26.0344     0.0000     2.0000 </r>
       <r>   -25.9301     0.0000     2.0000 </r>
       <r>   -25.8258     0.0000     2.0000 </r>
       <r>   -25.7215     0.0000     2.0000 </r>
       <r>   -25.6172     0.0000     2.0000 </r>
       <r>   -25.5130     0.0000     2.0000 </r>
       <r>   -25.4087     0.0000     2.0000 </r>
       <r>   -25.3044     0.0000     2.0000 </r>
       <r>   -25.2001     0.0000     2.0000 </r>
       <r>   -25.0958     0.0000     2.0000 </r>
       <r>   -24.9915     0.0000     2.0000 </r>
       <r>   -24.8873     0.0000     2.0000 </r>
       <r>   -24.7830     0.0000     2.0000 </r>
       <r>   -24.6787     0.0000     2.0000 </r>
       <r>   -24.5744     0.0000     2.0000 </r>
       <r>   -24.4701     0.0000     2.0000 </r>
       <r>   -24.3658     0.0000     2.0000 </r>
       <r>   -24.2615     0.0000     2.0000 </r>
       <r>   -24.1573     0.0000     2.0000 </r>
       <r>   -24.0530     0.0000     2.0000 </r>
       <r>   -23.9487     0.0000     2.0000 </r>
       <r>   -23.8444     0.0000     2.0000 </r>
       <r>   -23.7401     0.0000     2.0000 </r>
       <r>   -23.6358     0.0000     2.0000 </r>
       <r>   -23.5316     0.0000     2.0000 </r>
       <r>   -23.4273     0.0000     2.0000 </r>
       <r>   -23.3230     0.0000     2.0000 </r>
       <r>   -23.2187     0.0000     2.0000 </r>
       <r>   -23.1144     0.0000     2.0000 </r>
       <r>   -23.0101     0.0000     2.0000 </r>
       <r>   -22.9059     0.0000     2.0000 </r>
       <r>   -22.8016     0.0000     2.0000 </r>
       <r>   -22.6973     0.0000     2.0000 </r>
       <r>   -22.5930     0.0000     2.0000 </r>
       <r>   -22.4887     0.0000     2.0000 </r>
       <r>   -22.3844     0.0000     2.0000 </r>
       <r>   -22.2801     0.0000     2.0000 </r>
       <r>   -22.1759     0.0000     2.0000 </r>
       <r>   -22.0716     0.0000     2.0000 </r>
       <r>   -21.9673     0.0000     2.0000 </r>
       <r>   -21.8630     0.0000     2.0000 </r>
       <r>   -21.7587     0.0000     2.0000 </r>
       <r>   -21.6544     0.0000     2.0000 </r>
       <r>   -21.5502     0.0000     2.0000 </r>
       <r>   -21.4459     0.0000     2.0000 </r>
       <r>   -21.3416     0.0000     2.0000 </r>
       <r>   -21.2373     0.0000     2.0000 </r>
       <r>   -21.1330     0.0000     2.0000 </r>
       <r>   -21.0287     0.0000     2.0000 </r>
       <r>   -20.9245     0.0000     2.0000 </r>
       <r>   -20.8202     0.0000     2.0000 </r>
       <r>   -20.7159     0.0000     2.0000 </r>
       <r>   -20.6116     0.0000     2.0000 </r>
       <r>   -20.5073     0.0000     2.0000 </r>
       <r>   -20.4030     0.0000     2.0000 </r>
       <r>   -20.2987     0.0000     2.0000 </r>
       <r>   -20.1945     0.0000     2.0000 </r>
       <r>   -20.0902     0.0000     2.0000 </r>
       <r>   -19.9859     0.0000     2.0000 </r>
       <r>   -19.8816     0.0000     2.0000 </r>
       <r>   -19.7773     0.0000     2.0000 </r>
       <r>   -19.6730     0.0000     2.0000 </r>
       <r>   -19.5688     0.0000     2.0000 </r>
       <r>   -19.4645     0.0000     2.0000 </r>
       <r>   -19.3602     0.0000     2.0000 </r>
       <r>   -19.2559     0.0000     2.0000 </r>
       <r>   -19.1516     0.0000     2.0000 </r>
       <r>   -19.0473     0.0000     2.0000 </r>
       <r>   -18.9430     0.0000     2.0000 </r>
       <r>   -18.8388     0.0000     2.0000 </r>
       <r>   -18.7345     0.0000     2.0000 </r>
       <r>   -18.6302     0.0000     2.0000 </r>
       <r>   -18.5259     0.0000     2.0000 </r>
       <r>   -18.4216     0.0000     2.0000 </r>
       <r>   -18.3173     0.0000     2.0000 </r>
       <r>   -18.2131     0.0000     2.0000 </r>
       <r>   -18.1088     0.0000     2.0000 </r>
       <r>   -18.0045     0.0000     2.0000 </r>
       <r>   -17.9002     0.0000     2.0000 </r>
       <r>   -17.7959     0.0000     2.0000 </r>
       <r>   -17.6916     0.0000     2.0000 </r>
       <r>   -17.5874     0.0000     2.0000 </r>
       <r>   -17.4831     0.0000     2.0000 </r>
       <r>   -17.3788     0.0000     2.0000 </r>
       <r>   -17.2745     0.0000     2.0000 </r>
       <r>   -17.1702     0.0000     2.0000 </r>
       <r>   -17.0659     0.0000     2.0000 </r>
       <r>   -16.9616     0.0000     2.0000 </r>
       <r>   -16.8574     0.0000     2.0000 </r>
       <r>   -16.7531     0.0000     2.0000 </r>
       <r>   -16.6488     0.0000     2.0000 </r>
       <r>   -16.5445     0.0000     2.0000 </r>
       <r>   -16.4402     0.0000     2.0000 </r>
       <r>   -16.3359     0.0000     2.0000 </r>
       <r>   -16.2317     0.0000     2.0000 </r>
       <r>   -16.1274     0.0000     2.0000 </r>
       <r>   -16.0231     0.0000     2.0000 </r>
       <r>   -15.9188     0.0000     2.0000 </r>
       <r>   -15.8145     0.0000     2.0000 </r>
       <r>   -15.7102     0.0000     2.0000 </r>
       <r>   -15.6060     0.0000     2.0000 </r>
       <r>   -15.5017     0.0000     2.0000 </r>
       <r>   -15.3974     0.0000     2.0000 </r>
       <r>   -15.2931     0.0000     2.0000 </r>
       <r>   -15.1888     0.0000     2.0000 </r>
       <r>   -15.0845     0.0000     2.0000 </r>
       <r>   -14.9802     0.0000     2.0000 </r>
       <r>   -14.8760     0.0000     2.0000 </r>
       <r>   -14.7717     0.0000     2.0000 </r>
       <r>   -14.6674     0.0000     2.0000 </r>
       <r>   -14.5631     0.0000     2.0000 </r>
       <r>   -14.4588     0.0000     2.0000 </r>
       <r>   -14.3545     0.0000     2.0000 </r>
       <r>   -14.2503     0.0000     2.0000 </r>
       <r>   -14.1460     0.0000     2.0000 </r>
       <r>   -14.0417     0.0000     2.0000 </r>
       <r>   -13.9374     0.0000     2.0000 </r>
       <r>   -13.8331     0.0000     2.0000 </r>
       <r>   -13.7288     0.0000     2.0000 </r>
       <r>   -13.6245     0.0000     2.0000 </r>
       <r>   -13.5203     0.0000     2.0000 </r>
       <r>   -13.4160     0.0000     2.0000 </r>
       <r>   -13.3117     0.0000     2.0000 </r>
       <r>   -13.2074     0.0000     2.0000 </r>
       <r>   -13.1031     0.0000     2.0000 </r>
       <r>   -12.9988     0.0000     2.0000 </r>
       <r>   -12.8946     0.0000     2.0000 </r>
       <r>   -12.7903     0.0000     2.0000 </r>
       <r>   -12.6860     0.0000     2.0000 </r>
       <r>   -12.5817     0.0000     2.0000 </r>
       <r>   -12.4774     0.0000     2.0000 </r>
       <r>   -12.3731     0.0000     2.0000 </r>
       <r>   -12.2689     0.0000     2.0000 </r>
       <r>   -12.1646     0.0000     2.0000 </r>
       <r>   -12.0603     0.0000     2.0000 </r>
       <r>   -11.9560     0.0000     2.0000 </r>
       <r>   -11.8517     0.0000     2.0000 </r>
       <r>   -11.7474     0.0000     2.0000 </r>
       <r>   -11.6431     0.0000     2.0000 </r>
       <r>   -11.5389     0.0000     2.0000 </r>
       <r>   -11.4346     0.0000     2.0000 </r>
       <r>   -11.3303     0.0000     2.0000 </r>
       <r>   -11.2260     0.0000     2.0000 </r>
       <r>   -11.1217     0.0000     2.0000 </r>
       <r>   -11.0174     0.0000     2.0000 </r>
       <r>   -10.9132     0.0000     2.0000 </r>
       <r>   -10.8089     0.0000     2.0000 </r>
       <r>   -10.7046     0.0000     2.0000 </r>
       <r>   -10.6003     0.0000     2.0000 </r>
       <r>   -10.4960    57.5350     8.0000 </r>
       <r>   -10.3917     0.0000     8.0000 </r>
       <r>   -10.2874     0.0000     8.0000 </r>
       <r>   -10.1832     0.0000     8.0000 </r>
       <r>   -10.0789     0.0000     8.0000 </r>
       <r>    -9.9746     0.0000     8.0000 </r>
       <r>    -9.8703     0.0000     8.0000 </r>
       <r>    -9.7660     0.0000     8.0000 </r>
       <r>    -9.6617     0.0000     8.0000 </r>
       <r>    -9.5575     0.0000     8.0000 </r>
       <r>    -9.4532     0.0000     8.0000 </r>
       <r>    -9.3489     0.0000     8.0000 </r>
       <r>    -9.2446     0.0000     8.0000 </r>
       <r>    -9.1403     0.0000     8.0000 </r>
       <r>    -9.0360     0.0000     8.0000 </r>
       <r>    -8.9318     0.0000     8.0000 </r>
       <r>    -8.8275     0.0000     8.0000 </r>
       <r>    -8.7232     0.0000     8.0000 </r>
       <r>    -8.6189     0.0000     8.0000 </r>
       <r>    -8.5146     0.0000     8.0000 </r>
       <r>    -8.4103     0.0000     8.0000 </r>
       <r>    -8.3060     0.0000     8.0000 </r>
       <r>    -8.2018     0.0000     8.0000 </r>
       <r>    -8.0975     0.0000     8.0000 </r>
       <r>    -7.9932     0.0000     8.0000 </r>
       <r>    -7.8889     0.0000     8.0000 </r>
       <r>    -7.7846     0.0000     8.0000 </r>
       <r>    -7.6803     0.0000     8.0000 </r>
       <r>    -7.5761     0.0000     8.0000 </r>
       <r>    -7.4718     0.0000     8.0000 </r>
       <r>    -7.3675     0.0000     8.0000 </r>
       <r>    -7.2632     0.0000     8.0000 </r>
       <r>    -7.1589     0.0000     8.0000 </r>
       <r>    -7.0546     0.0000     8.0000 </r>
       <r>    -6.9504     0.0000     8.0000 </r>
       <r>    -6.8461     0.0000     8.0000 </r>
       <r>    -6.7418     0.0000     8.0000 </r>
       <r>    -6.6375     0.0000     8.0000 </r>
       <r>    -6.5332     0.0000     8.0000 </r>
       <r>    -6.4289     0.0000     8.0000 </r>
       <r>    -6.3246     0.0000     8.0000 </r>
       <r>    -6.2204     0.0000     8.0000 </r>
       <r>    -6.1161     0.0000     8.0000 </r>
       <r>    -6.0118     0.0000     8.0000 </r>
       <r>    -5.9075     0.0000     8.0000 </r>
       <r>    -5.8032     0.0000     8.0000 </r>
       <r>    -5.6989     0.0000     8.0000 </r>
       <r>    -5.5947     0.0000     8.0000 </r>
       <r>    -5.4904     0.0000     8.0000 </r>
       <r>    -5.3861     0.0000     8.0000 </r>
       <r>    -5.2818     0.0000     8.0000 </r>
       <r>    -5.1775     0.0000     8.0000 </r>
       <r>    -5.0732     0.0000     8.0000 </r>
       <r>    -4.9689     0.0000     8.0000 </r>
       <r>    -4.8647     0.0000     8.0000 </r>
       <r>    -4.7604     0.0000     8.0000 </r>
       <r>    -4.6561     0.0000     8.0000 </r>
       <r>    -4.5518     0.0000     8.0000 </r>
       <r>    -4.4475     0.0000     8.0000 </r>
       <r>    -4.3432     0.0000     8.0000 </r>
       <r>    -4.2390     0.0000     8.0000 </r>
       <r>    -4.1347     0.0000     8.0000 </r>
       <r>    -4.0304     0.0000     8.0000 </r>
       <r>    -3.9261     0.0000     8.0000 </r>
       <r>    -3.8218     0.0000     8.0000 </r>
       <r>    -3.7175     0.0000     8.0000 </r>
       <r>    -3.6133     0.0000     8.0000 </r>
       <r>    -3.5090     0.0000     8.0000 </r>
       <r>    -3.4047     0.0000     8.0000 </r>
       <r>    -3.3004     0.0000     8.0000 </r>
       <r>    -3.1961     0.0000     8.0000 </r>
       <r>    -3.0918     0.0000     8.0000 </r>
       <r>    -2.9875     0.0000     8.0000 </r>
       <r>    -2.8833     0.0000     8.0000 </r>
       <r>    -2.7790     0.0000     8.0000 </r>
       <r>    -2.6747     0.0000     8.0000 </r>
       <r>    -2.5704     0.0000     8.0000 </r>
       <r>    -2.4661     0.0000     8.0000 </r>
       <r>    -2.3618     0.0000     8.0000 </r>
       <r>    -2.2576     0.0000     8.0000 </r>
       <r>    -2.1533     0.0000     8.0000 </r>
       <r>    -2.0490     0.0000     8.0000 </r>
       <r>    -1.9447     0.0000     8.0000 </r>
       <r>    -1.8404     0.0000     8.0000 </r>
       <r>    -1.7361     0.0000     8.0000 </r>
       <r>    -1.6319     0.0000     8.0000 </r>
       <r>    -1.5276     0.0000     8.0000 </r>
       <r>    -1.4233     0.0000     8.0000 </r>
       <r>    -1.3190     0.0000     8.0000 </r>
       <r>    -1.2147     0.0000     8.0000 </r>
       <r>    -1.1104     0.0000     8.0000 </r>
       <r>    -1.0061     0.0000     8.0000 </r>
       <r>    -0.9019     0.0000     8.0000 </r>
       <r>    -0.7976     0.0000     8.0000 </r>
       <r>    -0.6933     0.0000     8.0000 </r>
       <r>    -0.5890    19.1695     9.9991 </r>
       <r>    -0.4847     0.0000    10.0000 </r>
       <r>    -0.3804     0.0000    10.0000 </r>
       <r>    -0.2762     0.0000    10.0000 </r>
       <r>    -0.1719     0.0000    10.0000 </r>
       <r>    -0.0676     0.0000    10.0000 </r>
       <r>     0.0367     0.0000    10.0000 </r>
       <r>     0.1410     0.0000    10.0000 </r>
       <r>     0.2453     0.0000    10.0000 </r>
       <r>     0.3496    19.1071    11.9926 </r>
       <r>     0.4538     0.0000    12.0000 </r>
       <r>     0.5581     0.0000    12.0000 </r>
       <r>     0.6624    38.3567    16.0000 </r>
       <r>     0.7667     0.0000    16.0000 </r>
       <r>     0.8710     0.0000    16.0000 </r>
       <r>     0.9753     0.0000    16.0000 </r>
       <r>     1.0795     0.0000    16.0000 </r>
       <r>     1.1838     0.0000    16.0000 </r>
       <r>     1.2881     0.0000    16.0000 </r>
       <r>     1.3924     0.0000    16.0000 </r>
       <r>     1.4967     0.0000    16.0000 </r>
       <r>     1.6010     0.0000    16.0000 </r>
       <r>     1.7052     0.0000    16.0000 </r>
       <r>     1.8095     0.0000    16.0000 </r>
       <r>     1.9138     0.0000    16.0000 </r>
       <r>     2.0181     0.0000    16.0000 </r>
      </set>
     </set>
    </array>
   </total>
  </dos>
 </calculation>
 <structure name="finalpos" >
  <crystal>
   <varray name="basis" >
    <v>      12.00000000       0.00000000       0.00000000 </v>
    <v>       0.00000000      12.00000000       0.00000000 </v>
    <v>       0.00000000       0.00000000      12.00000000 </v>
   </varray>
   <i name="volume">   1728.00000000 </i>
   <varray name="rec_basis" >
    <v>       0.08333333       0.00000000       0.00000000 </v>
    <v>       0.00000000       0.08333333       0.00000000 </v>
    <v>       0.00000000       0.00000000       0.08333333 </v>
   </varray>
  </crystal>
  <varray name="positions" >
   <v>       0.50000000       0.50000000       0.50000000 </v>
  </varray>
 </structure>
</modeling>
