   4   4   0   0
  0.2259949E+02  0.4488000E-09  0.4488000E-09  0.4488000E-09  0.5000000E-15
  1.000000000000000E-004
  CAR 
 unknown system                          
     31.78562446     -3.39324077  301      5.42089435      1.00000000
     -3.393  0.0000E+00  0.0000E+00
     -3.276  0.0000E+00  0.0000E+00
     -3.159  0.0000E+00  0.0000E+00
     -3.041  0.0000E+00  0.0000E+00
     -2.924  0.0000E+00  0.0000E+00
     -2.807  0.0000E+00  0.0000E+00
     -2.690 -0.8863E-36 -0.1039E-36
     -2.572 -0.2571E-27 -0.3014E-28
     -2.455 -0.4657E-20 -0.5461E-21
     -2.338 -0.5050E-14 -0.5921E-15
     -2.221 -0.3380E-09 -0.3963E-10
     -2.103 -0.1301E-05 -0.1526E-06
     -1.986 -0.2500E-03 -0.2947E-04
     -1.869 -0.8682E-03 -0.1313E-03
     -1.752  0.2221E-01  0.2473E-02
     -1.634  0.1388E+00  0.1875E-01
     -1.517  0.2754E+00  0.5104E-01
     -1.400  0.1935E+00  0.7373E-01
     -1.283  0.2418E+00  0.1021E+00
     -1.165  0.6486E+00  0.1781E+00
     -1.048  0.3787E+00  0.2226E+00
     -0.931  0.1559E+00  0.2408E+00
     -0.813  0.6500E+00  0.3171E+00
     -0.696  0.6792E+00  0.3967E+00
     -0.579  0.6853E+00  0.4771E+00
     -0.462  0.4086E+00  0.5250E+00
     -0.344  0.1213E+01  0.6673E+00
     -0.227  0.4037E+00  0.7146E+00
     -0.110  0.6251E+00  0.7879E+00
      0.007  0.1449E+01  0.9578E+00
      0.125  0.1317E+01  0.1112E+01
      0.242  0.1743E+01  0.1317E+01
      0.359  0.2289E+01  0.1585E+01
      0.476  0.3589E+01  0.2006E+01
      0.594  0.3733E+01  0.2444E+01
      0.711  0.6676E+01  0.3227E+01
      0.828  0.7762E+01  0.4137E+01
      0.945  0.1145E+02  0.5479E+01
      1.063  0.1086E+02  0.6753E+01
      1.180  0.9457E+01  0.7862E+01
      1.297  0.9666E+01  0.8996E+01
      1.415  0.7864E+01  0.9918E+01
      1.532  0.7249E+01  0.1077E+02
      1.649  0.1194E+02  0.1217E+02
      1.766  0.1310E+02  0.1370E+02
      1.884  0.1290E+02  0.1522E+02
      2.001  0.1382E+02  0.1684E+02
      2.118  0.1483E+02  0.1858E+02
      2.235  0.2100E+02  0.2104E+02
      2.353  0.1693E+02  0.2302E+02
      2.470  0.1110E+02  0.2433E+02
      2.587  0.1034E+02  0.2554E+02
      2.704  0.1320E+02  0.2709E+02
      2.822  0.1257E+02  0.2856E+02
      2.939  0.1479E+02  0.3029E+02
      3.056  0.1352E+02  0.3188E+02
      3.173  0.1088E+02  0.3315E+02
      3.291  0.1167E+02  0.3452E+02
      3.408  0.1130E+02  0.3585E+02
      3.525  0.1523E+02  0.3763E+02
      3.643  0.1847E+02  0.3980E+02
      3.760  0.1192E+02  0.4120E+02
      3.877  0.6572E+01  0.4197E+02
      3.994  0.2020E+01  0.4220E+02
      4.112  0.5280E+00  0.4227E+02
      4.229  0.2815E+00  0.4230E+02
      4.346  0.1185E+01  0.4244E+02
      4.463  0.2752E+01  0.4276E+02
      4.581  0.1466E+01  0.4293E+02
      4.698  0.1112E+01  0.4306E+02
      4.815  0.6837E+00  0.4314E+02
      4.932  0.4333E+00  0.4319E+02
      5.050  0.2187E+01  0.4345E+02
      5.167  0.1602E+01  0.4364E+02
      5.284  0.1767E+01  0.4385E+02
      5.401  0.1180E+01  0.4398E+02
      5.519  0.7096E+00  0.4407E+02
      5.636  0.1174E+01  0.4421E+02
      5.753  0.1305E+01  0.4436E+02
      5.871  0.1994E+01  0.4459E+02
      5.988  0.1493E+01  0.4477E+02
      6.105  0.7048E+00  0.4485E+02
      6.222  0.1179E+01  0.4499E+02
      6.340  0.1854E+01  0.4521E+02
      6.457  0.1411E+01  0.4537E+02
      6.574  0.7666E+00  0.4546E+02
      6.691  0.2178E+01  0.4572E+02
      6.809  0.1372E+01  0.4588E+02
      6.926  0.7477E+00  0.4597E+02
      7.043  0.2033E+01  0.4620E+02
      7.160  0.1473E+01  0.4638E+02
      7.278  0.9087E+00  0.4648E+02
      7.395  0.1627E+01  0.4667E+02
      7.512  0.1900E+01  0.4690E+02
      7.629  0.3091E+01  0.4726E+02
      7.747  0.1903E+01  0.4748E+02
      7.864  0.1173E+01  0.4762E+02
      7.981  0.4777E+00  0.4768E+02
      8.099  0.1766E+01  0.4788E+02
      8.216  0.1912E+01  0.4811E+02
      8.333  0.6279E+00  0.4818E+02
      8.450  0.1165E+01  0.4832E+02
      8.568  0.1842E+01  0.4853E+02
      8.685  0.1179E+01  0.4867E+02
      8.802  0.8124E+00  0.4877E+02
      8.919  0.9916E+00  0.4888E+02
      9.037  0.1546E+01  0.4906E+02
      9.154  0.6366E+00  0.4914E+02
      9.271  0.1047E+01  0.4926E+02
      9.388  0.2268E+01  0.4953E+02
      9.506  0.2133E+01  0.4978E+02
      9.623  0.1003E+01  0.4990E+02
      9.740  0.4324E+00  0.4995E+02
      9.857  0.2067E+01  0.5019E+02
      9.975  0.1525E+01  0.5037E+02
     10.092  0.3395E+01  0.5077E+02
     10.209  0.7504E+00  0.5085E+02
     10.327  0.7812E+00  0.5095E+02
     10.444  0.1383E+01  0.5111E+02
     10.561  0.3105E+01  0.5147E+02
     10.678  0.1898E+01  0.5169E+02
     10.796  0.1419E+01  0.5186E+02
     10.913  0.1189E+01  0.5200E+02
     11.030  0.8335E+00  0.5210E+02
     11.147  0.4462E+00  0.5215E+02
     11.265  0.1632E+01  0.5234E+02
     11.382  0.2529E+01  0.5264E+02
     11.499  0.2016E+01  0.5287E+02
     11.616  0.1564E+01  0.5306E+02
     11.734  0.5318E+00  0.5312E+02
     11.851  0.1163E+01  0.5326E+02
     11.968  0.1732E+01  0.5346E+02
     12.085  0.1150E+01  0.5359E+02
     12.203  0.8021E+00  0.5369E+02
     12.320  0.1515E+01  0.5387E+02
     12.437  0.1952E+01  0.5409E+02
     12.555  0.2144E+01  0.5435E+02
     12.672  0.4016E+01  0.5482E+02
     12.789  0.1179E+01  0.5496E+02
     12.906  0.4606E+00  0.5501E+02
     13.024  0.1857E+01  0.5523E+02
     13.141  0.1813E+01  0.5544E+02
     13.258  0.4174E+00  0.5549E+02
     13.375  0.9937E+00  0.5560E+02
     13.493  0.2428E+01  0.5589E+02
     13.610  0.3125E+01  0.5626E+02
     13.727  0.2023E+01  0.5649E+02
     13.844  0.1094E+01  0.5662E+02
     13.962  0.1096E+01  0.5675E+02
     14.079  0.2172E+01  0.5700E+02
     14.196  0.7471E+00  0.5709E+02
     14.313  0.2032E+01  0.5733E+02
     14.431  0.3093E+01  0.5769E+02
     14.548  0.2533E+01  0.5799E+02
     14.665  0.4059E+01  0.5847E+02
     14.783  0.1997E+01  0.5870E+02
     14.900  0.2204E+01  0.5896E+02
     15.017  0.1603E+01  0.5915E+02
     15.134  0.3117E+01  0.5951E+02
     15.252  0.4068E+01  0.5999E+02
     15.369  0.1708E+01  0.6019E+02
     15.486  0.3204E+00  0.6023E+02
     15.603  0.1886E+01  0.6045E+02
     15.721  0.2227E+01  0.6071E+02
     15.838  0.1737E+01  0.6091E+02
     15.955  0.2250E+01  0.6118E+02
     16.072  0.2800E+01  0.6151E+02
     16.190  0.3469E+01  0.6191E+02
     16.307  0.3830E+01  0.6236E+02
     16.424  0.1583E+01  0.6255E+02
     16.541  0.2389E+01  0.6283E+02
     16.659  0.2172E+01  0.6308E+02
     16.776  0.1415E+01  0.6325E+02
     16.893  0.1458E+01  0.6342E+02
     17.011  0.1194E+01  0.6356E+02
     17.128  0.2794E+01  0.6389E+02
     17.245  0.2739E+01  0.6421E+02
     17.362  0.2031E+01  0.6445E+02
     17.480  0.2941E+01  0.6479E+02
     17.597  0.2424E+01  0.6507E+02
     17.714  0.1634E+01  0.6527E+02
     17.831  0.1016E+01  0.6539E+02
     17.949  0.2267E+01  0.6565E+02
     18.066  0.1618E+01  0.6584E+02
     18.183  0.1549E+01  0.6602E+02
     18.300  0.2300E+01  0.6629E+02
     18.418  0.2619E+01  0.6660E+02
     18.535  0.1664E+01  0.6679E+02
     18.652  0.2411E+01  0.6708E+02
     18.769  0.1446E+01  0.6725E+02
     18.887  0.1376E+01  0.6741E+02
     19.004  0.2726E+01  0.6773E+02
     19.121  0.1733E+01  0.6793E+02
     19.238  0.2710E+00  0.6796E+02
     19.356  0.2774E+01  0.6829E+02
     19.473  0.4457E+01  0.6881E+02
     19.590  0.8239E+00  0.6891E+02
     19.708  0.1896E+01  0.6913E+02
     19.825  0.2368E+01  0.6941E+02
     19.942  0.1956E+01  0.6964E+02
     20.059  0.2113E+01  0.6988E+02
     20.177  0.2240E+01  0.7015E+02
     20.294  0.2488E+01  0.7044E+02
     20.411  0.6161E+01  0.7116E+02
     20.528  0.7174E+01  0.7200E+02
     20.646  0.3366E+01  0.7240E+02
     20.763  0.4406E+01  0.7291E+02
     20.880  0.4007E+01  0.7338E+02
     20.997  0.5458E+01  0.7402E+02
     21.115  0.6200E+01  0.7475E+02
     21.232  0.2844E+01  0.7508E+02
     21.349  0.2084E+01  0.7533E+02
     21.466  0.2728E+01  0.7565E+02
     21.584  0.3739E+01  0.7609E+02
     21.701  0.2465E+01  0.7638E+02
     21.818  0.2454E+01  0.7666E+02
     21.936  0.4050E+01  0.7714E+02
     22.053  0.3414E+01  0.7754E+02
     22.170  0.2313E+01  0.7781E+02
     22.287  0.3682E+01  0.7824E+02
     22.405  0.2613E+01  0.7855E+02
     22.522  0.2290E+01  0.7882E+02
     22.639  0.3830E+01  0.7927E+02
     22.756  0.3388E+01  0.7966E+02
     22.874  0.1924E+01  0.7989E+02
     22.991  0.1886E+01  0.8011E+02
     23.108  0.2131E+01  0.8036E+02
     23.225  0.1858E+01  0.8058E+02
     23.343  0.5650E+00  0.8064E+02
     23.460  0.5648E+00  0.8071E+02
     23.577  0.1617E+01  0.8090E+02
     23.694  0.2005E+01  0.8114E+02
     23.812  0.3257E+01  0.8152E+02
     23.929  0.4733E+01  0.8207E+02
     24.046  0.2985E+01  0.8242E+02
     24.164  0.1827E+01  0.8264E+02
     24.281  0.5079E-01  0.8264E+02
     24.398  0.1828E+00  0.8266E+02
     24.515  0.6879E+00  0.8274E+02
     24.633  0.1534E+01  0.8292E+02
     24.750  0.2011E+00  0.8295E+02
     24.867  0.7983E+00  0.8304E+02
     24.984  0.1417E+01  0.8321E+02
     25.102  0.1463E+01  0.8338E+02
     25.219  0.2878E+01  0.8372E+02
     25.336  0.4780E+01  0.8428E+02
     25.453  0.1420E+01  0.8444E+02
     25.571  0.1464E+01  0.8462E+02
     25.688  0.2620E+01  0.8492E+02
     25.805  0.2270E+01  0.8519E+02
     25.922  0.1195E+01  0.8533E+02
     26.040  0.1136E+01  0.8546E+02
     26.157  0.2595E+01  0.8577E+02
     26.274  0.3054E+01  0.8612E+02
     26.392  0.2364E+01  0.8640E+02
     26.509  0.4563E+01  0.8694E+02
     26.626  0.4609E+01  0.8748E+02
     26.743  0.5487E+01  0.8812E+02
     26.861  0.6479E+01  0.8888E+02
     26.978  0.3505E+01  0.8929E+02
     27.095  0.7968E+00  0.8939E+02
     27.212  0.3796E+01  0.8983E+02
     27.330  0.4204E+01  0.9032E+02
     27.447  0.3766E+01  0.9076E+02
     27.564  0.2844E+01  0.9110E+02
     27.681  0.3826E+01  0.9155E+02
     27.799  0.4030E+01  0.9202E+02
     27.916  0.1893E+01  0.9224E+02
     28.033  0.5356E+01  0.9287E+02
     28.150  0.6694E+01  0.9365E+02
     28.268  0.3468E+01  0.9406E+02
     28.385  0.2904E+01  0.9440E+02
     28.502  0.2864E+01  0.9474E+02
     28.620  0.2967E+01  0.9509E+02
     28.737  0.2291E+01  0.9535E+02
     28.854  0.6842E+00  0.9543E+02
     28.971  0.1650E+00  0.9545E+02
     29.089  0.1258E+01  0.9560E+02
     29.206  0.1705E+01  0.9580E+02
     29.323  0.2175E+00  0.9583E+02
     29.440  0.3375E+00  0.9587E+02
     29.558  0.8720E+00  0.9597E+02
     29.675  0.9150E-01  0.9598E+02
     29.792 -0.1240E-01  0.9598E+02
     29.909 -0.4803E-03  0.9598E+02
     30.027 -0.4268E-02  0.9598E+02
     30.144  0.3670E-01  0.9598E+02
     30.261  0.1501E+00  0.9600E+02
     30.378  0.6610E-02  0.9600E+02
     30.496 -0.1917E-02  0.9600E+02
     30.613 -0.1038E-04  0.9600E+02
     30.730 -0.2704E-08  0.9600E+02
     30.848 -0.4040E-13  0.9600E+02
     30.965  0.0000E+00  0.9600E+02
     31.082  0.0000E+00  0.9600E+02
     31.199  0.0000E+00  0.9600E+02
     31.317  0.0000E+00  0.9600E+02
     31.434  0.0000E+00  0.9600E+02
     31.551  0.0000E+00  0.9600E+02
     31.668  0.0000E+00  0.9600E+02
     31.786  0.0000E+00  0.9600E+02
