    4    4    1    1
  0.2259949E+02  0.4488000E-09  0.4488000E-09  0.4488000E-09  0.5000000E-15
  1.000000000000000E-004
  CAR 
 unknown system                          
     44     35     48
 
  0.0000000E+00  0.0000000E+00  0.0000000E+00  0.1371742E-02
    1       -1.794201   1.000000
    2        0.553204   1.000000
    3        0.553204   1.000000
    4        0.553204   1.000000
    5        0.735856   1.000000
    6        0.735856   1.000000
    7        0.735856   1.000000
    8        1.998859   1.000000
    9        1.998859   1.000000
   10        1.998859   1.000000
   11        2.910597   1.000000
   12        2.910597   1.000000
   13        3.604737   1.000000
   14        3.604737   1.000000
   15        3.604737   1.000000
   16        3.827417   1.000000
   17        3.827417   1.000000
   18        3.827417   1.000000
   19        3.827417   1.000000
   20        3.827417   1.000000
   21        3.827417   1.000000
   22        7.196232  -0.000000
   23        7.196232  -0.000000
   24        7.196232  -0.000000
   25        9.273521   0.000000
   26        9.273521   0.000000
   27        9.273521   0.000000
   28       14.604405   0.000000
   29       14.604405   0.000000
   30       14.604405   0.000000
   31       14.604405   0.000000
   32       14.604405   0.000000
   33       14.604405   0.000000
   34       19.847773   0.000000
   35       19.847773   0.000000
   36       19.847773   0.000000
   37       19.995239   0.000000
   38       21.852470   0.000000
   39       21.852470   0.000000
   40       21.852470   0.000000
   41       22.344132   0.000000
   42       22.344132   0.000000
   43       22.344132   0.000000
   44       26.503422   0.000000
   45       28.824931   0.000000
   46       28.824931   0.000000
   47       28.824931   0.000000
   48       29.607079   0.000000
 
  0.1111111E+00  0.0000000E+00  0.0000000E+00  0.8230453E-02
    1       -1.681936   1.000000
    2        0.582868   1.000000
    3        0.618596   1.000000
    4        0.618596   1.000000
    5        0.769724   1.000000
    6        0.788047   1.000000
    7        0.788047   1.000000
    8        1.955693   1.000000
    9        2.040159   1.000000
   10        2.040159   1.000000
   11        2.865969   1.000000
   12        2.930314   1.000000
   13        3.542619   1.000000
   14        3.542619   1.000000
   15        3.582475   1.000000
   16        3.604355   1.000000
   17        3.604355   1.000000
   18        3.750627   1.000000
   19        3.750627   1.000000
   20        3.827487   1.000000
   21        3.827487   1.000000
   22        6.114951  -0.000000
   23        7.510972  -0.000000
   24        7.510972  -0.000000
   25        9.214357   0.000000
   26        9.214357   0.000000
   27       10.557021   0.000000
   28       14.338240   0.000000
   29       14.338240   0.000000
   30       14.378499   0.000000
   31       14.378499   0.000000
   32       14.809217   0.000000
   33       14.809217   0.000000
   34       19.821116   0.000000
   35       20.067412   0.000000
   36       20.413242   0.000000
   37       20.413242   0.000000
   38       21.809753   0.000000
   39       21.893908   0.000000
   40       22.080688   0.000000
   41       22.080688   0.000000
   42       22.111731   0.000000
   43       22.111731   0.000000
   44       27.154046   0.000000
   45       28.048019   0.000000
   46       28.048019   0.000000
   47       28.530886   0.000000
   48       28.964653   0.000000
 
  0.2222222E+00  0.0000000E+00  0.0000000E+00  0.8230453E-02
    1       -1.351085   1.000000
    2        0.649640   1.000000
    3        0.801509   1.000000
    4        0.801509   1.000000
    5        0.868438   1.000000
    6        0.944305   1.000000
    7        0.944305   1.000000
    8        1.833470   1.000000
    9        2.162281   1.000000
   10        2.162281   1.000000
   11        2.743279   1.000000
   12        2.987485   1.000000
   13        3.103753   1.000000
   14        3.103753   1.000000
   15        3.365762   1.000000
   16        3.365762   1.000000
   17        3.518763   1.000000
   18        3.541219   1.000000
   19        3.541219   1.000000
   20        3.827752   1.000000
   21        3.827752   1.000000
   22        4.617123   1.000000
   23        8.282934   0.000000
   24        8.282934   0.000000
   25        9.065432   0.000000
   26        9.065432   0.000000
   27       12.676057   0.000000
   28       13.630295   0.000000
   29       13.630295   0.000000
   30       13.941242   0.000000
   31       13.941242   0.000000
   32       15.398749   0.000000
   33       15.398749   0.000000
   34       19.765528   0.000000
   35       20.268775   0.000000
   36       21.076986   0.000000
   37       21.290351   0.000000
   38       21.290351   0.000000
   39       21.683059   0.000000
   40       21.836333   0.000000
   41       21.836333   0.000000
   42       22.816477   0.000000
   43       22.816477   0.000000
   44       25.774239   0.000000
   45       27.621188   0.000000
   46       27.621188   0.000000
   47       29.259730   0.000000
   48       29.389046   0.000000
 
  0.3333333E+00  0.0000000E+00  0.0000000E+00  0.8230453E-02
    1       -0.824918   1.000000
    2        0.663381   1.000000
    3        1.023476   1.000000
    4        1.054012   1.000000
    5        1.054012   1.000000
    6        1.203425   1.000000
    7        1.203425   1.000000
    8        1.651991   1.000000
    9        2.359581   1.000000
   10        2.359581   1.000000
   11        2.540440   1.000000
   12        2.540440   1.000000
   13        2.581112   1.000000
   14        3.076152   1.000000
   15        3.115755   1.000000
   16        3.115755   1.000000
   17        3.248821   1.000000
   18        3.248821   1.000000
   19        3.373651   1.000000
   20        3.422763   1.000000
   21        3.828046   1.000000
   22        3.828046   1.000000
   23        8.898937   0.000000
   24        8.898937   0.000000
   25        9.285104   0.000000
   26        9.285104   0.000000
   27       12.652078   0.000000
   28       12.652078   0.000000
   29       13.580460   0.000000
   30       13.580460   0.000000
   31       15.024788   0.000000
   32       16.310513   0.000000
   33       16.310513   0.000000
   34       19.746922   0.000000
   35       20.106950   0.000000
   36       20.106950   0.000000
   37       20.346129   0.000000
   38       20.559279   0.000000
   39       21.477903   0.000000
   40       23.114964   0.000000
   41       23.724665   0.000000
   42       23.724665   0.000000
   43       23.840172   0.000000
   44       23.840172   0.000000
   45       27.848591   0.000000
   46       27.848591   0.000000
   47       28.092881   0.000000
   48       28.092881   0.000000
 
  0.4444444E+00  0.0000000E+00  0.0000000E+00  0.8230453E-02
    1       -0.171232   1.000000
    2        0.416039   1.000000
    3        1.220176   1.000000
    4        1.264562   1.000000
    5        1.264562   1.000000
    6        1.438141   1.000000
    7        1.562289   1.000000
    8        1.562289   1.000000
    9        2.013521   1.000000
   10        2.013521   1.000000
   11        2.471174   1.000000
   12        2.620997   1.000000
   13        2.620997   1.000000
   14        2.635748   1.000000
   15        2.904272   1.000000
   16        2.904272   1.000000
   17        2.927519   1.000000
   18        2.927519   1.000000
   19        3.186888   1.000000
   20        3.307234   1.000000
   21        3.828273   1.000000
   22        3.828273   1.000000
   23        8.792690   0.000000
   24        8.792690   0.000000
   25       10.396514   0.000000
   26       10.396514   0.000000
   27       11.542656   0.000000
   28       11.542656   0.000000
   29       13.393031   0.000000
   30       13.393031   0.000000
   31       17.464737   0.000000
   32       17.464737   0.000000
   33       17.495474   0.000000
   34       18.770225   0.000000
   35       18.770225   0.000000
   36       19.591934   0.000000
   37       19.872376   0.000000
   38       20.671439   0.000000
   39       20.887483   0.000000
   40       21.205446   0.000000
   41       25.098046   0.000000
   42       25.098046   0.000000
   43       25.693170   0.000000
   44       25.693171   0.000000
   45       26.538221   0.000000
   46       26.538221   0.000000
   47       28.588002   0.000000
   48       28.588051   0.000000
 
  0.1111111E+00  0.1111111E+00  0.0000000E+00  0.1646091E-01
    1       -1.571531   1.000000
    2        0.649539   1.000000
    3        0.649539   1.000000
    4        0.665877   1.000000
    5        0.820722   1.000000
    6        0.820722   1.000000
    7        0.853362   1.000000
    8        1.940940   1.000000
    9        2.054985   1.000000
   10        2.075173   1.000000
   11        2.855475   1.000000
   12        2.923594   1.000000
   13        3.433264   1.000000
   14        3.433264   1.000000
   15        3.462228   1.000000
   16        3.486078   1.000000
   17        3.599315   1.000000
   18        3.599315   1.000000
   19        3.750311   1.000000
   20        3.750311   1.000000
   21        3.774737   1.000000
   22        6.394935  -0.000000
   23        6.394935  -0.000000
   24        7.798427  -0.000000
   25        9.140398   0.000000
   26       10.519844   0.000000
   27       10.519844   0.000000
   28       13.482565   0.000000
   29       14.536731   0.000000
   30       14.536731   0.000000
   31       14.593452   0.000000
   32       14.593452   0.000000
   33       14.988920   0.000000
   34       20.062285   0.000000
   35       20.398091   0.000000
   36       20.398091   0.000000
   37       20.499547   0.000000
   38       20.863223   0.000000
   39       21.914664   0.000000
   40       22.078525   0.000000
   41       22.078525   0.000000
   42       22.614016   0.000000
   43       22.756252   0.000000
   44       26.382318   0.000000
   45       27.989005   0.000000
   46       28.486093   0.000000
   47       28.645867   0.000000
   48       28.731525   0.000000
 
  0.2222222E+00  0.1111111E+00  0.0000000E+00  0.3292181E-01
    1       -1.246309   1.000000
    2        0.720332   1.000000
    3        0.805950   1.000000
    4        0.836514   1.000000
    5        0.915935   1.000000
    6        0.973282   1.000000
    7        1.037224   1.000000
    8        1.837405   1.000000
    9        2.163952   1.000000
   10        2.174790   1.000000
   11        2.756163   1.000000
   12        2.948551   1.000000
   13        2.983725   1.000000
   14        3.034375   1.000000
   15        3.165794   1.000000
   16        3.323789   1.000000
   17        3.405631   1.000000
   18        3.528962   1.000000
   19        3.539987   1.000000
   20        3.748441   1.000000
   21        3.749416   1.000000
   22        4.969726   1.000000
   23        6.994688  -0.000000
   24        8.526321   0.000000
   25        8.942306   0.000000
   26       10.455476   0.000000
   27       12.514616   0.000000
   28       12.642941   0.000000
   29       13.817442   0.000000
   30       14.213219   0.000000
   31       15.058819   0.000000
   32       15.105566   0.000000
   33       15.242603   0.000000
   34       19.699184   0.000000
   35       19.921456   0.000000
   36       20.381203   0.000000
   37       21.131119   0.000000
   38       21.530523   0.000000
   39       21.823987   0.000000
   40       21.981057   0.000000
   41       22.678150   0.000000
   42       22.803907   0.000000
   43       23.774469   0.000000
   44       25.238594   0.000000
   45       27.356726   0.000000
   46       27.809416   0.000000
   47       29.000043   0.000000
   48       29.461479   0.000000
 
  0.3333333E+00  0.1111111E+00  0.0000000E+00  0.3292181E-01
    1       -0.729718   1.000000
    2        0.739773   1.000000
    3        1.029136   1.000000
    4        1.065190   1.000000
    5        1.096565   1.000000
    6        1.225794   1.000000
    7        1.298513   1.000000
    8        1.666882   1.000000
    9        2.298050   1.000000
   10        2.358208   1.000000
   11        2.406048   1.000000
   12        2.511695   1.000000
   13        2.650760   1.000000
   14        2.754736   1.000000
   15        3.092878   1.000000
   16        3.094803   1.000000
   17        3.158742   1.000000
   18        3.246686   1.000000
   19        3.375704   1.000000
   20        3.743939   1.000000
   21        3.747939   1.000000
   22        3.918583   1.000000
   23        7.609589  -0.000000
   24        8.680206   0.000000
   25        9.496390   0.000000
   26       10.497080   0.000000
   27       11.917728   0.000000
   28       12.832621   0.000000
   29       13.979984   0.000000
   30       14.490608   0.000000
   31       14.692935   0.000000
   32       15.976580   0.000000
   33       16.409266   0.000000
   34       18.556632   0.000000
   35       19.296220   0.000000
   36       20.438997   0.000000
   37       21.335702   0.000000
   38       21.826676   0.000000
   39       21.923449   0.000000
   40       22.351981   0.000000
   41       23.153472   0.000000
   42       23.623447   0.000000
   43       23.849265   0.000000
   44       25.308845   0.000000
   45       27.246445   0.000000
   46       27.959785   0.000000
   47       28.014548   0.000000
   48       28.157350   0.000000
 
  0.4444444E+00  0.1111111E+00  0.0000000E+00  0.3292181E-01
    1       -0.087744   1.000000
    2        0.493945   1.000000
    3        1.254188   1.000000
    4        1.277590   1.000000
    5        1.313964   1.000000
    6        1.463038   1.000000
    7        1.573995   1.000000
    8        1.574231   1.000000
    9        1.924574   1.000000
   10        2.009531   1.000000
   11        2.306151   1.000000
   12        2.379018   1.000000
   13        2.618598   1.000000
   14        2.760993   1.000000
   15        2.905579   1.000000
   16        2.924915   1.000000
   17        2.935373   1.000000
   18        3.071240   1.000000
   19        3.241853   1.000000
   20        3.441741   1.000000
   21        3.744370   1.000000
   22        3.746116   1.000000
   23        8.076913  -0.000000
   24        8.401914   0.000000
   25       10.588199   0.000000
   26       10.779450   0.000000
   27       11.287915   0.000000
   28       11.724530   0.000000
   29       13.995212   0.000000
   30       14.260362   0.000000
   31       16.094961   0.000000
   32       17.057849   0.000000
   33       17.385535   0.000000
   34       18.229910   0.000000
   35       18.279875   0.000000
   36       20.631779   0.000000
   37       20.673603   0.000000
   38       21.188859   0.000000
   39       21.435771   0.000000
   40       21.632146   0.000000
   41       23.799913   0.000000
   42       24.792507   0.000000
   43       25.127085   0.000000
   44       26.586481   0.000000
   45       27.083682   0.000000
   46       27.249547   0.000000
   47       27.954229   0.000000
   48       28.692940   0.000000
 
  0.2222222E+00  0.2222222E+00  0.0000000E+00  0.1646091E-01
    1       -0.938648   1.000000
    2        0.875043   1.000000
    3        0.920220   1.000000
    4        0.920220   1.000000
    5        1.057465   1.000000
    6        1.057465   1.000000
    7        1.246473   1.000000
    8        1.805464   1.000000
    9        2.211734   1.000000
   10        2.216664   1.000000
   11        2.628113   1.000000
   12        2.628113   1.000000
   13        2.724643   1.000000
   14        2.794590   1.000000
   15        3.049541   1.000000
   16        3.199261   1.000000
   17        3.390204   1.000000
   18        3.390204   1.000000
   19        3.536606   1.000000
   20        3.536606   1.000000
   21        3.621676   1.000000
   22        5.605907  -0.012580
   23        5.605907  -0.012580
   24        8.587104   0.000000
   25        9.173142   0.000000
   26       11.825911   0.000000
   27       12.092492   0.000000
   28       12.092492   0.000000
   29       14.350382   0.000000
   30       14.350382   0.000000
   31       15.085473   0.000000
   32       15.085473   0.000000
   33       16.064549   0.000000
   34       18.320198   0.000000
   35       19.192045   0.000000
   36       20.638341   0.000000
   37       21.822375   0.000000
   38       21.822375   0.000000
   39       21.918261   0.000000
   40       22.766788   0.000000
   41       22.766788   0.000000
   42       23.923884   0.000000
   43       24.050450   0.000000
   44       25.232416   0.000000
   45       26.618742   0.000000
   46       28.339723   0.000000
   47       28.503419   0.000000
   48       29.060069   0.000000
 
  0.3333333E+00  0.2222222E+00  0.0000000E+00  0.3292181E-01
    1       -0.452791   1.000000
    2        0.956823   1.000000
    3        1.035579   1.000000
    4        1.188566   1.000000
    5        1.205896   1.000000
    6        1.290011   1.000000
    7        1.492659   1.000000
    8        1.692897   1.000000
    9        2.119999   1.000000
   10        2.233861   1.000000
   11        2.265846   1.000000
   12        2.375256   1.000000
   13        2.411150   1.000000
   14        2.668104   1.000000
   15        3.015803   1.000000
   16        3.176025   1.000000
   17        3.228288   1.000000
   18        3.241757   1.000000
   19        3.254900   1.000000
   20        3.532306   1.000000
   21        3.555684   1.000000
   22        4.541658   1.000000
   23        6.268567  -0.000000
   24        8.071781  -0.000000
   25       10.076187   0.000000
   26       11.355477   0.000000
   27       11.613734   0.000000
   28       13.344670   0.000000
   29       13.489625   0.000000
   30       15.157163   0.000000
   31       15.172877   0.000000
   32       16.304086   0.000000
   33       16.618596   0.000000
   34       17.049468   0.000000
   35       18.263901   0.000000
   36       21.144463   0.000000
   37       21.924077   0.000000
   38       22.245161   0.000000
   39       22.592203   0.000000
   40       22.705252   0.000000
   41       23.382935   0.000000
   42       23.872399   0.000000
   43       24.019409   0.000000
   44       26.040726   0.000000
   45       26.844060   0.000000
   46       27.681502   0.000000
   47       28.348893   0.000000
   48       28.359718   0.000000
 
  0.4444444E+00  0.2222222E+00  0.0000000E+00  0.3292181E-01
    1        0.149334   1.000000
    2        0.710153   1.000000
    3        1.282749   1.000000
    4        1.352611   1.000000
    5        1.454435   1.000000
    6        1.529660   1.000000
    7        1.606428   1.000000
    8        1.650507   1.000000
    9        1.719272   1.000000
   10        1.991282   1.000000
   11        2.080445   1.000000
   12        2.149631   1.000000
   13        2.620716   1.000000
   14        2.769032   1.000000
   15        2.881213   1.000000
   16        2.921153   1.000000
   17        2.956215   1.000000
   18        3.012191   1.000000
   19        3.488511   1.000000
   20        3.529556   1.000000
   21        3.533513   1.000000
   22        3.874215   1.000000
   23        6.899627  -0.000000
   24        7.496674  -0.000000
   25       11.124016   0.000000
   26       11.185771   0.000000
   27       11.280797   0.000000
   28       12.237835   0.000000
   29       14.695445   0.000000
   30       15.489079   0.000000
   31       15.856620   0.000000
   32       15.943227   0.000000
   33       16.145812   0.000000
   34       17.216220   0.000000
   35       18.620208   0.000000
   36       20.747563   0.000000
   37       22.251634   0.000000
   38       22.421819   0.000000
   39       22.470824   0.000000
   40       22.613242   0.000000
   41       22.945828   0.000000
   42       23.648948   0.000000
   43       25.204625   0.000000
   44       26.720211   0.000000
   45       26.742936   0.000000
   46       27.597336   0.000000
   47       27.858748   0.000000
   48       28.583328   0.000000
 
  0.3333333E+00  0.3333333E+00  0.0000000E+00  0.1646091E-01
    1       -0.023956   1.000000
    2        1.111268   1.000000
    3        1.270850   1.000000
    4        1.270850   1.000000
    5        1.387338   1.000000
    6        1.387338   1.000000
    7        1.682852   1.000000
    8        1.705655   1.000000
    9        1.858176   1.000000
   10        1.858176   1.000000
   11        2.198007   1.000000
   12        2.214839   1.000000
   13        2.464218   1.000000
   14        2.598097   1.000000
   15        2.883286   1.000000
   16        3.070220   1.000000
   17        3.070220   1.000000
   18        3.238721   1.000000
   19        3.238721   1.000000
   20        3.383564   1.000000
   21        3.504060   1.000000
   22        5.175928   1.001446
   23        5.175928   1.001446
   24        7.283689  -0.000000
   25       10.915801   0.000000
   26       11.212402   0.000000
   27       12.547579   0.000000
   28       12.547579   0.000000
   29       14.116620   0.000000
   30       14.116620   0.000000
   31       15.712132   0.000000
   32       16.944404   0.000000
   33       16.944404   0.000000
   34       17.193249   0.000000
   35       17.664442   0.000000
   36       20.513548   0.000000
   37       22.192721   0.000000
   38       23.038523   0.000000
   39       23.144709   0.000000
   40       23.144709   0.000000
   41       23.889115   0.000000
   42       23.889115   0.000000
   43       24.097340   0.000000
   44       25.963701   0.000000
   45       27.394936   0.000000
   46       27.394936   0.000000
   47       28.267183   0.000000
   48       28.326819   0.000000
 
  0.4444444E+00  0.3333333E+00  0.0000000E+00  0.3292181E-01
    1        0.494992   1.000000
    2        0.995602   1.000000
    3        1.263701   1.000000
    4        1.470064   1.000000
    5        1.502448   1.000000
    6        1.611699   1.000000
    7        1.647489   1.000000
    8        1.664574   1.000000
    9        1.805696   1.000000
   10        1.895159   1.000000
   11        1.940346   1.000000
   12        2.083013   1.000000
   13        2.644243   1.000000
   14        2.656322   1.000000
   15        2.783362   1.000000
   16        2.851955   1.000000
   17        2.871190   1.000000
   18        2.929090   1.000000
   19        3.247385   1.000000
   20        3.286051   1.000000
   21        3.879359   1.000000
   22        4.398522   1.000000
   23        5.824556  -0.000000
   24        6.517427  -0.000000
   25       11.382221   0.000000
   26       11.830077   0.000000
   27       11.918063   0.000000
   28       13.007871   0.000000
   29       13.489814   0.000000
   30       14.532852   0.000000
   31       15.064882   0.000000
   32       16.111771   0.000000
   33       17.397561   0.000000
   34       17.863338   0.000000
   35       18.970468   0.000000
   36       20.925841   0.000000
   37       21.266363   0.000000
   38       22.670171   0.000000
   39       23.052617   0.000000
   40       23.265786   0.000000
   41       23.588231   0.000000
   42       23.836817   0.000000
   43       25.280586   0.000000
   44       26.745277   0.000000
   45       26.851196   0.000000
   46       27.120740   0.000000
   47       28.281320   0.000000
   48       28.416005   0.000000
 
  0.4444444E+00  0.4444444E+00  0.0000000E+00  0.1646091E-01
    1        0.868755   1.000000
    2        1.195560   1.000000
    3        1.195560   1.000000
    4        1.246400   1.000000
    5        1.669046   1.000000
    6        1.677051   1.000000
    7        1.677051   1.000000
    8        1.835043   1.000000
    9        1.895053   1.000000
   10        1.895053   1.000000
   11        1.934843   1.000000
   12        2.052177   1.000000
   13        2.557050   1.000000
   14        2.651233   1.000000
   15        2.682148   1.000000
   16        2.682148   1.000000
   17        2.766956   1.000000
   18        2.973189   1.000000
   19        2.973189   1.000000
   20        3.086774   1.000000
   21        4.362447   1.000000
   22        4.983573   1.000000
   23        4.983573   1.000000
   24        5.672017  -0.001101
   25       11.830361   0.000000
   26       12.530946   0.000000
   27       12.530946   0.000000
   28       12.884696   0.000000
   29       13.426271   0.000000
   30       13.953891   0.000000
   31       13.953891   0.000000
   32       15.007132   0.000000
   33       19.448089   0.000000
   34       19.448089   0.000000
   35       19.627701   0.000000
   36       20.570340   0.000000
   37       21.066764   0.000000
   38       21.825242   0.000000
   39       21.928871   0.000000
   40       21.928871   0.000000
   41       24.593534   0.000000
   42       25.178905   0.000000
   43       25.178905   0.000000
   44       26.429681   0.000000
   45       28.162695   0.000000
   46       28.255947   0.000000
   47       28.309138   0.000000
   48       28.575050   0.000000
 
  0.1111111E+00  0.1111111E+00  0.1111111E+00  0.1097394E-01
    1       -1.463410   1.000000
    2        0.695621   1.000000
    3        0.695621   1.000000
    4        0.695621   1.000000
    5        0.886853   1.000000
    6        0.886853   1.000000
    7        0.886853   1.000000
    8        1.932892   1.000000
    9        2.084655   1.000000
   10        2.084655   1.000000
   11        2.884812   1.000000
   12        2.884812   1.000000
   13        3.354192   1.000000
   14        3.354192   1.000000
   15        3.354192   1.000000
   16        3.419155   1.000000
   17        3.419155   1.000000
   18        3.419155   1.000000
   19        3.753890   1.000000
   20        3.753890   1.000000
   21        3.753890   1.000000
   22        6.633919  -0.000000
   23        6.633919  -0.000000
   24        6.633919  -0.000000
   25       10.447392   0.000000
   26       10.447392   0.000000
   27       10.447392   0.000000
   28       13.746452   0.000000
   29       13.746452   0.000000
   30       13.746452   0.000000
   31       15.179872   0.000000
   32       15.179872   0.000000
   33       15.179872   0.000000
   34       19.598684   0.000000
   35       20.471567   0.000000
   36       20.471567   0.000000
   37       20.471567   0.000000
   38       20.608211   0.000000
   39       22.463819   0.000000
   40       22.463819   0.000000
   41       22.600992   0.000000
   42       22.600992   0.000000
   43       22.600992   0.000000
   44       26.084181   0.000000
   45       27.617926   0.000000
   46       27.617927   0.000000
   47       29.048775   0.000000
   48       30.186585   0.000000
 
  0.2222222E+00  0.1111111E+00  0.1111111E+00  0.3292181E-01
    1       -1.145491   1.000000
    2        0.763503   1.000000
    3        0.832642   1.000000
    4        0.832642   1.000000
    5        0.984088   1.000000
    6        1.072191   1.000000
    7        1.072191   1.000000
    8        1.849192   1.000000
    9        2.169140   1.000000
   10        2.173421   1.000000
   11        2.787889   1.000000
   12        2.901129   1.000000
   13        2.901129   1.000000
   14        2.968915   1.000000
   15        3.046138   1.000000
   16        3.244088   1.000000
   17        3.294241   1.000000
   18        3.294241   1.000000
   19        3.684605   1.000000
   20        3.725020   1.000000
   21        3.725020   1.000000
   22        5.224530   1.008975
   23        7.169985  -0.000000
   24        7.169985  -0.000000
   25       10.259523   0.000000
   26       10.259523   0.000000
   27       12.221490   0.000000
   28       13.060141   0.000000
   29       13.060141   0.000000
   30       14.591491   0.000000
   31       15.235758   0.000000
   32       15.235758   0.000000
   33       15.733944   0.000000
   34       18.529069   0.000000
   35       20.410435   0.000000
   36       20.554704   0.000000
   37       21.096259   0.000000
   38       21.096259   0.000000
   39       21.601366   0.000000
   40       22.568645   0.000000
   41       22.937661   0.000000
   42       23.785385   0.000000
   43       23.785385   0.000000
   44       24.995083   0.000000
   45       27.227139   0.000000
   46       27.380481   0.000000
   47       29.104017   0.000000
   48       29.507551   0.000000
 
  0.3333333E+00  0.1111111E+00  0.1111111E+00  0.3292181E-01
    1       -0.641995   1.000000
    2        0.783261   1.000000
    3        1.053517   1.000000
    4        1.053517   1.000000
    5        1.131885   1.000000
    6        1.330181   1.000000
    7        1.330181   1.000000
    8        1.693835   1.000000
    9        2.272587   1.000000
   10        2.319699   1.000000
   11        2.397171   1.000000
   12        2.397171   1.000000
   13        2.605208   1.000000
   14        2.734678   1.000000
   15        3.008200   1.000000
   16        3.096908   1.000000
   17        3.097611   1.000000
   18        3.097611   1.000000
   19        3.567226   1.000000
   20        3.699343   1.000000
   21        3.699343   1.000000
   22        4.126455   1.000000
   23        7.718782  -0.000000
   24        7.718782  -0.000000
   25       10.057626   0.000000
   26       10.057626   0.000000
   27       12.615886   0.000000
   28       12.615886   0.000000
   29       13.754278   0.000000
   30       14.885801   0.000000
   31       14.885801   0.000000
   32       16.148573   0.000000
   33       16.602383   0.000000
   34       17.372796   0.000000
   35       20.360023   0.000000
   36       20.369845   0.000000
   37       20.537817   0.000000
   38       22.289641   0.000000
   39       22.289641   0.000000
   40       22.539479   0.000000
   41       22.782981   0.000000
   42       23.158534   0.000000
   43       25.291588   0.000000
   44       25.291588   0.000000
   45       27.427726   0.000000
   46       27.467909   0.000000
   47       28.026397   0.000000
   48       28.026397   0.000000
 
  0.4444444E+00  0.1111111E+00  0.1111111E+00  0.3292181E-01
    1       -0.018795   1.000000
    2        0.545433   1.000000