       N       E                     dE             d eps       ncg     rms          rms(c)
DAV:   1     0.175884178027E+03    0.17588E+03   -0.18285E+04  3408   0.690E+02
DAV:   2    -0.101238395671E+02   -0.18601E+03   -0.17281E+03  4320   0.167E+02
DAV:   3    -0.125059836952E+02   -0.23821E+01   -0.23790E+01  4248   0.188E+01
DAV:   4    -0.125173157723E+02   -0.11332E-01   -0.11332E-01  4800   0.150E+00
DAV:   5    -0.125174453270E+02   -0.12955E-03   -0.12955E-03  4080   0.164E-01    0.815E+00
DAV:   6    -0.116920555087E+02    0.82539E+00   -0.19925E+00  4584   0.643E+00    0.623E+00
DAV:   7    -0.116738222701E+02    0.18233E-01   -0.53659E-02  4464   0.107E+00    0.385E+00
DAV:   8    -0.116722383058E+02    0.15840E-02   -0.39909E-03  4536   0.275E-01    0.282E-01
DAV:   9    -0.116722289290E+02    0.93769E-05   -0.59521E-05  3792   0.296E-02
   1 F= -.11672229E+02 E0= -.11672498E+02  d E =0.807147E-03
