 vasp.5.4.1 05Feb16 (build Feb 08 2018 09:21:51) complex                        
  
 executed on             LinuxIFC date 2019.11.21  15:55:57
 running on   24 total cores
 distrk:  each k-point on   24 cores,    1 groups
 distr:  one band on NCORES_PER_BAND=   1 cores,   24 groups


--------------------------------------------------------------------------------------------------------


 INCAR:
 POTCAR:    PAW_PBE Au 04Oct2007                  

 ----------------------------------------------------------------------------- 
|                                                                             |
|           W    W    AA    RRRRR   N    N  II  N    N   GGGG   !!!           |
|           W    W   A  A   R    R  NN   N  II  NN   N  G    G  !!!           |
|           W    W  A    A  R    R  N N  N  II  N N  N  G       !!!           |
|           W WW W  AAAAAA  RRRRR   N  N N  II  N  N N  G  GGG   !            |
|           WW  WW  A    A  R   R   N   NN  II  N   NN  G    G                |
|           W    W  A    A  R    R  N    N  II  N    N   GGGG   !!!           |
|                                                                             |
|      For optimal performance we recommend to set                            |
|        NCORE= 4 - approx SQRT( number of cores)                             |
|      NCORE specifies how many cores store one orbital (NPAR=cpu/NCORE).     |
|      This setting can  greatly improve the performance of VASP for DFT.     |
|      The default, NPAR=number of cores might be grossly inefficient         |
|      on modern multi-core architectures or massively parallel machines.     |
|      Do your own testing !!!!                                               |
|      Unfortunately you need to use the default for GW and RPA calculations. |
|      (for HF NCORE is supported but not extensively tested yet)             |
|                                                                             |
 ----------------------------------------------------------------------------- 

 POTCAR:    PAW_PBE Au 04Oct2007                  
   VRHFIN =Au: s1d10                                                            
   LEXCH  = PE                                                                  
   EATOM  =   926.0867 eV,   68.0654 Ry                                         
                                                                                
   TITEL  = PAW_PBE Au 04Oct2007                                                
   LULTRA =        F    use ultrasoft PP ?                                      
   IUNSCR =        1    unscreen: 0-lin 1-nonlin 2-no                           
   RPACOR =    2.330    partial core radius                                     
   POMASS =  196.966; ZVAL   =   11.000    mass and valenz                      
   RCORE  =    2.500    outmost cutoff radius                                   
   RWIGS  =    2.840; RWIGS  =    1.503    wigner-seitz radius (au A)           
   ENMAX  =  229.943; ENMIN  =  172.457 eV                                      
   ICORE  =        3    local potential                                         
   LCOR   =        T    correct aug charges                                     
   LPAW   =        T    paw PP                                                  
   EAUG   =  356.670                                                            
   DEXC   =    0.000                                                            
   RMAX   =    2.562    core radius for proj-oper                               
   RAUG   =    1.300    factor for augmentation sphere                          
   RDEP   =    2.598    radius for radial grids                                 
   RDEPT  =    2.193    core radius for aug-charge                              
                                                                                
   Atomic configuration                                                         
   16 entries                                                                   
     n  l   j            E        occ.                                          
     1  0  0.50    -80748.5001   2.0000                                         
     2  0  0.50    -14244.7466   2.0000                                         
     2  1  1.50    -12310.9591   6.0000                                         
     3  0  0.50     -3362.1768   2.0000                                         
     3  1  1.50     -2801.5463   6.0000                                         
     3  2  2.50     -2203.8206  10.0000                                         
     4  0  0.50      -729.8168   2.0000                                         
     4  1  1.50      -546.0527   6.0000                                         
     4  2  2.50      -325.7302  10.0000                                         
     4  3  3.50       -81.1472  14.0000                                         
     5  0  0.50      -108.3201   2.0000                                         
     5  1  1.50       -59.7479   6.0000                                         
     5  2  2.50        -6.8783  10.0000                                         
     6  0  0.50        -5.7602   1.0000                                         
     6  1  1.50        -6.8029   0.0000                                         
     5  3  2.50        -1.3606   0.0000                                         
   Description                                                                  
     l       E           TYP  RCUT    TYP  RCUT                                 
     2     -6.8782861     23  2.500                                             
     2     -8.2388687     23  2.500                                             
     0     -5.7601759     23  2.500                                             
     0     -0.8493231     23  2.500                                             
     1     -2.7211652     23  2.500                                             
     1     27.2116520     23  2.500                                             
     3     -1.3605826     23  2.500                                             
  local pseudopotential read in
  partial core-charges read in
  partial kinetic energy density read in
  atomic valenz-charges read in
  non local Contribution for L=           2  read in
    real space projection operators read in
  non local Contribution for L=           2  read in
    real space projection operators read in
  non local Contribution for L=           0  read in
    real space projection operators read in
  non local Contribution for L=           0  read in
    real space projection operators read in
  non local Contribution for L=           1  read in
    real space projection operators read in
  non local Contribution for L=           1  read in
    real space projection operators read in
    PAW grid and wavefunctions read in
 
   number of l-projection  operators is LMAX  =           6
   number of lm-projection operators is LMMAX =          18
 
  PAW_PBE Au 04Oct2007                  :
 energy of atom  1       EATOM= -926.0867
 kinetic energy error for atom=    0.0062 (will be added to EATOM!!)
 
 
 POSCAR: Au                                      
  positions in cartesian coordinates
  No initial velocities read in
 exchange correlation table for  LEXCH =        8
   RHO(1)=    0.500       N(1)  =     2000
   RHO(2)=  100.500       N(2)  =     4000
 


--------------------------------------------------------------------------------------------------------


 ion  position               nearest neighbor table
   1  0.000  0.000  0.000-   2 3.17   3 3.17   4 3.17   2 3.17   3 3.17   2 3.17   4 3.17   2 3.17
                             3 3.17   4 3.17   3 3.17   4 3.17
   2  0.000  0.500  0.500-   1 3.17   3 3.17   4 3.17   1 3.17   4 3.17   1 3.17   3 3.17   1 3.17
                             3 3.17   4 3.17   4 3.17   3 3.17
   3  0.500  0.000  0.500-   1 3.17   2 3.17   4 3.17   1 3.17   4 3.17   2 3.17   4 3.17   4 3.17
                             1 3.17   2 3.17   1 3.17   2 3.17
   4  0.500  0.500  0.000-   1 3.17   2 3.17   3 3.17   2 3.17   3 3.17   1 3.17   3 3.17   3 3.17
                             1 3.17   2 3.17   2 3.17   1 3.17
 
  LATTYP: Found a simple cubic cell.
 ALAT       =     4.4880000000
  
  Lattice vectors:
  
 A1 = (   4.4880000000,   0.0000000000,   0.0000000000)
 A2 = (   0.0000000000,   4.4880000000,   0.0000000000)
 A3 = (   0.0000000000,   0.0000000000,   4.4880000000)


Analysis of symmetry for initial positions (statically):
=====================================================================
 Subroutine PRICEL returns following result:
 
  LATTYP: Found a face centered cubic cell.
 ALAT       =     4.4880000000
  
  Lattice vectors:
  
 A1 = (   2.2440000000,   2.2440000000,  -0.0000000000)
 A2 = (   2.2440000000,   0.0000000000,  -2.2440000000)
 A3 = (   0.0000000000,   2.2440000000,  -2.2440000000)
 
   4 primitive cells build up your supercell.
 

 Routine SETGRP: Setting up the symmetry group for a 
 simple cubic supercell.


 Subroutine GETGRP returns: Found 48 space group operations
 (whereof 48 operations were pure point group operations)
 out of a pool of 48 trial point group operations.


The static configuration has the point symmetry O_h .


Analysis of symmetry for dynamics (positions and initial velocities):
=====================================================================
 Subroutine PRICEL returns following result:
 
  LATTYP: Found a face centered cubic cell.
 ALAT       =     4.4880000000
  
  Lattice vectors:
  
 A1 = (   2.2440000000,   2.2440000000,  -0.0000000000)
 A2 = (   2.2440000000,   0.0000000000,  -2.2440000000)
 A3 = (   0.0000000000,   2.2440000000,  -2.2440000000)
 
   4 primitive cells build up your supercell.
 

 Routine SETGRP: Setting up the symmetry group for a 
 simple cubic supercell.


 Subroutine GETGRP returns: Found 48 space group operations
 (whereof 48 operations were pure point group operations)
 out of a pool of 48 trial point group operations.


The dynamic configuration has the point symmetry O_h .


 Subroutine INISYM returns: Found 48 space group operations
 (whereof 48 operations are pure point group operations),
 and found     4 'primitive' translations

 
 
 KPOINTS: KPOINTS created by Atomic Simulation Env

Automatic generation of k-mesh.
Space group operators:
 irot       det(A)        alpha          n_x          n_y          n_z        tau_x        tau_y        tau_z
    1     1.000000     0.000001     1.000000     0.000000     0.000000     0.000000     0.000000     0.000000
    2    -1.000000     0.000001     1.000000     0.000000     0.000000     0.000000     0.000000     0.000000
    3     1.000000   120.000000    -0.577350    -0.577350    -0.577350     0.000000     0.000000     0.000000
    4    -1.000000   120.000000    -0.577350    -0.577350    -0.577350     0.000000     0.000000     0.000000
    5     1.000000   120.000000     0.577350     0.577350     0.577350     0.000000     0.000000     0.000000
    6    -1.000000   120.000000     0.577350     0.577350     0.577350     0.000000     0.000000     0.000000
    7     1.000000    90.000000     0.000000     0.000000    -1.000000     0.000000     0.000000     0.000000
    8    -1.000000    90.000000     0.000000     0.000000    -1.000000     0.000000     0.000000     0.000000
    9     1.000000   180.000000     0.000000     0.707107     0.707107     0.000000     0.000000     0.000000
   10    -1.000000   180.000000     0.000000     0.707107     0.707107     0.000000     0.000000     0.000000
   11     1.000000    90.000000     0.000000     1.000000     0.000000     0.000000     0.000000     0.000000
   12    -1.000000    90.000000     0.000000     1.000000     0.000000     0.000000     0.000000     0.000000
   13     1.000000   180.000000     0.000000     0.000000     1.000000     0.000000     0.000000     0.000000
   14    -1.000000   180.000000     0.000000     0.000000     1.000000     0.000000     0.000000     0.000000
   15     1.000000   120.000000    -0.577350     0.577350     0.577350     0.000000     0.000000     0.000000
   16    -1.000000   120.000000    -0.577350     0.577350     0.577350     0.000000     0.000000     0.000000
   17     1.000000   120.000000    -0.577350     0.577350    -0.577350     0.000000     0.000000     0.000000
   18    -1.000000   120.000000    -0.577350     0.577350    -0.577350     0.000000     0.000000     0.000000
   19     1.000000    90.000000     0.000000     0.000000     1.000000     0.000000     0.000000     0.000000
   20    -1.000000    90.000000     0.000000     0.000000     1.000000     0.000000     0.000000     0.000000
   21     1.000000    90.000000    -1.000000     0.000000     0.000000     0.000000     0.000000     0.000000
   22    -1.000000    90.000000    -1.000000     0.000000     0.000000     0.000000     0.000000     0.000000
   23     1.000000   180.000000     0.707107     0.000000     0.707107     0.000000     0.000000     0.000000
   24    -1.000000   180.000000     0.707107     0.000000     0.707107     0.000000     0.000000     0.000000
   25     1.000000   120.000000     0.577350    -0.577350     0.577350     0.000000     0.000000     0.000000
   26    -1.000000   120.000000     0.577350    -0.577350     0.577350     0.000000     0.000000     0.000000
   27     1.000000   120.000000    -0.577350    -0.577350     0.577350     0.000000     0.000000     0.000000
   28    -1.000000   120.000000    -0.577350    -0.577350     0.577350     0.000000     0.000000     0.000000
   29     1.000000   180.000000     1.000000     0.000000     0.000000     0.000000     0.000000     0.000000
   30    -1.000000   180.000000     1.000000     0.000000     0.000000     0.000000     0.000000     0.000000
   31     1.000000    90.000000     0.000000    -1.000000     0.000000     0.000000     0.000000     0.000000
   32    -1.000000    90.000000     0.000000    -1.000000     0.000000     0.000000     0.000000     0.000000
   33     1.000000   180.000000     0.707107     0.707107     0.000000     0.000000     0.000000     0.000000
   34    -1.000000   180.000000     0.707107     0.707107     0.000000     0.000000     0.000000     0.000000
   35     1.000000    90.000000     1.000000     0.000000     0.000000     0.000000     0.000000     0.000000
   36    -1.000000    90.000000     1.000000     0.000000     0.000000     0.000000     0.000000     0.000000
   37     1.000000   120.000000     0.577350    -0.577350    -0.577350     0.000000     0.000000     0.000000
   38    -1.000000   120.000000     0.577350    -0.577350    -0.577350     0.000000     0.000000     0.000000
   39     1.000000   180.000000     0.000000     1.000000     0.000000     0.000000     0.000000     0.000000
   40    -1.000000   180.000000     0.000000     1.000000     0.000000     0.000000     0.000000     0.000000
   41     1.000000   120.000000     0.577350     0.577350    -0.577350     0.000000     0.000000     0.000000
   42    -1.000000   120.000000     0.577350     0.577350    -0.577350     0.000000     0.000000     0.000000
   43     1.000000   180.000000     0.000000    -0.707107     0.707107     0.000000     0.000000     0.000000
   44    -1.000000   180.000000     0.000000    -0.707107     0.707107     0.000000     0.000000     0.000000
   45     1.000000   180.000000     0.707107    -0.707107     0.000000     0.000000     0.000000     0.000000
   46    -1.000000   180.000000     0.707107    -0.707107     0.000000     0.000000     0.000000     0.000000
   47     1.000000   180.000000     0.707107     0.000000    -0.707107     0.000000     0.000000     0.000000
   48    -1.000000   180.000000     0.707107     0.000000    -0.707107     0.000000     0.000000     0.000000
 
 Subroutine IBZKPT returns following result:
 ===========================================
 
 Found     35 irreducible k-points:
 
 Following reciprocal coordinates:
            Coordinates               Weight
  0.000000  0.000000  0.000000      1.000000
  0.111111  0.000000  0.000000      6.000000
  0.222222  0.000000  0.000000      6.000000
  0.333333  0.000000  0.000000      6.000000
  0.444444  0.000000  0.000000      6.000000
  0.111111  0.111111  0.000000     12.000000
  0.222222  0.111111  0.000000     24.000000
  0.333333  0.111111  0.000000     24.000000
  0.444444  0.111111  0.000000     24.000000
  0.222222  0.222222  0.000000     12.000000
  0.333333  0.222222  0.000000     24.000000
  0.444444  0.222222  0.000000     24.000000
  0.333333  0.333333  0.000000     12.000000
  0.444444  0.333333  0.000000     24.000000
  0.444444  0.444444  0.000000     12.000000
  0.111111  0.111111  0.111111      8.000000
  0.222222  0.111111  0.111111     24.000000
  0.333333  0.111111  0.111111     24.000000
  0.444444  0.111111  0.111111     24.000000
  0.222222  0.222222  0.111111     24.000000
  0.333333  0.222222  0.111111     48.000000
  0.444444  0.222222  0.111111     48.000000
  0.333333  0.333333  0.111111     24.000000
  0.444444  0.333333  0.111111     48.000000
  0.444444  0.444444  0.111111     24.000000
  0.222222  0.222222  0.222222      8.000000
  0.333333  0.222222  0.222222     24.000000
  0.444444  0.222222  0.222222     24.000000
  0.333333  0.333333  0.222222     24.000000
  0.444444  0.333333  0.222222     48.000000
  0.444444  0.444444  0.222222     24.000000
  0.333333  0.333333  0.333333      8.000000
  0.444444  0.333333  0.333333     24.000000
  0.444444  0.444444  0.333333     24.000000
  0.444444  0.444444  0.444444      8.000000
 
 Following cartesian coordinates:
            Coordinates               Weight
  0.000000  0.000000  0.000000      1.000000
  0.024757  0.000000  0.000000      6.000000
  0.049515  0.000000  0.000000      6.000000
  0.074272  0.000000  0.000000      6.000000
  0.099030  0.000000  0.000000      6.000000
  0.024757  0.024757  0.000000     12.000000
  0.049515  0.024757  0.000000     24.000000
  0.074272  0.024757  0.000000     24.000000
  0.099030  0.024757  0.000000     24.000000
  0.049515  0.049515  0.000000     12.000000
  0.074272  0.049515  0.000000     24.000000
  0.099030  0.049515  0.000000     24.000000
  0.074272  0.074272  0.000000     12.000000
  0.099030  0.074272  0.000000     24.000000
  0.099030  0.099030  0.000000     12.000000
  0.024757  0.024757  0.024757      8.000000
  0.049515  0.024757  0.024757     24.000000
  0.074272  0.024757  0.024757     24.000000
  0.099030  0.024757  0.024757     24.000000
  0.049515  0.049515  0.024757     24.000000
  0.074272  0.049515  0.024757     48.000000
  0.099030  0.049515  0.024757     48.000000
  0.074272  0.074272  0.024757     24.000000
  0.099030  0.074272  0.024757     48.000000
  0.099030  0.099030  0.024757     24.000000
  0.049515  0.049515  0.049515      8.000000
  0.074272  0.049515  0.049515     24.000000
  0.099030  0.049515  0.049515     24.000000
  0.074272  0.074272  0.049515     24.000000
  0.099030  0.074272  0.049515     48.000000
  0.099030  0.099030  0.049515     24.000000
  0.074272  0.074272  0.074272      8.000000
  0.099030  0.074272  0.074272     24.000000
  0.099030  0.099030  0.074272     24.000000
  0.099030  0.099030  0.099030      8.000000
 


--------------------------------------------------------------------------------------------------------




 Dimension of arrays:
   k-points           NKPTS =     35   k-points in BZ     NKDIM =     35   number of bands    NBANDS=     48
   number of dos      NEDOS =    301   number of ions     NIONS =      4
   non local maximal  LDIM  =      6   non local SUM 2l+1 LMDIM =     18
   total plane-waves  NPLWV =  13824
   max r-space proj   IRMAX =      1   max aug-charges    IRDMAX=   9550
   dimension x,y,z NGX =    24 NGY =   24 NGZ =   24
   dimension x,y,z NGXF=    48 NGYF=   48 NGZF=   48
   support grid    NGXF=    48 NGYF=   48 NGZF=   48
   ions per type =               4
 NGX,Y,Z   is equivalent  to a cutoff of   8.89,  8.89,  8.89 a.u.
 NGXF,Y,Z  is equivalent  to a cutoff of  17.78, 17.78, 17.78 a.u.


 I would recommend the setting:
   dimension x,y,z NGX =    22 NGY =   22 NGZ =   22
 SYSTEM =  unknown system                          
 POSCAR =  Au                                      

 Startparameter for this run:
   NWRITE =      2    write-flag & timer
   PREC   = normal    normal or accurate (medium, high low for compatibility)
   ISTART =      0    job   : 0-new  1-cont  2-samecut
   ICHARG =      2    charge: 1-file 2-atom 10-const
   ISPIN  =      1    spin polarized calculation?
   LNONCOLLINEAR =      F non collinear calculations
   LSORBIT =      F    spin-orbit coupling
   INIWAV =      1    electr: 0-lowe 1-rand  2-diag
   LASPH  =      F    aspherical Exc in radial PAW
   METAGGA=      F    non-selfconsistent MetaGGA calc.

 Electronic Relaxation 1
   ENCUT  =  400.0 eV  29.40 Ry    5.42 a.u.   7.32  7.32  7.32*2*pi/ulx,y,z
   ENINI  =  400.0     initial cutoff
   ENAUG  =  356.7 eV  augmentation charge cutoff
   NELM   =     60;   NELMIN=  2; NELMDL= -5     # of ELM steps 
   EDIFF  = 0.1E-03   stopping-criterion for ELM
   LREAL  =      F    real-space projection
   NLSPLINE    = F    spline interpolate recip. space projectors
   LCOMPAT=      F    compatible to vasp.4.4
   GGA_COMPAT  = T    GGA compatible to vasp.4.4-vasp.4.6
   LMAXPAW     = -100 max onsite density
   LMAXMIX     =    2 max onsite mixed and CHGCAR
   VOSKOWN=      0    Vosko Wilk Nusair interpolation
   ROPT   =    0.00000
 Ionic relaxation
   EDIFFG = 0.1E-02   stopping-criterion for IOM
   NSW    =      0    number of steps for IOM
   NBLOCK =      1;   KBLOCK =      1    inner block; outer block 
   IBRION =     -1    ionic relax: 0-MD 1-quasi-New 2-CG
   NFREE  =      0    steps in history (QN), initial steepest desc. (CG)
   ISIF   =      2    stress and relaxation
   IWAVPR =     10    prediction:  0-non 1-charg 2-wave 3-comb
   ISYM   =      2    0-nonsym 1-usesym 2-fastsym
   LCORR  =      T    Harris-Foulkes like correction to forces

   POTIM  = 0.5000    time-step for ionic-motion
   TEIN   =    0.0    initial temperature
   TEBEG  =    0.0;   TEEND  =   0.0 temperature during run
   SMASS  =  -3.00    Nose mass-parameter (am)
   estimated Nose-frequenzy (Omega)   =  0.10E-29 period in steps =****** mass=  -0.460E-27a.u.
   SCALEE = 1.0000    scale energy and forces
   NPACO  =    256;   APACO  = 16.0  distance and # of slots for P.C.
   PSTRESS=    0.0 pullay stress

  Mass of Ions in am
   POMASS = 196.97
  Ionic Valenz
   ZVAL   =  11.00
  Atomic Wigner-Seitz radii
   RWIGS  =  -1.00
  virtual crystal weights 
   VCA    =   1.00
   NELECT =      44.0000    total number of electrons
   NUPDOWN=      -1.0000    fix difference up-down

 DOS related values:
   EMIN   =  10.00;   EMAX   =-10.00  energy-range for DOS
   EFERMI =   0.00
   ISMEAR =     1;   SIGMA  =   0.10  broadening in eV -4-tet -1-fermi 0-gaus

 Electronic relaxation 2 (details)
   IALGO  =     38    algorithm
   LDIAG  =      T    sub-space diagonalisation (order eigenvalues)
   LSUBROT=      F    optimize rotation matrix (better conditioning)
   TURBO    =      0    0=normal 1=particle mesh
   IRESTART =      0    0=no restart 2=restart with 2 vectors
   NREBOOT  =      0    no. of reboots
   NMIN     =      0    reboot dimension
   EREF     =   0.00    reference energy to select bands
   IMIX   =      4    mixing-type and parameters
     AMIX     =   0.40;   BMIX     =  1.00
     AMIX_MAG =   1.60;   BMIX_MAG =  1.00
     AMIN     =   0.10
     WC   =   100.;   INIMIX=   1;  MIXPRE=   1;  MAXMIX= -45

 Intra band minimization:
   WEIMIN = 0.0000     energy-eigenvalue tresh-hold
   EBREAK =  0.52E-06  absolut break condition
   DEPER  =   0.30     relativ break condition  

   TIME   =   0.40     timestep for ELM

  volume/ion in A,a.u.               =      22.60       152.51
  Fermi-wavevector in a.u.,A,eV,Ry     =   1.287774  2.433539 22.563372  1.658361
  Thomas-Fermi vector in A             =   2.419768
 
 Write flags
   LWAVE  =      F    write WAVECAR
   LCHARG =      F    write CHGCAR
   LVTOT  =      F    write LOCPOT, total local potential
   LVHAR  =      F    write LOCPOT, Hartree potential only
   LELF   =      F    write electronic localiz. function (ELF)
   LORBIT =      0    0 simple, 1 ext, 2 COOP (PROOUT)


 Dipole corrections
   LMONO  =      F    monopole corrections only (constant potential shift)
   LDIPOL =      F    correct potential (dipole corrections)
   IDIPOL =      0    1-x, 2-y, 3-z, 4-all directions 
   EPSILON=  1.0000000 bulk dielectric constant

 Exchange correlation treatment:
   GGA     =    --    GGA type
   LEXCH   =     8    internal setting for exchange type
   VOSKOWN=      0    Vosko Wilk Nusair interpolation
   LHFCALC =     F    Hartree Fock is set to
   LHFONE  =     F    Hartree Fock one center treatment
   AEXX    =    0.0000 exact exchange contribution

 Linear response parameters
   LEPSILON=     F    determine dielectric tensor
   LRPA    =     F    only Hartree local field effects (RPA)
   LNABLA  =     F    use nabla operator in PAW spheres
   LVEL    =     F    velocity operator in full k-point grid
   LINTERFAST=   F  fast interpolation
   KINTER  =     0    interpolate to denser k-point grid
   CSHIFT  =0.1000    complex shift for real part using Kramers Kronig
   OMEGAMAX=  -1.0    maximum frequency
   DEG_THRESHOLD= 0.2000000E-02 threshold for treating states as degnerate
   RTIME   =    0.100 relaxation time in fs

 Orbital magnetization related:
   ORBITALMAG=     F  switch on orbital magnetization
   LCHIMAG   =     F  perturbation theory with respect to B field
   DQ        =  0.001000  dq finite difference perturbation B field



--------------------------------------------------------------------------------------------------------


 Static calculation
 charge density and potential will be updated during run
 non-spin polarized calculation
 Variant of blocked Davidson
 Davidson routine will perform the subspace rotation
 perform sub-space diagonalisation
    after iterative eigenvector-optimisation
 modified Broyden-mixing scheme, WC =      100.0
 initial mixing is a Kerker type mixing with AMIX =  0.4000 and BMIX =      1.0000
 Hartree-type preconditioning will be used
 using additional bands           26
 reciprocal scheme for non local part
 use partial core corrections
 calculate Harris-corrections to forces 
   (improved forces if not selfconsistent)
 use gradient corrections 
 use of overlap-Matrix (Vanderbilt PP)
 Methfessel and Paxton  Order N= 1 SIGMA  =   0.10


--------------------------------------------------------------------------------------------------------


  energy-cutoff  :      400.00
  volume of cell :       90.40
      direct lattice vectors                 reciprocal lattice vectors
     4.488000000  0.000000000  0.000000000     0.222816399  0.000000000  0.000000000
     0.000000000  4.488000000  0.000000000     0.000000000  0.222816399  0.000000000
     0.000000000  0.000000000  4.488000000     0.000000000  0.000000000  0.222816399

  length of vectors
     4.488000000  4.488000000  4.488000000     0.222816399  0.222816399  0.222816399


 
 k-points in units of 2pi/SCALE and weight: KPOINTS created by Atomic Simulation Env
   0.00000000  0.00000000  0.00000000       0.001
   0.02475738  0.00000000  0.00000000       0.008
   0.04951476  0.00000000  0.00000000       0.008
   0.07427213  0.00000000  0.00000000       0.008
   0.09902951  0.00000000  0.00000000       0.008
   0.02475738  0.02475738  0.00000000       0.016
   0.04951476  0.02475738  0.00000000       0.033
   0.07427213  0.02475738  0.00000000       0.033
   0.09902951  0.02475738  0.00000000       0.033
   0.04951476  0.04951476  0.00000000       0.016
   0.07427213  0.04951476  0.00000000       0.033
   0.09902951  0.04951476  0.00000000       0.033
   0.07427213  0.07427213  0.00000000       0.016
   0.09902951  0.07427213  0.00000000       0.033
   0.09902951  0.09902951  0.00000000       0.016
   0.02475738  0.02475738  0.02475738       0.011
   0.04951476  0.02475738  0.02475738       0.033
   0.07427213  0.02475738  0.02475738       0.033
   0.09902951  0.02475738  0.02475738       0.033
   0.04951476  0.04951476  0.02475738       0.033
   0.07427213  0.04951476  0.02475738       0.066
   0.09902951  0.04951476  0.02475738       0.066
   0.07427213  0.07427213  0.02475738       0.033
   0.09902951  0.07427213  0.02475738       0.066
   0.09902951  0.09902951  0.02475738       0.033
   0.04951476  0.04951476  0.04951476       0.011
   0.07427213  0.04951476  0.04951476       0.033
   0.09902951  0.04951476  0.04951476       0.033
   0.07427213  0.07427213  0.04951476       0.033
   0.09902951  0.07427213  0.04951476       0.066
   0.09902951  0.09902951  0.04951476       0.033
   0.07427213  0.07427213  0.07427213       0.011
   0.09902951  0.07427213  0.07427213       0.033
   0.09902951  0.09902951  0.07427213       0.033
   0.09902951  0.09902951  0.09902951       0.011
 
 k-points in reciprocal lattice and weights: KPOINTS created by Atomic Simulation Env
   0.00000000  0.00000000  0.00000000       0.001
   0.11111111  0.00000000  0.00000000       0.008
   0.22222222  0.00000000  0.00000000       0.008
   0.33333333  0.00000000  0.00000000       0.008
   0.44444444  0.00000000  0.00000000       0.008
   0.11111111  0.11111111  0.00000000       0.016
   0.22222222  0.11111111  0.00000000       0.033
   0.33333333  0.11111111  0.00000000       0.033
   0.44444444  0.11111111  0.00000000       0.033
   0.22222222  0.22222222  0.00000000       0.016
   0.33333333  0.22222222  0.00000000       0.033
   0.44444444  0.22222222  0.00000000       0.033
   0.33333333  0.33333333  0.00000000       0.016
   0.44444444  0.33333333  0.00000000       0.033
   0.44444444  0.44444444  0.00000000       0.016
   0.11111111  0.11111111  0.11111111       0.011
   0.22222222  0.11111111  0.11111111       0.033
   0.33333333  0.11111111  0.11111111       0.033
   0.44444444  0.11111111  0.11111111       0.033
   0.22222222  0.22222222  0.11111111       0.033
   0.33333333  0.22222222  0.11111111       0.066
   0.44444444  0.22222222  0.11111111       0.066
   0.33333333  0.33333333  0.11111111       0.033
   0.44444444  0.33333333  0.11111111       0.066
   0.44444444  0.44444444  0.11111111       0.033
   0.22222222  0.22222222  0.22222222       0.011
   0.33333333  0.22222222  0.22222222       0.033
   0.44444444  0.22222222  0.22222222       0.033
   0.33333333  0.33333333  0.22222222       0.033
   0.44444444  0.33333333  0.22222222       0.066
   0.44444444  0.44444444  0.22222222       0.033
   0.33333333  0.33333333  0.33333333       0.011
   0.44444444  0.33333333  0.33333333       0.033
   0.44444444  0.44444444  0.33333333       0.033
   0.44444444  0.44444444  0.44444444       0.011
 
 position of ions in fractional coordinates (direct lattice) 
   0.00000000  0.00000000  0.00000000
   0.00000000  0.50000000  0.50000000
   0.50000000  0.00000000  0.50000000
   0.50000000  0.50000000  0.00000000
 
 position of ions in cartesian coordinates  (Angst):
   0.00000000  0.00000000  0.00000000
   0.00000000  2.24400000  2.24400000
   2.24400000  0.00000000  2.24400000
   2.24400000  2.24400000  0.00000000
 


--------------------------------------------------------------------------------------------------------


 k-point  1 :   0.0000 0.0000 0.0000  plane waves:    1647
 k-point  2 :   0.1111 0.0000 0.0000  plane waves:    1655
 k-point  3 :   0.2222 0.0000 0.0000  plane waves:    1659
 k-point  4 :   0.3333 0.0000 0.0000  plane waves:    1662
 k-point  5 :   0.4444 0.0000 0.0000  plane waves:    1646
 k-point  6 :   0.1111 0.1111 0.0000  plane waves:    1657
 k-point  7 :   0.2222 0.1111 0.0000  plane waves:    1654
 k-point  8 :   0.3333 0.1111 0.0000  plane waves:    1648
 k-point  9 :   0.4444 0.1111 0.0000  plane waves:    1642
 k-point 10 :   0.2222 0.2222 0.0000  plane waves:    1638
 k-point 11 :   0.3333 0.2222 0.0000  plane waves:    1639
 k-point 12 :   0.4444 0.2222 0.0000  plane waves:    1640
 k-point 13 :   0.3333 0.3333 0.0000  plane waves:    1634
 k-point 14 :   0.4444 0.3333 0.0000  plane waves:    1633
 k-point 15 :   0.4444 0.4444 0.0000  plane waves:    1648
 k-point 16 :   0.1111 0.1111 0.1111  plane waves:    1656
 k-point 17 :   0.2222 0.1111 0.1111  plane waves:    1654
 k-point 18 :   0.3333 0.1111 0.1111  plane waves:    1640
 k-point 19 :   0.4444 0.1111 0.1111  plane waves:    1643
 k-point 20 :   0.2222 0.2222 0.1111  plane waves:    1645
 k-point 21 :   0.3333 0.2222 0.1111  plane waves:    1645
 k-point 22 :   0.4444 0.2222 0.1111  plane waves:    1633
 k-point 23 :   0.3333 0.3333 0.1111  plane waves:    1631
 k-point 24 :   0.4444 0.3333 0.1111  plane waves:    1639
 k-point 25 :   0.4444 0.4444 0.1111  plane waves:    1644
 k-point 26 :   0.2222 0.2222 0.2222  plane waves:    1635
 k-point 27 :   0.3333 0.2222 0.2222  plane waves:    1635
 k-point 28 :   0.4444 0.2222 0.2222  plane waves:    1642
 k-point 29 :   0.3333 0.3333 0.2222  plane waves:    1641
 k-point 30 :   0.4444 0.3333 0.2222  plane waves:    1646
 k-point 31 :   0.4444 0.4444 0.2222  plane waves:    1642
 k-point 32 :   0.3333 0.3333 0.3333  plane waves:    1634
 k-point 33 :   0.4444 0.3333 0.3333  plane waves:    1637
 k-point 34 :   0.4444 0.4444 0.3333  plane waves:    1644
 k-point 35 :   0.4444 0.4444 0.4444  plane waves:    1631

 maximum and minimum number of plane-waves per node :      1662     1631

 maximum number of plane-waves:      1662
 maximum index in each direction: 
   IXMAX=    7   IYMAX=    7   IZMAX=    7
   IXMIN=   -7   IYMIN=   -7   IZMIN=   -7

 WARNING: aliasing errors must be expected set NGX to  30 to avoid them
 WARNING: aliasing errors must be expected set NGY to  30 to avoid them
 WARNING: aliasing errors must be expected set NGZ to  30 to avoid them
 aliasing errors are usually negligible using standard VASP settings
 and one can safely disregard these warnings

 serial   3D FFT for wavefunctions
 parallel 3D FFT for charge:
    minimum data exchange during FFTs selected (reduces bandwidth)


 total amount of memory used by VASP on root node    41608. kBytes
========================================================================

   base      :      30000. kBytes
   nonl-proj :       8574. kBytes
   fftplans  :        221. kBytes
   grid      :        789. kBytes
   one-center:         62. kBytes
   wavefun   :       1962. kBytes
 
     INWAV:  cpu time    0.0000: real time    0.0001
 Broyden mixing: mesh for mixing (old mesh)
   NGX = 15   NGY = 15   NGZ = 15
  (NGX  = 48   NGY  = 48   NGZ  = 48)
  gives a total of   3375 points

 initial charge density was supplied:
 charge density of overlapping atoms calculated
 number of electron      44.0000000 magnetization 
 keeping initial charge density in first step


--------------------------------------------------------------------------------------------------------


 Maximum index for augmentation-charges          517 (set IRDMAX)


--------------------------------------------------------------------------------------------------------


 First call to EWALD:  gamma=   0.395
 Maximum number of real-space cells 3x 3x 3
 Maximum number of reciprocal cells 3x 3x 3

 FEWALD executed in parallel
    FEWALD:  cpu time    0.0015: real time    0.0016


----------------------------------------- Iteration    1(   1)  ---------------------------------------


    POTLOK:  cpu time    0.1641: real time    0.1642
    SETDIJ:  cpu time    0.0060: real time    0.0061
     EDDAV:  cpu time    0.5848: real time    0.5909
       DOS:  cpu time    0.0008: real time    0.0008
    --------------------------------------------
      LOOP:  cpu time    0.7576: real time    0.7654

 eigenvalue-minimisations  :  3408
 total energy-change (2. order) : 0.1758842E+03  (-0.1828530E+04)
 number of electron      44.0000000 magnetization 
 augmentation part       44.0000000 magnetization 

 Free energy of the ion-electron system (eV)
  ---------------------------------------------------
  alpha Z        PSCENC =       206.16328571
  Ewald energy   TEWEN  =     -3559.95797220
  -Hartree energ DENC   =      -648.53455856
  -exchange      EXHF   =         0.00000000
  -V(xc)+E(xc)   XCENC  =        59.27772485
  PAW double counting   =      3496.39001341    -3404.04053930
  entropy T*S    EENTRO =        -0.00054457
  eigenvalues    EBANDS =       322.26469361
  atomic energy  EATOM  =      3704.32207507
  Solvation  Ediel_sol  =         0.00000000
  ---------------------------------------------------
  free energy    TOTEN  =       175.88417803 eV

  energy without entropy =      175.88472259  energy(sigma->0) =      175.88435955


--------------------------------------------------------------------------------------------------------




----------------------------------------- Iteration    1(   2)  ---------------------------------------


     EDDAV:  cpu time    0.7929: real time    0.8025
       DOS:  cpu time    0.0007: real time    0.0007
    --------------------------------------------
      LOOP:  cpu time    0.7950: real time    0.8098

 eigenvalue-minimisations  :  4320
 total energy-change (2. order) :-0.1860080E+03  (-0.1728128E+03)
 number of electron      44.0000000 magnetization 
 augmentation part       44.0000000 magnetization 

 Free energy of the ion-electron system (eV)
  ---------------------------------------------------
  alpha Z        PSCENC =       206.16328571
  Ewald energy   TEWEN  =     -3559.95797220
  -Hartree energ DENC   =      -648.53455856
  -exchange      EXHF   =         0.00000000
  -V(xc)+E(xc)   XCENC  =        59.27772485
  PAW double counting   =      3496.39001341    -3404.04053930
  entropy T*S    EENTRO =         0.00063337
  eigenvalues    EBANDS =       136.25549808
  atomic energy  EATOM  =      3704.32207507
  Solvation  Ediel_sol  =         0.00000000
  ---------------------------------------------------
  free energy    TOTEN  =       -10.12383957 eV

  energy without entropy =      -10.12447294  energy(sigma->0) =      -10.12405069


--------------------------------------------------------------------------------------------------------




----------------------------------------- Iteration    1(   3)  ---------------------------------------


     EDDAV:  cpu time    0.7258: real time    0.7277
       DOS:  cpu time    0.0006: real time    0.0006
    --------------------------------------------
      LOOP:  cpu time    0.7273: real time    0.7318

 eigenvalue-minimisations  :  4248
 total energy-change (2. order) :-0.2382144E+01  (-0.2378962E+01)
 number of electron      44.0000000 magnetization 
 augmentation part       44.0000000 magnetization 

 Free energy of the ion-electron system (eV)
  ---------------------------------------------------
  alpha Z        PSCENC =       206.16328571
  Ewald energy   TEWEN  =     -3559.95797220
  -Hartree energ DENC   =      -648.53455856
  -exchange      EXHF   =         0.00000000
  -V(xc)+E(xc)   XCENC  =        59.27772485
  PAW double counting   =      3496.39001341    -3404.04053930
  entropy T*S    EENTRO =         0.00067010
  eigenvalues    EBANDS =       133.87331722
  atomic energy  EATOM  =      3704.32207507
  Solvation  Ediel_sol  =         0.00000000
  ---------------------------------------------------
  free energy    TOTEN  =       -12.50598370 eV

  energy without entropy =      -12.50665380  energy(sigma->0) =      -12.50620706


--------------------------------------------------------------------------------------------------------




----------------------------------------- Iteration    1(   4)  ---------------------------------------


     EDDAV:  cpu time    0.9166: real time    0.9206
       DOS:  cpu time    0.0007: real time    0.0007
    --------------------------------------------
      LOOP:  cpu time    0.9182: real time    0.9303

 eigenvalue-minimisations  :  4800
 total energy-change (2. order) :-0.1133208E-01  (-0.1133184E-01)
 number of electron      44.0000000 magnetization 
 augmentation part       44.0000000 magnetization 

 Free energy of the ion-electron system (eV)
  ---------------------------------------------------
  alpha Z        PSCENC =       206.16328571
  Ewald energy   TEWEN  =     -3559.95797220
  -Hartree energ DENC   =      -648.53455856
  -exchange      EXHF   =         0.00000000
  -V(xc)+E(xc)   XCENC  =        59.27772485
  PAW double counting   =      3496.39001341    -3404.04053930
  entropy T*S    EENTRO =         0.00066942
  eigenvalues    EBANDS =       133.86198582
  atomic energy  EATOM  =      3704.32207507
  Solvation  Ediel_sol  =         0.00000000
  ---------------------------------------------------
  free energy    TOTEN  =       -12.51731577 eV

  energy without entropy =      -12.51798519  energy(sigma->0) =      -12.51753891


--------------------------------------------------------------------------------------------------------




----------------------------------------- Iteration    1(   5)  ---------------------------------------


     EDDAV:  cpu time    0.7558: real time    0.7569
       DOS:  cpu time    0.0007: real time    0.0007
    CHARGE:  cpu time    0.0148: real time    0.0148
    MIXING:  cpu time    0.0005: real time    0.0005
    --------------------------------------------
      LOOP:  cpu time    0.7729: real time    0.7796

 eigenvalue-minimisations  :  4080
 total energy-change (2. order) :-0.1295547E-03  (-0.1295545E-03)
 number of electron      43.9999986 magnetization 
 augmentation part       15.6613915 magnetization 

 Broyden mixing:
  rms(total) = 0.81461E+00    rms(broyden)= 0.81460E+00
  rms(prec ) = 0.14204E+01
  weight for this iteration     100.00

 Free energy of the ion-electron system (eV)
  ---------------------------------------------------
  alpha Z        PSCENC =       206.16328571
  Ewald energy   TEWEN  =     -3559.95797220
  -Hartree energ DENC   =      -648.53455856
  -exchange      EXHF   =         0.00000000
  -V(xc)+E(xc)   XCENC  =        59.27772485
  PAW double counting   =      3496.39001341    -3404.04053930
  entropy T*S    EENTRO =         0.00066942
  eigenvalues    EBANDS =       133.86185627
  atomic energy  EATOM  =      3704.32207507
  Solvation  Ediel_sol  =         0.00000000
  ---------------------------------------------------
  free energy    TOTEN  =       -12.51744533 eV

  energy without entropy =      -12.51811474  energy(sigma->0) =      -12.51766847


--------------------------------------------------------------------------------------------------------




----------------------------------------- Iteration    1(   6)  ---------------------------------------


    POTLOK:  cpu time    0.0043: real time    0.0043
    SETDIJ:  cpu time    0.0024: real time    0.0024
     EDDAV:  cpu time    0.8508: real time    0.8523
       DOS:  cpu time    0.0006: real time    0.0007
    CHARGE:  cpu time    0.0147: real time    0.0147
    MIXING:  cpu time    0.0004: real time    0.0004
    --------------------------------------------
      LOOP:  cpu time    0.8744: real time    0.8836

 eigenvalue-minimisations  :  4584
 total energy-change (2. order) : 0.8253898E+00  (-0.1992537E+00)
 number of electron      43.9999985 magnetization 
 augmentation part       16.2043327 magnetization 

 Broyden mixing:
  rms(total) = 0.62253E+00    rms(broyden)= 0.62253E+00
  rms(prec ) = 0.66098E+00
  weight for this iteration     100.00

 eigenvalues of (default mixing * dielectric matrix)
  average eigenvalue GAMMA=   1.0323
  1.0323

 Free energy of the ion-electron system (eV)
  ---------------------------------------------------
  alpha Z        PSCENC =       206.16328571
  Ewald energy   TEWEN  =     -3559.95797220
  -Hartree energ DENC   =      -616.96746061
  -exchange      EXHF   =         0.00000000
  -V(xc)+E(xc)   XCENC  =        57.86576866
  PAW double counting   =      3563.20873283    -3473.86354881
  entropy T*S    EENTRO =         0.00087593
  eigenvalues    EBANDS =       107.53618792
  atomic energy  EATOM  =      3704.32207507
  Solvation  Ediel_sol  =         0.00000000
  ---------------------------------------------------
  free energy    TOTEN  =       -11.69205551 eV

  energy without entropy =      -11.69293143  energy(sigma->0) =      -11.69234748


--------------------------------------------------------------------------------------------------------




----------------------------------------- Iteration    1(   7)  ---------------------------------------


    POTLOK:  cpu time    0.0042: real time    0.0043
    SETDIJ:  cpu time    0.0024: real time    0.0024
     EDDAV:  cpu time    0.8100: real time    0.8116
       DOS:  cpu time    0.0007: real time    0.0007
    CHARGE:  cpu time    0.0131: real time    0.0131
    MIXING:  cpu time    0.0003: real time    0.0003
    --------------------------------------------
      LOOP:  cpu time    0.8319: real time    0.8352

 eigenvalue-minimisations  :  4464
 total energy-change (2. order) : 0.1823324E-01  (-0.5365911E-02)
 number of electron      43.9999985 magnetization 
 augmentation part       16.2850909 magnetization 

 Broyden mixing:
  rms(total) = 0.38549E+00    rms(broyden)= 0.38549E+00
  rms(prec ) = 0.39313E+00
  weight for this iteration     100.00

 eigenvalues of (default mixing * dielectric matrix)
  average eigenvalue GAMMA=   1.9156
  1.1365  2.6946

 Free energy of the ion-electron system (eV)
  ---------------------------------------------------
  alpha Z        PSCENC =       206.16328571
  Ewald energy   TEWEN  =     -3559.95797220
  -Hartree energ DENC   =      -610.64213086
  -exchange      EXHF   =         0.00000000
  -V(xc)+E(xc)   XCENC  =        57.55948857
  PAW double counting   =      3637.88252618    -3549.91164738
  entropy T*S    EENTRO =         0.00081921
  eigenvalues    EBANDS =       102.90973343
  atomic energy  EATOM  =      3704.32207507
  Solvation  Ediel_sol  =         0.00000000
  ---------------------------------------------------
  free energy    TOTEN  =       -11.67382227 eV

  energy without entropy =      -11.67464148  energy(sigma->0) =      -11.67409534


--------------------------------------------------------------------------------------------------------




----------------------------------------- Iteration    1(   8)  ---------------------------------------


    POTLOK:  cpu time    0.0045: real time    0.0045
    SETDIJ:  cpu time    0.0022: real time    0.0022
     EDDAV:  cpu time    0.8291: real time    0.8304
       DOS:  cpu time    0.0007: real time    0.0007
    CHARGE:  cpu time    0.0128: real time    0.0129
    MIXING:  cpu time    0.0003: real time    0.0003
    --------------------------------------------
      LOOP:  cpu time    0.8509: real time    0.8594

 eigenvalue-minimisations  :  4536
 total energy-change (2. order) : 0.1583964E-02  (-0.3990875E-03)
 number of electron      43.9999985 magnetization 
 augmentation part       16.2946595 magnetization 

 Broyden mixing:
  rms(total) = 0.28184E-01    rms(broyden)= 0.28184E-01
  rms(prec ) = 0.28496E-01
  weight for this iteration     100.00

 eigenvalues of (default mixing * dielectric matrix)
  average eigenvalue GAMMA=   1.5284
  2.5413  1.1465  0.8973

 Free energy of the ion-electron system (eV)
  ---------------------------------------------------
  alpha Z        PSCENC =       206.16328571
  Ewald energy   TEWEN  =     -3559.95797220
  -Hartree energ DENC   =      -607.50856263
  -exchange      EXHF   =         0.00000000
  -V(xc)+E(xc)   XCENC  =        57.37939627
  PAW double counting   =      3741.30755475    -3654.81456902
  entropy T*S    EENTRO =         0.00080404
  eigenvalues    EBANDS =       101.43574971
  atomic energy  EATOM  =      3704.32207507
  Solvation  Ediel_sol  =         0.00000000
  ---------------------------------------------------
  free energy    TOTEN  =       -11.67223831 eV

  energy without entropy =      -11.67304234  energy(sigma->0) =      -11.67250632


--------------------------------------------------------------------------------------------------------




----------------------------------------- Iteration    1(   9)  ---------------------------------------


    POTLOK:  cpu time    0.0035: real time    0.0035
    SETDIJ:  cpu time    0.0022: real time    0.0022
     EDDAV:  cpu time    0.7163: real time    0.7177
       DOS:  cpu time    0.0007: real time    0.0007
    --------------------------------------------
      LOOP:  cpu time    0.7237: real time    0.7270

 eigenvalue-minimisations  :  3792
 total energy-change (2. order) : 0.9376890E-05  (-0.5952069E-05)
 number of electron      43.9999985 magnetization 
 augmentation part       16.2946595 magnetization 

 Free energy of the ion-electron system (eV)
  ---------------------------------------------------
  alpha Z        PSCENC =       206.16328571
  Ewald energy   TEWEN  =     -3559.95797220
  -Hartree energ DENC   =      -607.76527334
  -exchange      EXHF   =         0.00000000
  -V(xc)+E(xc)   XCENC  =        57.39195933
  PAW double counting   =      3735.27382040    -3648.63195049
  entropy T*S    EENTRO =         0.00080715
  eigenvalues    EBANDS =       101.53101945
  atomic energy  EATOM  =      3704.32207507
  Solvation  Ediel_sol  =         0.00000000
  ---------------------------------------------------
  free energy    TOTEN  =       -11.67222893 eV

  energy without entropy =      -11.67303608  energy(sigma->0) =      -11.67249798


--------------------------------------------------------------------------------------------------------




 average (electrostatic) potential at core
  the test charge radii are     1.2098
  (the norm of the test charge is              1.0000)
       1 -67.2922       2 -67.2922       3 -67.2922       4 -67.2922
 
 
 
 E-fermi :   5.4209     XC(G=0): -11.0816     alpha+bet :-10.5069


 k-point     1 :       0.0000    0.0000    0.0000
  band No.  band energies     occupation 
      1      -1.7942      2.00000
      2       0.5532      2.00000
      3       0.5532      2.00000
      4       0.5532      2.00000
      5       0.7359      2.00000
      6       0.7359      2.00000
      7       0.7359      2.00000
      8       1.9989      2.00000
      9       1.9989      2.00000
     10       1.9989      2.00000
     11       2.9106      2.00000
     12       2.9106      2.00000
     13       3.6047      2.00000
     14       3.6047      2.00000
     15       3.6047      2.00000
     16       3.8274      2.00000
     17       3.8274      2.00000
     18       3.8274      2.00000
     19       3.8274      2.00000
     20       3.8274      2.00000
     21       3.8274      2.00000
     22       7.1962     -0.00000
     23       7.1962     -0.00000
     24       7.1962     -0.00000
     25       9.2735      0.00000
     26       9.2735      0.00000
     27       9.2735      0.00000
     28      14.6044      0.00000
     29      14.6044      0.00000
     30      14.6044      0.00000
     31      14.6044      0.00000
     32      14.6044      0.00000
     33      14.6044      0.00000
     34      19.8478      0.00000
     35      19.8478      0.00000
     36      19.8478      0.00000
     37      19.9952      0.00000
     38      21.8525      0.00000
     39      21.8525      0.00000
     40      21.8525      0.00000
     41      22.3441      0.00000
     42      22.3441      0.00000
     43      22.3441      0.00000
     44      26.5034      0.00000
     45      28.8249      0.00000
     46      28.8249      0.00000
     47      28.8249      0.00000
     48      29.6071      0.00000

 k-point     2 :       0.1111    0.0000    0.0000
  band No.  band energies     occupation 
      1      -1.6819      2.00000
      2       0.5829      2.00000
      3       0.6186      2.00000
      4       0.6186      2.00000
      5       0.7697      2.00000
      6       0.7880      2.00000
      7       0.7880      2.00000
      8       1.9557      2.00000
      9       2.0402      2.00000
     10       2.0402      2.00000
     11       2.8660      2.00000
     12       2.9303      2.00000
     13       3.5426      2.00000
     14       3.5426      2.00000
     15       3.5825      2.00000
     16       3.6044      2.00000
     17       3.6044      2.00000
     18       3.7506      2.00000
     19       3.7506      2.00000
     20       3.8275      2.00000
     21       3.8275      2.00000
     22       6.1150     -0.00000
     23       7.5110     -0.00000
     24       7.5110     -0.00000
     25       9.2144      0.00000
     26       9.2144      0.00000
     27      10.5570      0.00000
     28      14.3382      0.00000
     29      14.3382      0.00000
     30      14.3785      0.00000
     31      14.3785      0.00000
     32      14.8092      0.00000
     33      14.8092      0.00000
     34      19.8211      0.00000
     35      20.0674      0.00000
     36      20.4132      0.00000
     37      20.4132      0.00000
     38      21.8098      0.00000
     39      21.8939      0.00000
     40      22.0807      0.00000
     41      22.0807      0.00000
     42      22.1117      0.00000
     43      22.1117      0.00000
     44      27.1540      0.00000
     45      28.0480      0.00000
     46      28.0480      0.00000
     47      28.5309      0.00000
     48      28.9647      0.00000

 k-point     3 :       0.2222    0.0000    0.0000
  band No.  band energies     occupation 
      1      -1.3511      2.00000
      2       0.6496      2.00000
      3       0.8015      2.00000
      4       0.8015      2.00000
      5       0.8684      2.00000
      6       0.9443      2.00000
      7       0.9443      2.00000
      8       1.8335      2.00000
      9       2.1623      2.00000
     10       2.1623      2.00000
     11       2.7433      2.00000
     12       2.9875      2.00000
     13       3.1038      2.00000
     14       3.1038      2.00000
     15       3.3658      2.00000
     16       3.3658      2.00000
     17       3.5188      2.00000
     18       3.5412      2.00000
     19       3.5412      2.00000
     20       3.8278      2.00000
     21       3.8278      2.00000
     22       4.6171      2.00000
     23       8.2829      0.00000
     24       8.2829      0.00000
     25       9.0654      0.00000
     26       9.0654      0.00000
     27      12.6761      0.00000
     28      13.6303      0.00000
     29      13.6303      0.00000
     30      13.9412      0.00000
     31      13.9412      0.00000
     32      15.3987      0.00000
     33      15.3987      0.00000
     34      19.7655      0.00000
     35      20.2688      0.00000
     36      21.0770      0.00000
     37      21.2904      0.00000
     38      21.2904      0.00000
     39      21.6831      0.00000
     40      21.8363      0.00000
     41      21.8363      0.00000
     42      22.8165      0.00000
     43      22.8165      0.00000
     44      25.7742      0.00000
     45      27.6212      0.00000
     46      27.6212      0.00000
     47      29.2597      0.00000
     48      29.3890      0.00000

 k-point     4 :       0.3333    0.0000    0.0000
  band No.  band energies     occupation 
      1      -0.8249      2.00000
      2       0.6634      2.00000
      3       1.0235      2.00000
      4       1.0540      2.00000
      5       1.0540      2.00000
      6       1.2034      2.00000
      7       1.2034      2.00000
      8       1.6520      2.00000
      9       2.3596      2.00000
     10       2.3596      2.00000
     11       2.5404      2.00000
     12       2.5404      2.00000
     13       2.5811      2.00000
     14       3.0762      2.00000
     15       3.1158      2.00000
     16       3.1158      2.00000
     17       3.2488      2.00000
     18       3.2488      2.00000
     19       3.3737      2.00000
     20       3.4228      2.00000
     21       3.8280      2.00000
     22       3.8280      2.00000
     23       8.8989      0.00000
     24       8.8989      0.00000
     25       9.2851      0.00000
     26       9.2851      0.00000
     27      12.6521      0.00000
     28      12.6521      0.00000
     29      13.5805      0.00000
     30      13.5805      0.00000
     31      15.0248      0.00000
     32      16.3105      0.00000
     33      16.3105      0.00000
     34      19.7469      0.00000
     35      20.1070      0.00000
     36      20.1070      0.00000
     37      20.3461      0.00000
     38      20.5593      0.00000
     39      21.4779      0.00000
     40      23.1150      0.00000
     41      23.7247      0.00000
     42      23.7247      0.00000
     43      23.8402      0.00000
     44      23.8402      0.00000
     45      27.8486      0.00000
     46      27.8486      0.00000
     47      28.0929      0.00000
     48      28.0929      0.00000

 k-point     5 :       0.4444    0.0000    0.0000
  band No.  band energies     occupation 
      1      -0.1712      2.00000
      2       0.4160      2.00000
      3       1.2202      2.00000
      4       1.2646      2.00000
      5       1.2646      2.00000
      6       1.4381      2.00000
      7       1.5623      2.00000
      8       1.5623      2.00000
      9       2.0135      2.00000
     10       2.0135      2.00000
     11       2.4712      2.00000
     12       2.6210      2.00000
     13       2.6210      2.00000
     14       2.6357      2.00000
     15       2.9043      2.00000
     16       2.9043      2.00000
     17       2.9275      2.00000
     18       2.9275      2.00000
     19       3.1869      2.00000
     20       3.3072      2.00000
     21       3.8283      2.00000
     22       3.8283      2.00000
     23       8.7927      0.00000
     24       8.7927      0.00000
     25      10.3965      0.00000
     26      10.3965      0.00000
     27      11.5427      0.00000
     28      11.5427      0.00000
     29      13.3930      0.00000
     30      13.3930      0.00000
     31      17.4647      0.00000
     32      17.4647      0.00000
     33      17.4955      0.00000
     34      18.7702      0.00000
     35      18.7702      0.00000
     36      19.5919      0.00000
     37      19.8724      0.00000
     38      20.6714      0.00000
     39      20.8875      0.00000
     40      21.2054      0.00000
     41      25.0980      0.00000
     42      25.0980      0.00000
     43      25.6932      0.00000
     44      25.6932      0.00000
     45      26.5382      0.00000
     46      26.5382      0.00000
     47      28.5880      0.00000
     48      28.5881      0.00000

 k-point     6 :       0.1111    0.1111    0.0000
  band No.  band energies     occupation 
      1      -1.5715      2.00000
      2       0.6495      2.00000
      3       0.6495      2.00000
      4       0.6659      2.00000
      5       0.8207      2.00000
      6       0.8207      2.00000
      7       0.8534      2.00000
      8       1.9409      2.00000
      9       2.0550      2.00000
     10       2.0752      2.00000
     11       2.8555      2.00000
     12       2.9236      2.00000
     13       3.4333      2.00000
     14       3.4333      2.00000
     15       3.4622      2.00000
     16       3.4861      2.00000
     17       3.5993      2.00000
     18       3.5993      2.00000
     19       3.7503      2.00000
     20       3.7503      2.00000
     21       3.7747      2.00000
     22       6.3949     -0.00000
     23       6.3949     -0.00000
     24       7.7984     -0.00000
     25       9.1404      0.00000
     26      10.5198      0.00000
     27      10.5198      0.00000
     28      13.4826      0.00000
     29      14.5367      0.00000
     30      14.5367      0.00000
     31      14.5935      0.00000
     32      14.5935      0.00000
     33      14.9889      0.00000
     34      20.0623      0.00000
     35      20.3981      0.00000
     36      20.3981      0.00000
     37      20.4995      0.00000
     38      20.8632      0.00000
     39      21.9147      0.00000
     40      22.0785      0.00000
     41      22.0785      0.00000
     42      22.6140      0.00000
     43      22.7563      0.00000
     44      26.3823      0.00000
     45      27.9890      0.00000
     46      28.4861      0.00000
     47      28.6459      0.00000
     48      28.7315      0.00000

 k-point     7 :       0.2222    0.1111    0.0000
  band No.  band energies     occupation 
      1      -1.2463      2.00000
      2       0.7203      2.00000
      3       0.8060      2.00000
      4       0.8365      2.00000
      5       0.9159      2.00000
      6       0.9733      2.00000
      7       1.0372      2.00000
      8       1.8374      2.00000
      9       2.1640      2.00000
     10       2.1748      2.00000
     11       2.7562      2.00000
     12       2.9486      2.00000
     13       2.9837      2.00000
     14       3.0344      2.00000
     15       3.1658      2.00000
     16       3.3238      2.00000
     17       3.4056      2.00000
     18       3.5290      2.00000
     19       3.5400      2.00000
     20       3.7484      2.00000
     21       3.7494      2.00000
     22       4.9697      2.00000
     23       6.9947     -0.00000
     24       8.5263      0.00000
     25       8.9423      0.00000
     26      10.4555      0.00000
     27      12.5146      0.00000
     28      12.6429      0.00000
     29      13.8174      0.00000
     30      14.2132      0.00000
     31      15.0588      0.00000
     32      15.1056      0.00000
     33      15.2426      0.00000
     34      19.6992      0.00000
     35      19.9215      0.00000
     36      20.3812      0.00000
     37      21.1311      0.00000
     38      21.5305      0.00000
     39      21.8240      0.00000
     40      21.9811      0.00000
     41      22.6781      0.00000
     42      22.8039      0.00000
     43      23.7745      0.00000
     44      25.2386      0.00000
     45      27.3567      0.00000
     46      27.8094      0.00000
     47      29.0000      0.00000
     48      29.4615      0.00000

 k-point     8 :       0.3333    0.1111    0.0000
  band No.  band energies     occupation 
      1      -0.7297      2.00000
      2       0.7398      2.00000
      3       1.0291      2.00000
      4       1.0652      2.00000
      5       1.0966      2.00000
      6       1.2258      2.00000
      7       1.2985      2.00000
      8       1.6669      2.00000
      9       2.2980      2.00000
     10       2.3582      2.00000
     11       2.4060      2.00000
     12       2.5117      2.00000
     13       2.6508      2.00000
     14       2.7547      2.00000
     15       3.0929      2.00000
     16       3.0948      2.00000
     17       3.1587      2.00000
     18       3.2467      2.00000
     19       3.3757      2.00000
     20       3.7439      2.00000
     21       3.7479      2.00000
     22       3.9186      2.00000
     23       7.6096     -0.00000
     24       8.6802      0.00000
     25       9.4964      0.00000
     26      10.4971      0.00000
     27      11.9177      0.00000
     28      12.8326      0.00000
     29      13.9800      0.00000
     30      14.4906      0.00000
     31      14.6929      0.00000
     32      15.9766      0.00000
     33      16.4093      0.00000
     34      18.5566      0.00000
     35      19.2962      0.00000
     36      20.4390      0.00000
     37      21.3357      0.00000
     38      21.8267      0.00000
     39      21.9234      0.00000
     40      22.3520      0.00000
     41      23.1535      0.00000
     42      23.6234      0.00000
     43      23.8493      0.00000
     44      25.3088      0.00000
     45      27.2464      0.00000
     46      27.9598      0.00000
     47      28.0145      0.00000
     48      28.1573      0.00000

 k-point     9 :       0.4444    0.1111    0.0000
  band No.  band energies     occupation 
      1      -0.0877      2.00000
      2       0.4939      2.00000
      3       1.2542      2.00000
      4       1.2776      2.00000
      5       1.3140      2.00000
      6       1.4630      2.00000
      7       1.5740      2.00000
      8       1.5742      2.00000
      9       1.9246      2.00000
     10       2.0095      2.00000
     11       2.3062      2.00000
     12       2.3790      2.00000
     13       2.6186      2.00000
     14       2.7610      2.00000
     15       2.9056      2.00000
     16       2.9249      2.00000
     17       2.9354      2.00000
     18       3.0712      2.00000
     19       3.2419      2.00000
     20       3.4417      2.00000
     21       3.7444      2.00000
     22       3.7461      2.00000
     23       8.0769     -0.00000
     24       8.4019      0.00000
     25      10.5882      0.00000
     26      10.7794      0.00000
     27      11.2879      0.00000
     28      11.7245      0.00000
     29      13.9952      0.00000
     30      14.2604      0.00000
     31      16.0950      0.00000
     32      17.0578      0.00000
     33      17.3855      0.00000
     34      18.2299      0.00000
     35      18.2799      0.00000
     36      20.6318      0.00000
     37      20.6736      0.00000
     38      21.1889      0.00000
     39      21.4358      0.00000
     40      21.6321      0.00000
     41      23.7999      0.00000
     42      24.7925      0.00000
     43      25.1271      0.00000
     44      26.5865      0.00000
     45      27.0837      0.00000
     46      27.2495      0.00000
     47      27.9542      0.00000
     48      28.6929      0.00000

 k-point    10 :       0.2222    0.2222    0.0000
  band No.  band energies     occupation 
      1      -0.9386      2.00000
      2       0.8750      2.00000
      3       0.9202      2.00000
      4       0.9202      2.00000
      5       1.0575      2.00000
      6       1.0575      2.00000
      7       1.2465      2.00000
      8       1.8055      2.00000
      9       2.2117      2.00000
     10       2.2167      2.00000
     11       2.6281      2.00000
     12       2.6281      2.00000
     13       2.7246      2.00000
     14       2.7946      2.00000
     15       3.0495      2.00000
     16       3.1993      2.00000
     17       3.3902      2.00000
     18       3.3902      2.00000
     19       3.5366      2.00000
     20       3.5366      2.00000
     21       3.6217      2.00000
     22       5.6059     -0.02516
     23       5.6059     -0.02516
     24       8.5871      0.00000
     25       9.1731      0.00000
     26      11.8259      0.00000
     27      12.0925      0.00000
     28      12.0925      0.00000
     29      14.3504      0.00000
     30      14.3504      0.00000
     31      15.0855      0.00000
     32      15.0855      0.00000
     33      16.0645      0.00000
     34      18.3202      0.00000
     35      19.1920      0.00000
     36      20.6383      0.00000
     37      21.8224      0.00000
     38      21.8224      0.00000
     39      21.9183      0.00000
     40      22.7668      0.00000
     41      22.7668      0.00000
     42      23.9239      0.00000
     43      24.0505      0.00000
     44      25.2324      0.00000
     45      26.6187      0.00000
     46      28.3397      0.00000
     47      28.5034      0.00000
     48      29.0601      0.00000

 k-point    11 :       0.3333    0.2222    0.0000
  band No.  band energies     occupation 
      1      -0.4528      2.00000
      2       0.9568      2.00000
      3       1.0356      2.00000
      4       1.1886      2.00000
      5       1.2059      2.00000
      6       1.2900      2.00000
      7       1.4927      2.00000
      8       1.6929      2.00000
      9       2.1200      2.00000
     10       2.2339      2.00000
     11       2.2658      2.00000
     12       2.3753      2.00000
     13       2.4111      2.00000
     14       2.6681      2.00000
     15       3.0158      2.00000
     16       3.1760      2.00000
     17       3.2283      2.00000
     18       3.2418      2.00000
     19       3.2549      2.00000
     20       3.5323      2.00000
     21       3.5557      2.00000
     22       4.5417      2.00000
     23       6.2686     -0.00000
     24       8.0718     -0.00000
     25      10.0762      0.00000
     26      11.3555      0.00000
     27      11.6137      0.00000
     28      13.3447      0.00000
     29      13.4896      0.00000
     30      15.1572      0.00000
     31      15.1729      0.00000
     32      16.3041      0.00000
     33      16.6186      0.00000
     34      17.0495      0.00000
     35      18.2639      0.00000
     36      21.1445      0.00000
     37      21.9241      0.00000
     38      22.2452      0.00000
     39      22.5922      0.00000
     40      22.7053      0.00000
     41      23.3829      0.00000
     42      23.8724      0.00000
     43      24.0194      0.00000
     44      26.0407      0.00000
     45      26.8441      0.00000
     46      27.6815      0.00000
     47      28.3489      0.00000
     48      28.3597      0.00000

 k-point    12 :       0.4444    0.2222    0.0000
  band No.  band energies     occupation 
      1       0.1493      2.00000
      2       0.7102      2.00000
      3       1.2827      2.00000
      4       1.3526      2.00000
      5       1.4544      2.00000
      6       1.5297      2.00000
      7       1.6064      2.00000
      8       1.6505      2.00000
      9       1.7193      2.00000
     10       1.9913      2.00000
     11       2.0804      2.00000
     12       2.1496      2.00000
     13       2.6207      2.00000
     14       2.7690      2.00000
     15       2.8812      2.00000
     16       2.9212      2.00000
     17       2.9562      2.00000
     18       3.0122      2.00000
     19       3.4885      2.00000
     20       3.5296      2.00000
     21       3.5335      2.00000
     22       3.8742      2.00000
     23       6.8996     -0.00000
     24       7.4967     -0.00000
     25      11.1240      0.00000
     26      11.1858      0.00000
     27      11.2808      0.00000
     28      12.2378      0.00000
     29      14.6954      0.00000
     30      15.4891      0.00000
     31      15.8566      0.00000
     32      15.9432      0.00000
     33      16.1458      0.00000
     34      17.2162      0.00000
     35      18.6202      0.00000
     36      20.7476      0.00000
     37      22.2516      0.00000
     38      22.4218      0.00000
     39      22.4708      0.00000
     40      22.6132      0.00000
     41      22.9458      0.00000
     42      23.6489      0.00000
     43      25.2046      0.00000
     44      26.7202      0.00000
     45      26.7429      0.00000
     46      27.5973      0.00000
     47      27.8587      0.00000
     48      28.5833      0.00000

 k-point    13 :       0.3333    0.3333    0.0000
  band No.  band energies     occupation 
      1      -0.0240      2.00000
      2       1.1113      2.00000
      3       1.2708      2.00000
      4       1.2708      2.00000
      5       1.3873      2.00000
      6       1.3873      2.00000
      7       1.6829      2.00000
      8       1.7057      2.00000
      9       1.8582      2.00000
     10       1.8582      2.00000
     11       2.1980      2.00000
     12       2.2148      2.00000
     13       2.4642      2.00000
     14       2.5981      2.00000
     15       2.8833      2.00000
     16       3.0702      2.00000
     17       3.0702      2.00000
     18       3.2387      2.00000
     19       3.2387      2.00000
     20       3.3836      2.00000
     21       3.5041      2.00000
     22       5.1759      2.00289
     23       5.1759      2.00289
     24       7.2837     -0.00000
     25      10.9158      0.00000
     26      11.2124      0.00000
     27      12.5476      0.00000
     28      12.5476      0.00000
     29      14.1166      0.00000
     30      14.1166      0.00000
     31      15.7121      0.00000
     32      16.9444      0.00000
     33      16.9444      0.00000
     34      17.1932      0.00000
     35      17.6644      0.00000
     36      20.5135      0.00000
     37      22.1927      0.00000
     38      23.0385      0.00000
     39      23.1447      0.00000
     40      23.1447      0.00000
     41      23.8891      0.00000
     42      23.8891      0.00000
     43      24.0973      0.00000
     44      25.9637      0.00000
     45      27.3949      0.00000
     46      27.3949      0.00000
     47      28.2672      0.00000
     48      28.3268      0.00000

 k-point    14 :       0.4444    0.3333    0.0000
  band No.  band energies     occupation 
      1       0.4950      2.00000
      2       0.9956      2.00000
      3       1.2637      2.00000
      4       1.4701      2.00000
      5       1.5024      2.00000
      6       1.6117      2.00000
      7       1.6475      2.00000
      8       1.6646      2.00000
      9       1.8057      2.00000
     10       1.8952      2.00000
     11       1.9403      2.00000
     12       2.0830      2.00000
     13       2.6442      2.00000
     14       2.6563      2.00000
     15       2.7834      2.00000
     16       2.8520      2.00000
     17       2.8712      2.00000
     18       2.9291      2.00000
     19       3.2474      2.00000
     20       3.2861      2.00000
     21       3.8794      2.00000
     22       4.3985      2.00000
     23       5.8246     -0.00000
     24       6.5174     -0.00000
     25      11.3822      0.00000
     26      11.8301      0.00000
     27      11.9181      0.00000
     28      13.0079      0.00000
     29      13.4898      0.00000
     30      14.5329      0.00000
     31      15.0649      0.00000
     32      16.1118      0.00000
     33      17.3976      0.00000
     34      17.8633      0.00000
     35      18.9705      0.00000
     36      20.9258      0.00000
     37      21.2664      0.00000
     38      22.6702      0.00000
     39      23.0526      0.00000
     40      23.2658      0.00000
     41      23.5882      0.00000
     42      23.8368      0.00000
     43      25.2806      0.00000
     44      26.7453      0.00000
     45      26.8512      0.00000
     46      27.1207      0.00000
     47      28.2813      0.00000
     48      28.4160      0.00000

 k-point    15 :       0.4444    0.4444    0.0000
  band No.  band energies     occupation 
      1       0.8688      2.00000
      2       1.1956      2.00000
      3       1.1956      2.00000
      4       1.2464      2.00000
      5       1.6690      2.00000
      6       1.6771      2.00000
      7       1.6771      2.00000
      8       1.8350      2.00000
      9       1.8951      2.00000
     10       1.8951      2.00000
     11       1.9348      2.00000
     12       2.0522      2.00000
     13       2.5570      2.00000
     14       2.6512      2.00000
     15       2.6821      2.00000
     16       2.6821      2.00000
     17       2.7670      2.00000
     18       2.9732      2.00000
     19       2.9732      2.00000
     20       3.0868      2.00000
     21       4.3624      2.00000
     22       4.9836      2.00000
     23       4.9836      2.00000
     24       5.6720     -0.00220
     25      11.8304      0.00000
     26      12.5309      0.00000
     27      12.5309      0.00000
     28      12.8847      0.00000
     29      13.4263      0.00000
     30      13.9539      0.00000
     31      13.9539      0.00000
     32      15.0071      0.00000
     33      19.4481      0.00000
     34      19.4481      0.00000
     35      19.6277      0.00000
     36      20.5703      0.00000
     37      21.0668      0.00000
     38      21.8252      0.00000
     39      21.9289      0.00000
     40      21.9289      0.00000
     41      24.5935      0.00000
     42      25.1789      0.00000
     43      25.1789      0.00000
     44      26.4297      0.00000
     45      28.1627      0.00000
     46      28.2559      0.00000
     47      28.3091      0.00000
     48      28.5750      0.00000

 k-point    16 :       0.1111    0.1111    0.1111
  band No.  band energies     occupation 
      1      -1.4634      2.00000
      2       0.6956      2.00000
      3       0.6956      2.00000
      4       0.6956      2.00000
      5       0.8869      2.00000
      6       0.8869      2.00000
      7       0.8869      2.00000
      8       1.9329      2.00000
      9       2.0847      2.00000
     10       2.0847      2.00000
     11       2.8848      2.00000
     12       2.8848      2.00000
     13       3.3542      2.00000
     14       3.3542      2.00000
     15       3.3542      2.00000
     16       3.4192      2.00000
     17       3.4192      2.00000
     18       3.4192      2.00000
     19       3.7539      2.00000
     20       3.7539      2.00000
     21       3.7539      2.00000
     22       6.6339     -0.00000
     23       6.6339     -0.00000
     24       6.6339     -0.00000
     25      10.4474      0.00000
     26      10.4474      0.00000
     27      10.4474      0.00000
     28      13.7465      0.00000
     29      13.7465      0.00000
     30      13.7465      0.00000
     31      15.1799      0.00000
     32      15.1799      0.00000
     33      15.1799      0.00000
     34      19.5987      0.00000
     35      20.4716      0.00000
     36      20.4716      0.00000
     37      20.4716      0.00000
     38      20.6082      0.00000
     39      22.4638      0.00000
     40      22.4638      0.00000
     41      22.6010      0.00000
     42      22.6010      0.00000
     43      22.6010      0.00000
     44      26.0842      0.00000
     45      27.6179      0.00000
     46      27.6179      0.00000
     47      29.0488      0.00000
     48      30.1866      0.00000

 k-point    17 :       0.2222    0.1111    0.1111
  band No.  band energies     occupation 
      1      -1.1455      2.00000
      2       0.7635      2.00000
      3       0.8326      2.00000
      4       0.8326      2.00000
      5       0.9841      2.00000
      6       1.0722      2.00000
      7       1.0722      2.00000
      8       1.8492      2.00000
      9       2.1691      2.00000
     10       2.1734      2.00000
     11       2.7879      2.00000
     12       2.9011      2.00000
     13       2.9011      2.00000
     14       2.9689      2.00000
     15       3.0461      2.00000
     16       3.2441      2.00000
     17       3.2942      2.00000
     18       3.2942      2.00000
     19       3.6846      2.00000
     20       3.7250      2.00000
     21       3.7250      2.00000
     22       5.2245      2.01795
     23       7.1700     -0.00000
     24       7.1700     -0.00000
     25      10.2595      0.00000
     26      10.2595      0.00000
     27      12.2215      0.00000
     28      13.0601      0.00000
     29      13.0601      0.00000
     30      14.5915      0.00000
     31      15.2358      0.00000
     32      15.2358      0.00000
     33      15.7339      0.00000
     34      18.5291      0.00000
     35      20.4104      0.00000
     36      20.5547      0.00000
     37      21.0963      0.00000
     38      21.0963      0.00000
     39      21.6014      0.00000
     40      22.5686      0.00000
     41      22.9377      0.00000
     42      23.7854      0.00000
     43      23.7854      0.00000
     44      24.9951      0.00000
     45      27.2271      0.00000
     46      27.3805      0.00000
     47      29.1040      0.00000
     48      29.5076      0.00000

 k-point    18 :       0.3333    0.1111    0.1111
  band No.  band energies     occupation 
      1      -0.6420      2.00000
      2       0.7833      2.00000
      3       1.0535      2.00000
      4       1.0535      2.00000
      5       1.1319      2.00000
      6       1.3302      2.00000
      7       1.3302      2.00000
      8       1.6938      2.00000
      9       2.2726      2.00000
     10       2.3197      2.00000
     11       2.3972      2.00000
     12       2.3972      2.00000
     13       2.6052      2.00000
     14       2.7347      2.00000
     15       3.0082      2.00000
     16       3.0969      2.00000
     17       3.0976      2.00000
[...]
  band No.  band energies     occupation 
      1       0.3440      2.00000
      2       0.6319      2.00000
      3       0.8934      2.00000
      4       0.9174      2.00000
      5       1.7167      2.00000
      6       1.7272      2.00000
      7       1.9146      2.00000
      8       2.0312      2.00000
      9       2.2039      2.00000
     10       2.2071      2.00000
     11       2.3273      2.00000
     12       2.3641      2.00000
     13       2.3758      2.00000
     14       2.4513      2.00000
     15       2.5095      2.00000
     16       2.5201      2.00000
     17       3.2471      2.00000
     18       3.5010      2.00000
     19       3.5276      2.00000
     20       3.5378      2.00000
     21       3.7723      2.00000
     22       4.4887      2.00000
     23       6.2168     -0.00000
     24       7.0230     -0.00000
     25       8.1577      0.00000
     26       8.9917      0.00000
     27      10.9288      0.00000
     28      11.9934      0.00000
     29      15.5930      0.00000
     30      16.2069      0.00000
     31      17.6562      0.00000
     32      17.9369      0.00000
     33      18.1044      0.00000
     34      18.8901      0.00000
     35      19.0056      0.00000
     36      20.3834      0.00000
     37      20.7848      0.00000
     38      20.8000      0.00000
     39      21.3134      0.00000
     40      21.5431      0.00000
     41      25.6296      0.00000
     42      26.2482      0.00000
     43      26.4170      0.00000
     44      26.4539      0.00000
     45      26.7655      0.00000
     46      27.3646      0.00000
     47      28.1578      0.00000
     48      28.6168      0.00000

 k-point    31 :       0.4444    0.4444    0.2222
  band No.  band energies     occupation 
      1       0.4908      2.00000
      2       0.6766      2.00000
      3       0.6766      2.00000
      4       0.7711      2.00000
      5       1.8132      2.00000
      6       1.8698      2.00000
      7       1.8698      2.00000
      8       1.9795      2.00000
      9       2.1922      2.00000
     10       2.2704      2.00000
     11       2.2704      2.00000
     12       2.3103      2.00000
     13       2.6087      2.00000
     14       2.6087      2.00000
     15       2.6300      2.00000
     16       2.6855      2.00000
     17       3.2209      2.00000
     18       3.4004      2.00000
     19       3.4004      2.00000
     20       3.4241      2.00000
     21       4.3212      2.00000
     22       5.1297      2.00030
     23       5.1297      2.00030
     24       5.9756     -0.00000
     25       8.8717      0.00000
     26       9.8068      0.00000
     27       9.8068      0.00000
     28      10.8160      0.00000
     29      16.2698      0.00000
     30      17.0636      0.00000
     31      17.0636      0.00000
     32      17.9321      0.00000
     33      19.3810      0.00000
     34      19.3810      0.00000
     35      19.7094      0.00000
     36      20.1092      0.00000
     37      20.3386      0.00000
     38      20.9947      0.00000
     39      20.9947      0.00000
     40      21.3899      0.00000
     41      25.5747      0.00000
     42      26.0493      0.00000
     43      26.0493      0.00000
     44      26.7027      0.00000
     45      26.7224      0.00000
     46      27.5365      0.00000
     47      27.5808      0.00000
     48      27.5808      0.00000

 k-point    32 :       0.3333    0.3333    0.3333
  band No.  band energies     occupation 
      1       0.1497      2.00000
      2       0.7308      2.00000
      3       0.7308      2.00000
      4       0.7308      2.00000
      5       1.8013      2.00000
      6       1.8013      2.00000
      7       1.8013      2.00000
      8       2.1023      2.00000
      9       2.1023      2.00000
     10       2.3480      2.00000
     11       2.3480      2.00000
     12       2.3480      2.00000
     13       2.5440      2.00000
     14       2.5440      2.00000
     15       2.5440      2.00000
     16       2.7230      2.00000
     17       3.2956      2.00000
     18       3.2956      2.00000
     19       3.6613      2.00000
     20       3.6613      2.00000
     21       3.6613      2.00000
     22       6.0154     -0.00000
     23       6.0154     -0.00000
     24       6.0154     -0.00000
     25       8.7162      0.00000
     26       8.7162      0.00000
     27       8.7162      0.00000
     28      11.8448      0.00000
     29      17.1449      0.00000
     30      17.1449      0.00000
     31      17.1449      0.00000
     32      18.5734      0.00000
     33      18.5734      0.00000
     34      18.5734      0.00000
     35      19.9904      0.00000
     36      19.9904      0.00000
     37      19.9904      0.00000
     38      20.0311      0.00000
     39      21.3708      0.00000
     40      21.3708      0.00000
     41      25.7649      0.00000
     42      26.1828      0.00000
     43      26.1828      0.00000
     44      27.7222      0.00000
     45      27.7222      0.00000
     46      27.7253      0.00000
     47      27.7326      0.00000
     48      27.7326      0.00000

 k-point    33 :       0.4444    0.3333    0.3333
  band No.  band energies     occupation 
      1       0.3030      2.00000
      2       0.5031      2.00000
      3       0.6643      2.00000
      4       0.6643      2.00000
      5       1.8140      2.00000
      6       1.8140      2.00000
      7       1.9245      2.00000
      8       2.0313      2.00000
      9       2.1090      2.00000
     10       2.1938      2.00000
     11       2.2566      2.00000
     12       2.2566      2.00000
     13       2.7244      2.00000
     14       2.8176      2.00000
     15       2.8176      2.00000
     16       2.8916      2.00000
     17       3.4991      2.00000
     18       3.6094      2.00000
     19       3.6094      2.00000
     20       3.6276      2.00000
     21       3.7615      2.00000
     22       4.7748      2.00000
     23       6.6680     -0.00000
     24       6.6680     -0.00000
     25       7.6286     -0.00000
     26       7.6286     -0.00000
     27       9.5852      0.00000
     28      10.6362      0.00000
     29      17.5505      0.00000
     30      17.5505      0.00000
     31      18.4461      0.00000
     32      18.4461      0.00000
     33      19.1025      0.00000
     34      19.3064      0.00000
     35      19.7879      0.00000
     36      19.9352      0.00000
     37      20.2510      0.00000
     38      20.4763      0.00000
     39      20.4763      0.00000
     40      20.9660      0.00000
     41      26.2209      0.00000
     42      26.6350      0.00000
     43      26.6473      0.00000
     44      26.6473      0.00000
     45      26.8060      0.00000
     46      27.1716      0.00000
     47      27.1929      0.00000
     48      28.0482      0.00000

 k-point    34 :       0.4444    0.4444    0.3333
  band No.  band energies     occupation 
      1       0.3418      2.00000
      2       0.4648      2.00000
      3       0.4648      2.00000
      4       0.5193      2.00000
      5       1.8895      2.00000
      6       1.9235      2.00000
      7       1.9235      2.00000
      8       2.0086      2.00000
      9       2.0585      2.00000
     10       2.1182      2.00000
     11       2.1182      2.00000
     12       2.1365      2.00000
     13       3.0955      2.00000
     14       3.0955      2.00000
     15       3.1089      2.00000
     16       3.2779      2.00000
     17       3.4445      2.00000
     18       3.5783      2.00000
     19       3.5821      2.00000
     20       3.5821      2.00000
     21       4.3497      2.00000
     22       5.3787      1.64867
     23       5.3787      1.64867
     24       6.2727     -0.00000
     25       7.5407     -0.00000
     26       8.4410      0.00000
     27       8.4410      0.00000
     28       9.4467      0.00000
     29      18.1431      0.00000
     30      18.7903      0.00000
     31      18.7903      0.00000
     32      19.3557      0.00000
     33      19.3665      0.00000
     34      19.3665      0.00000
     35      19.7989      0.00000
     36      19.8542      0.00000
     37      20.0511      0.00000
     38      20.4067      0.00000
     39      20.4067      0.00000
     40      20.9444      0.00000
     41      26.2062      0.00000
     42      26.4477      0.00000
     43      26.4818      0.00000
     44      26.4818      0.00000
     45      26.8316      0.00000
     46      27.0519      0.00000
     47      27.1854      0.00000
     48      27.1854      0.00000

 k-point    35 :       0.4444    0.4444    0.4444
  band No.  band energies     occupation 
      1       0.2955      2.00000
      2       0.3561      2.00000
      3       0.3561      2.00000
      4       0.3561      2.00000
      5       1.9604      2.00000
      6       1.9604      2.00000
      7       1.9604      2.00000
      8       2.0027      2.00000
      9       2.0027      2.00000
     10       2.0298      2.00000
     11       2.0298      2.00000
     12       2.0298      2.00000
     13       3.4419      2.00000
     14       3.4419      2.00000
     15       3.4419      2.00000
     16       3.5923      2.00000
     17       3.5923      2.00000
     18       3.6394      2.00000
     19       3.6394      2.00000
     20       3.6394      2.00000
     21       4.8149      2.00000
     22       5.7647     -0.00001
     23       5.7647     -0.00001
     24       5.7647     -0.00001
     25       7.4381     -0.00000
     26       7.4381     -0.00000
     27       7.4381     -0.00000
     28       8.2904      0.00000
     29      19.3676      0.00000
     30      19.3676      0.00000
     31      19.3676      0.00000
     32      19.4793      0.00000
     33      19.9610      0.00000
     34      19.9610      0.00000
     35      19.9610      0.00000
     36      20.1116      0.00000
     37      20.1116      0.00000
     38      20.1116      0.00000
     39      20.4880      0.00000
     40      20.4880      0.00000
     41      26.4631      0.00000
     42      26.4631      0.00000
     43      26.6806      0.00000
     44      26.6806      0.00000
     45      26.6806      0.00000
     46      26.7146      0.00000
     47      26.7146      0.00000
     48      26.7146      0.00000


--------------------------------------------------------------------------------------------------------


 soft charge-density along one line, spin component           1
         0         1         2         3         4         5         6         7         8         9
 total charge-density along one line
 
 pseudopotential strength for first ion, spin component:           1
 -5.133  -0.000  -0.000   0.000   0.000  -5.345  -0.000  -0.000
 -0.000  -5.133   0.000  -0.000  -0.000  -0.000  -5.345   0.000
 -0.000   0.000  -5.122  -0.000   0.000  -0.000   0.000  -5.334
  0.000  -0.000  -0.000  -5.133  -0.000   0.000  -0.000  -0.000
  0.000  -0.000  -0.000  -0.000  -5.122   0.000  -0.000   0.000
 -5.345  -0.000  -0.000   0.000   0.000  -5.539  -0.000  -0.000
 -0.000  -5.345   0.000  -0.000  -0.000  -0.000  -5.539   0.000
 -0.000   0.000  -5.334  -0.000   0.000  -0.000   0.000  -5.529
  0.000  -0.000  -0.000  -5.345  -0.000   0.000  -0.000  -0.000
  0.000  -0.000   0.000  -0.000  -5.334   0.000  -0.000  -0.000
 -0.000  -0.000  -0.000   0.000   0.000  -0.000  -0.000  -0.000
 -0.000  -0.000  -0.000   0.000  -0.000  -0.000  -0.000  -0.000
 -0.000  -0.000   0.000   0.000   0.000  -0.000  -0.000   0.000
  0.000  -0.000  -0.000  -0.000  -0.000   0.000  -0.000  -0.000
 -0.000   0.000   0.000  -0.000   0.000  -0.000   0.000   0.000
 -0.000  -0.000   0.000   0.000   0.000   0.000  -0.000   0.000
  0.000  -0.000  -0.000  -0.000  -0.000   0.000  -0.000  -0.000
 -0.000   0.000   0.000  -0.000   0.000  -0.000   0.000   0.000
 total augmentation occupancy for first ion, spin component:           1
  3.535   0.000  -0.000  -0.000  -0.000  -1.388   0.000  -0.000  -0.000   0.000  -0.000  -0.000  -0.000   0.000  -0.000   0.000
 -0.000   3.535  -0.000  -0.000  -0.000   0.000  -1.388   0.000   0.000  -0.000  -0.000   0.000  -0.000  -0.000  -0.000   0.000
 -0.000  -0.000   3.489  -0.000   0.000  -0.000  -0.000  -1.208  -0.000  -0.000  -0.000   0.000   0.000  -0.000   0.000   0.000
 -0.000   0.000  -0.000   3.535   0.000   0.000   0.000  -0.000  -1.388   0.000  -0.000  -0.000  -0.000   0.000  -0.000  -0.000
  0.000  -0.000   0.000   0.000   3.489  -0.000  -0.000  -0.000  -0.000  -1.208   0.000  -0.000  -0.000   0.000   0.000   0.000
 -1.388   0.000  -0.000   0.000   0.000   1.171   0.000  -0.000  -0.000   0.000   0.000   0.000   0.000   0.000   0.000   0.000
 -0.000  -1.388  -0.000   0.000   0.000   0.000   1.171   0.000  -0.000   0.000  -0.000   0.000   0.000  -0.000  -0.000   0.000
  0.000   0.000  -1.208   0.000  -0.000  -0.000   0.000   0.900   0.000   0.000   0.000   0.000   0.000  -0.000   0.000   0.000
 -0.000   0.000  -0.000  -1.388  -0.000  -0.000  -0.000   0.000   1.171   0.000   0.000  -0.000   0.000   0.000  -0.000  -0.000
 -0.000   0.000   0.000  -0.000  -1.208  -0.000   0.000  -0.000  -0.000   0.900   0.000  -0.000   0.000   0.000   0.000  -0.000
 -0.000  -0.000  -0.000  -0.000  -0.000  -0.000  -0.000   0.000  -0.000   0.000   1.819  -0.366   0.000  -0.000  -0.000   0.000
 -0.000   0.000   0.000  -0.000  -0.000   0.000   0.000   0.000   0.000  -0.000  -0.366   0.108  -0.000  -0.000  -0.000   0.000
 -0.000   0.000   0.000  -0.000  -0.000   0.000   0.000   0.000  -0.000  -0.000  -0.000   0.000   0.095  -0.000  -0.000  -0.003
  0.000  -0.000   0.000   0.000  -0.000   0.000  -0.000   0.000  -0.000   0.000   0.000   0.000  -0.000   0.095   0.000   0.000
  0.000  -0.000   0.000   0.000  -0.000   0.000  -0.000   0.000  -0.000   0.000  -0.000   0.000  -0.000  -0.000   0.095  -0.000
  0.000  -0.000  -0.000   0.000   0.000   0.000   0.000  -0.000  -0.000  -0.000   0.000  -0.000  -0.003  -0.000  -0.000   0.000
 -0.000   0.000   0.000   0.000   0.000  -0.000   0.000   0.000   0.000   0.000   0.000  -0.000  -0.000  -0.003  -0.000  -0.000
 -0.000  -0.000   0.000   0.000   0.000  -0.000   0.000  -0.000   0.000   0.000  -0.000   0.000  -0.000   0.000  -0.003  -0.000


------------------------ aborting loop because EDIFF is reached ----------------------------------------


    CHARGE:  cpu time    0.0128: real time    0.0128
    FORLOC:  cpu time    0.0002: real time    0.0002
    FORNL :  cpu time    0.1089: real time    0.1090
    STRESS:  cpu time    0.3600: real time    0.3605
    FORCOR:  cpu time    0.0034: real time    0.0035
    FORHAR:  cpu time    0.0009: real time    0.0009
    MIXING:  cpu time    0.0003: real time    0.0003
    OFIELD:  cpu time    0.0001: real time    0.0001

  FORCE on cell =-STRESS in cart. coord.  units (eV):
  Direction    XX          YY          ZZ          XY          YZ          ZX
  --------------------------------------------------------------------------------------
  Alpha Z   206.16329   206.16329   206.16329
  Ewald   -1186.65318 -1186.65318 -1186.65318     0.00000     0.00000     0.00000
  Hartree   202.55902   202.55902   202.55902    -0.00000    -0.00000    -0.00000
  E(xc)    -196.11254  -196.11254  -196.11254     0.00000     0.00000    -0.00000
  Local     102.33397   102.33397   102.33397     0.00000     0.00000     0.00000
  n-local    -6.14495   -27.03454   -30.78054     0.65360     6.97981     2.93213
  augment   272.78227   272.78227   272.78227     0.00000    -0.00000    -0.00000
  Kinetic   615.09618   611.02555   607.34413    -3.86732    -0.70337    -1.74981
  Fock        0.00000     0.00000     0.00000     0.00000     0.00000     0.00000
  -------------------------------------------------------------------------------------
  Total      -9.09191    -9.09191    -9.09191     0.00000    -0.00000     0.00000
  in kB    -161.14133  -161.14133  -161.14133     0.00000    -0.00000     0.00000
  external pressure =     -161.14 kB  Pullay stress =        0.00 kB


 VOLUME and BASIS-vectors are now :
 -----------------------------------------------------------------------------
  energy-cutoff  :      400.00
  volume of cell :       90.40
      direct lattice vectors                 reciprocal lattice vectors
     4.488000000  0.000000000  0.000000000     0.222816399  0.000000000  0.000000000
     0.000000000  4.488000000  0.000000000     0.000000000  0.222816399  0.000000000
     0.000000000  0.000000000  4.488000000     0.000000000  0.000000000  0.222816399

  length of vectors
     4.488000000  4.488000000  4.488000000     0.222816399  0.222816399  0.222816399


 FORCES acting on ions
    electron-ion (+dipol)            ewald-force                    non-local-force                 convergence-correction
 -----------------------------------------------------------------------------------------------
   -.105E-13 -.214E-13 -.279E-13   -.107E-13 0.942E-14 -.265E-14   -.207E-23 -.827E-23 -.662E-23   0.731E-14 -.525E-13 -.718E-13
   -.108E-13 0.253E-12 0.240E-12   -.117E-13 -.249E-14 0.390E-14   -.496E-23 0.000E+00 0.341E-23   0.640E-14 0.510E-13 0.152E-13
   0.263E-12 -.202E-13 -.299E-11   0.124E-13 0.332E-14 0.402E-14   0.827E-23 -.662E-23 -.372E-23   -.166E-13 -.493E-13 0.152E-12
   0.262E-12 -.175E-11 -.248E-11   0.114E-13 -.860E-14 -.404E-14   0.331E-23 -.165E-23 0.486E-23   -.179E-13 0.120E-12 -.227E-14
 -----------------------------------------------------------------------------------------------
   0.503E-12 -.154E-11 -.526E-11   0.139E-14 0.165E-14 0.122E-14   0.455E-23 -.165E-22 -.207E-23   -.207E-13 0.691E-13 0.929E-13
 
 
 POSITION                                       TOTAL-FORCE (eV/Angst)
 -----------------------------------------------------------------------------------
      0.00000      0.00000      0.00000        -0.000000      0.000000     -0.000000
      0.00000      2.24400      2.24400         0.000000      0.000000     -0.000000
      2.24400      0.00000      2.24400        -0.000000     -0.000000      0.000000
      2.24400      2.24400      0.00000         0.000000      0.000000     -0.000000
 -----------------------------------------------------------------------------------
    total drift:                                0.000000     -0.000000     -0.000000


--------------------------------------------------------------------------------------------------------



  FREE ENERGIE OF THE ION-ELECTRON SYSTEM (eV)
  ---------------------------------------------------
  free  energy   TOTEN  =       -11.67222893 eV

  energy  without entropy=      -11.67303608  energy(sigma->0) =      -11.67249798
 


--------------------------------------------------------------------------------------------------------


    POTLOK:  cpu time    0.0060: real time    0.0061


--------------------------------------------------------------------------------------------------------


     LOOP+:  cpu time    7.7607: real time    7.8430
    4ORBIT:  cpu time    0.0000: real time    0.0000

 total amount of memory used by VASP on root node    41608. kBytes
========================================================================

   base      :      30000. kBytes
   nonl-proj :       8574. kBytes
   fftplans  :        221. kBytes
   grid      :        789. kBytes
   one-center:         62. kBytes
   wavefun   :       1962. kBytes
 
  
  
 General timing and accounting informations for this job:
 ========================================================
  
                  Total CPU time used (sec):       26.516
                            User time (sec):       26.327
                          System time (sec):        0.189
                         Elapsed time (sec):       28.849
  
                   Maximum memory used (kb):       79900.
                   Average memory used (kb):           0.
  
                          Minor page faults:        17881
                          Major page faults:           10
                 Voluntary context switches:         1798
