<?xml version="1.0" encoding="ISO-8859-1"?>
<modeling>
 <generator>
  <i name="program" type="string">vasp </i>
  <i name="version" type="string">5.4.1  </i>
  <i name="subversion" type="string">05Feb16 (build Feb 08 2018 09:21:51) complex                          parallel </i>
  <i name="platform" type="string">LinuxIFC </i>
  <i name="date" type="string">2019 11 21 </i>
  <i name="time" type="string">15:55:57 </i>
 </generator>
 <incar>
  <i type="string" name="PREC">normal</i>
  <i name="ENCUT">    400.00000000</i>
  <i type="int" name="ISMEAR">     1</i>
  <i name="SIGMA">      0.10000000</i>
  <i type="logical" name="LWAVE"> F  </i>
  <i type="logical" name="LCHARG"> F  </i>
  <v type="int" name="KPOINT_BSE">    -1     0     0     0</v>
 </incar>
 <kpoints>
  <generation param="Monkhorst-Pack">
   <v type="int" name="divisions">       9        9        9 </v>
   <v name="usershift">      0.00000000       0.00000000       0.00000000 </v>
   <v name="genvec1">      0.11111111       0.00000000       0.00000000 </v>
   <v name="genvec2">      0.00000000       0.11111111       0.00000000 </v>
   <v name="genvec3">      0.00000000       0.00000000       0.11111111 </v>
   <v name="shift">      0.00000000       0.00000000       0.00000000 </v>
  </generation>
  <varray name="kpointlist" >
   <v>       0.00000000       0.00000000       0.00000000 </v>
   <v>       0.11111111       0.00000000       0.00000000 </v>
   <v>       0.22222222       0.00000000       0.00000000 </v>
   <v>       0.33333333       0.00000000       0.00000000 </v>
   <v>       0.44444444       0.00000000       0.00000000 </v>
   <v>       0.11111111       0.11111111       0.00000000 </v>
   <v>       0.22222222       0.11111111       0.00000000 </v>
   <v>       0.33333333       0.11111111       0.00000000 </v>
   <v>       0.44444444       0.11111111       0.00000000 </v>
   <v>       0.22222222       0.22222222       0.00000000 </v>
   <v>       0.33333333       0.22222222       0.00000000 </v>
   <v>       0.44444444       0.22222222       0.00000000 </v>
   <v>       0.33333333       0.33333333       0.00000000 </v>
   <v>       0.44444444       0.33333333       0.00000000 </v>
   <v>       0.44444444       0.44444444       0.00000000 </v>
   <v>       0.11111111       0.11111111       0.11111111 </v>
   <v>       0.22222222       0.11111111       0.11111111 </v>
   <v>       0.33333333       0.11111111       0.11111111 </v>
   <v>       0.44444444       0.11111111       0.11111111 </v>
   <v>       0.22222222       0.22222222       0.11111111 </v>
   <v>       0.33333333       0.22222222       0.11111111 </v>
   <v>       0.44444444       0.22222222       0.11111111 </v>
   <v>       0.33333333       0.33333333       0.11111111 </v>
   <v>       0.44444444       0.33333333       0.11111111 </v>
   <v>       0.44444444       0.44444444       0.11111111 </v>
   <v>       0.22222222       0.22222222       0.22222222 </v>
   <v>       0.33333333       0.22222222       0.22222222 </v>
   <v>       0.44444444       0.22222222       0.22222222 </v>
   <v>       0.33333333       0.33333333       0.22222222 </v>
   <v>       0.44444444       0.33333333       0.22222222 </v>
   <v>       0.44444444       0.44444444       0.22222222 </v>
   <v>       0.33333333       0.33333333       0.33333333 </v>
   <v>       0.44444444       0.33333333       0.33333333 </v>
   <v>       0.44444444       0.44444444       0.33333333 </v>
   <v>       0.44444444       0.44444444       0.44444444 </v>
  </varray>
  <varray name="weights" >
   <v>       0.00137174 </v>
   <v>       0.00823045 </v>
   <v>       0.00823045 </v>
   <v>       0.00823045 </v>
   <v>       0.00823045 </v>
   <v>       0.01646091 </v>
   <v>       0.03292181 </v>
   <v>       0.03292181 </v>
   <v>       0.03292181 </v>
   <v>       0.01646091 </v>
   <v>       0.03292181 </v>
   <v>       0.03292181 </v>
   <v>       0.01646091 </v>
   <v>       0.03292181 </v>
   <v>       0.01646091 </v>
   <v>       0.01097394 </v>
   <v>       0.03292181 </v>
   <v>       0.03292181 </v>
   <v>       0.03292181 </v>
   <v>       0.03292181 </v>
   <v>       0.06584362 </v>
   <v>       0.06584362 </v>
   <v>       0.03292181 </v>
   <v>       0.06584362 </v>
   <v>       0.03292181 </v>
   <v>       0.01097394 </v>
   <v>       0.03292181 </v>
   <v>       0.03292181 </v>
   <v>       0.03292181 </v>
   <v>       0.06584362 </v>
   <v>       0.03292181 </v>
   <v>       0.01097394 </v>
   <v>       0.03292181 </v>
   <v>       0.03292181 </v>
   <v>       0.01097394 </v>
  </varray>
 </kpoints>
 <parameters>
  <separator name="general" >
   <i type="string" name="SYSTEM">unknown system</i>
   <i type="logical" name="LCOMPAT"> F  </i>
  </separator>
  <separator name="electronic" >
   <i type="string" name="PREC">normal</i>
   <i name="ENMAX">    400.00000000</i>
   <i name="ENAUG">    356.67000000</i>
   <i name="EDIFF">      0.00010000</i>
   <i type="int" name="IALGO">    38</i>
   <i type="int" name="IWAVPR">    10</i>
   <i type="int" name="NBANDS">    48</i>
   <i name="NELECT">     44.00000000</i>
   <i type="int" name="TURBO">     0</i>
   <i type="int" name="IRESTART">     0</i>
   <i type="int" name="NREBOOT">     0</i>
   <i type="int" name="NMIN">     0</i>
   <i name="EREF">      0.00000000</i>
   <separator name="electronic smearing" >
    <i type="int" name="ISMEAR">     1</i>
    <i name="SIGMA">      0.10000000</i>
    <i name="KSPACING">      0.50000000</i>
    <i type="logical" name="KGAMMA"> T  </i>
   </separator>
   <separator name="electronic projectors" >
    <i type="logical" name="LREAL"> F  </i>
    <v name="ROPT">      0.00000000</v>
    <i type="int" name="LMAXPAW">  -100</i>
    <i type="int" name="LMAXMIX">     2</i>
    <i type="logical" name="NLSPLINE"> F  </i>
   </separator>
   <separator name="electronic startup" >
    <i type="int" name="ISTART">     0</i>
    <i type="int" name="ICHARG">     2</i>
    <i type="int" name="INIWAV">     1</i>
   </separator>
   <separator name="electronic spin" >
    <i type="int" name="ISPIN">     1</i>
    <i type="logical" name="LNONCOLLINEAR"> F  </i>
    <v name="MAGMOM">      1.00000000      1.00000000      1.00000000      1.00000000</v>
    <i name="NUPDOWN">     -1.00000000</i>
    <i type="logical" name="LSORBIT"> F  </i>
    <v name="SAXIS">      0.00000000      0.00000000      1.00000000</v>
    <i type="logical" name="LSPIRAL"> F  </i>
    <v name="QSPIRAL">      0.00000000      0.00000000      0.00000000</v>
    <i type="logical" name="LZEROZ"> F  </i>
   </separator>
   <separator name="electronic exchange-correlation" >
    <i type="logical" name="LASPH"> F  </i>
    <i type="logical" name="LMETAGGA"> F  </i>
   </separator>
   <separator name="electronic convergence" >
    <i type="int" name="NELM">    60</i>
    <i type="int" name="NELMDL">    -5</i>
    <i type="int" name="NELMIN">     2</i>
    <i name="ENINI">    400.00000000</i>
    <separator name="electronic convergence detail" >
     <i type="logical" name="LDIAG"> T  </i>
     <i type="logical" name="LSUBROT"> F  </i>
     <i name="WEIMIN">      0.00000000</i>
     <i name="EBREAK">      0.00000052</i>
     <i name="DEPER">      0.30000000</i>
     <i type="int" name="NRMM">     4</i>
     <i name="TIME">      0.40000000</i>
    </separator>
   </separator>
   <separator name="electronic mixer" >
    <i name="AMIX">      0.40000000</i>
    <i name="BMIX">      1.00000000</i>
    <i name="AMIN">      0.10000000</i>
    <i name="AMIX_MAG">      1.60000000</i>
    <i name="BMIX_MAG">      1.00000000</i>
    <separator name="electronic mixer details" >
     <i type="int" name="IMIX">     4</i>
     <i type="logical" name="MIXFIRST"> F  </i>
     <i type="int" name="MAXMIX">   -45</i>
     <i name="WC">    100.00000000</i>
     <i type="int" name="INIMIX">     1</i>
     <i type="int" name="MIXPRE">     1</i>
     <i type="int" name="MREMOVE">     5</i>
    </separator>
   </separator>
   <separator name="electronic dipolcorrection" >
    <i type="logical" name="LDIPOL"> F  </i>
    <i type="logical" name="LMONO"> F  </i>
    <i type="int" name="IDIPOL">     0</i>
    <i name="EPSILON">      1.00000000</i>
    <v name="DIPOL">   -100.00000000   -100.00000000   -100.00000000</v>
    <i name="EFIELD">      0.00000000</i>
   </separator>
  </separator>
  <separator name="grids" >
   <i type="int" name="NGX">    24</i>
   <i type="int" name="NGY">    24</i>
   <i type="int" name="NGZ">    24</i>
   <i type="int" name="NGXF">    48</i>
   <i type="int" name="NGYF">    48</i>
   <i type="int" name="NGZF">    48</i>
   <i type="logical" name="ADDGRID"> F  </i>
  </separator>
  <separator name="ionic" >
   <i type="int" name="NSW">     0</i>
   <i type="int" name="IBRION">    -1</i>
   <i type="int" name="ISIF">     2</i>
   <i name="PSTRESS">      0.00000000</i>
   <i name="EDIFFG">      0.00100000</i>
   <i type="int" name="NFREE">     0</i>
   <i name="POTIM">      0.50000000</i>
   <i name="SMASS">     -3.00000000</i>
   <i name="SCALEE">      1.00000000</i>
  </separator>
  <separator name="ionic md" >
   <i name="TEBEG">      0.00010000</i>
   <i name="TEEND">      0.00010000</i>
   <i type="int" name="NBLOCK">     1</i>
   <i type="int" name="KBLOCK">     1</i>
   <i type="int" name="NPACO">   256</i>
   <i name="APACO">     16.00000000</i>
  </separator>
  <separator name="symmetry" >
   <i type="int" name="ISYM">     2</i>
   <i name="SYMPREC">      0.00001000</i>
  </separator>
  <separator name="dos" >
   <i type="logical" name="LORBIT"> F  </i>
   <v name="RWIGS">     -1.00000000</v>
   <i type="int" name="NEDOS">   301</i>
   <i name="EMIN">     10.00000000</i>
   <i name="EMAX">    -10.00000000</i>
   <i name="EFERMI">      0.00000000</i>
  </separator>
  <separator name="writing" >
   <i type="int" name="NWRITE">     2</i>
   <i type="logical" name="LWAVE"> F  </i>
   <i type="logical" name="LCHARG"> F  </i>
   <i type="logical" name="LPARD"> F  </i>
   <i type="logical" name="LVTOT"> F  </i>
   <i type="logical" name="LVHAR"> F  </i>
   <i type="logical" name="LELF"> F  </i>
   <i type="logical" name="LOPTICS"> F  </i>
   <v name="STM">      0.00000000      0.00000000      0.00000000      0.00000000      0.00000000      0.00000000      0.00000000</v>
  </separator>
  <separator name="performance" >
   <i type="int" name="NPAR">    24</i>
   <i type="int" name="NSIM">     4</i>
   <i type="int" name="NBLK">    -1</i>
   <i type="logical" name="LPLANE"> T  </i>
   <i type="logical" name="LSCALAPACK"> F  </i>
   <i type="logical" name="LSCAAWARE"> F  </i>
   <i type="logical" name="LSCALU"> F  </i>
   <i type="logical" name="LASYNC"> F  </i>
   <i type="logical" name="LORBITALREAL"> F  </i>
  </separator>
  <separator name="miscellaneous" >
   <i type="int" name="IDIOT">     3</i>
   <i type="logical" name="LMUSIC"> F  </i>
   <v name="POMASS">    196.96600000</v>
   <v name="DARWINR">      0.00000000</v>
   <v name="DARWINV">      1.00000000</v>
   <i type="logical" name="LCORR"> T  </i>
  </separator>
  <i type="logical" name="GGA_COMPAT"> T  </i>
  <i type="logical" name="LBERRY"> F  </i>
  <i type="int" name="ICORELEVEL">     0</i>
  <i type="logical" name="LDAU"> F  </i>
  <i type="int" name="I_CONSTRAINED_M">     0</i>
  <separator name="electronic exchange-correlation" >
   <i type="string" name="GGA">--</i>
   <i type="int" name="VOSKOWN">     0</i>
   <i type="logical" name="LHFCALC"> F  </i>
   <i type="string" name="PRECFOCK"></i>
   <i type="logical" name="LSYMGRAD"> F  </i>
   <i type="logical" name="LHFONE"> F  </i>
   <i type="logical" name="LRHFCALC"> F  </i>
   <i type="logical" name="LTHOMAS"> F  </i>
   <i type="logical" name="LMODELHF"> F  </i>
   <i name="ENCUT4O">     -1.00000000</i>
   <i type="int" name="EXXOEP">     0</i>
   <i type="int" name="FOURORBIT">     0</i>
   <i name="AEXX">      0.00000000</i>
   <i name="HFALPHA">      0.00000000</i>
   <i name="MCALPHA">      0.00000000</i>
   <i name="ALDAX">      1.00000000</i>
   <i name="AGGAX">      1.00000000</i>
   <i name="ALDAC">      1.00000000</i>
   <i name="AGGAC">      1.00000000</i>
   <i type="int" name="NKREDX">     1</i>
   <i type="int" name="NKREDY">     1</i>
   <i type="int" name="NKREDZ">     1</i>
   <i type="logical" name="SHIFTRED"> F  </i>
   <i type="logical" name="ODDONLY"> F  </i>
   <i type="logical" name="EVENONLY"> F  </i>
   <i type="int" name="LMAXFOCK">     0</i>
   <i type="int" name="NMAXFOCKAE">     0</i>
   <i type="logical" name="LFOCKAEDFT"> F  </i>
   <i name="HFSCREEN">      0.00000000</i>
   <i name="HFSCREENC">      0.00000000</i>
   <i type="int" name="NBANDSGWLOW">     0</i>
  </separator>
  <separator name="vdW DFT" >
   <i type="logical" name="LUSE_VDW"> F  </i>
   <i name="Zab_VDW">     -0.84910000</i>
   <i name="PARAM1">      0.12340000</i>
   <i name="PARAM2">      1.00000000</i>
   <i name="PARAM3">      0.00000000</i>
  </separator>
  <separator name="model GW" >
   <i type="int" name="MODEL_GW">     0</i>
   <i name="MODEL_EPS0">     13.55969134</i>
   <i name="MODEL_ALPHA">      1.00000000</i>
  </separator>
  <separator name="linear response parameters" >
   <i type="logical" name="LEPSILON"> F  </i>
   <i type="logical" name="LRPA"> F  </i>
   <i type="logical" name="LNABLA"> F  </i>
   <i type="logical" name="LVEL"> F  </i>
   <i type="int" name="KINTER">     0</i>
   <i name="CSHIFT">      0.10000000</i>
   <i name="OMEGAMAX">     -1.00000000</i>
   <i name="DEG_THRESHOLD">      0.00200000</i>
  </separator>
  <separator name="orbital magnetization" >
   <i type="logical" name="NUCIND"> F  </i>
   <v name="MAGPOS">      0.00000000      0.00000000      0.00000000</v>
   <i type="logical" name="LNICSALL"> T  </i>
   <i type="logical" name="ORBITALMAG"> F  </i>
   <i type="logical" name="LMAGBLOCH"> F  </i>
   <i type="logical" name="LCHIMAG"> F  </i>
   <i type="logical" name="LGAUGE"> T  </i>
   <i type="int" name="MAGATOM">     0</i>
   <v name="MAGDIPOL">      0.00000000      0.00000000      0.00000000</v>
   <v name="AVECCONST">      0.00000000      0.00000000      0.00000000</v>
  </separator>
  <separator name="response functions" >
   <i type="logical" name="LADDER"> F  </i>
   <i type="logical" name="LFXC"> F  </i>
   <i type="logical" name="LHARTREE"> T  </i>
   <i type="int" name="IBSE">     0</i>
   <v type="int" name="KPOINT">    -1     0     0     0</v>
   <i type="logical" name="LTCTE"> F  </i>
   <i type="logical" name="LTETE"> F  </i>
   <i type="logical" name="LTRIPLET"> F  </i>
   <i type="logical" name="LFXCEPS"> F  </i>
   <i type="logical" name="LFXHEG"> F  </i>
   <i type="int" name="NATURALO">     0</i>
   <i type="logical" name="L2ORDER"> F  </i>
   <i type="logical" name="LUSEW"> F  </i>
   <i name="ENCUTGW">     -2.00000000</i>
   <i name="ENCUTGWSOFT">     -2.00000000</i>
   <i name="ENCUTLF">     -1.00000000</i>
   <i type="int" name="LMAXMP2">    -1</i>
   <i name="SCISSOR">      0.00000000</i>
   <i type="int" name="NOMEGA">     0</i>
   <i type="int" name="NOMEGAR">     0</i>
   <i type="int" name="NBANDSGW">    -1</i>
   <i type="int" name="NBANDSO">    -1</i>
   <i type="int" name="NBANDSV">    -1</i>
   <i type="int" name="NELM">     1</i>
   <i type="int" name="NELMHF">     1</i>
   <i type="int" name="DIM">     3</i>
   <i type="int" name="ANTIRES">     0</i>
   <i name="OMEGAMAX">    -30.00000000</i>
   <i name="OMEGAMIN">    -30.00000000</i>
   <i name="OMEGATL">   -200.00000000</i>
   <i type="int" name="OMEGAGRID">     0</i>
   <i name="CSHIFT">     -0.10000000</i>
   <i type="logical" name="SELFENERGY"> F  </i>
   <i type="logical" name="LSPECTRAL"> F  </i>
   <i type="logical" name="LSPECTRALGW"> F  </i>
   <i type="logical" name="LSINGLES"> F  </i>
   <i type="logical" name="LFERMIGW"> F  </i>
   <i type="logical" name="ODDONLYGW"> F  </i>
   <i type="logical" name="EVENONLYGW"> F  </i>
   <i type="int" name="NKREDLFX">     1</i>
   <i type="int" name="NKREDLFY">     1</i>
   <i type="int" name="NKREDLFZ">     1</i>
   <i type="int" name="MAXMEM">  1800</i>
   <i type="int" name="TELESCOPE">     0</i>
   <i type="int" name="TAUPAR">     1</i>
   <i type="int" name="OMEGAPAR">    -1</i>
   <i name="LAMBDA">      1.00000000</i>
  </separator>
  <separator name="External order field" >
   <i name="OFIELD_KAPPA">      0.00000000</i>
   <v name="OFIELD_K">      0.00000000      0.00000000      0.00000000</v>
   <i name="OFIELD_Q6_NEAR">      0.00000000</i>
   <i name="OFIELD_Q6_FAR">      0.00000000</i>
   <i name="OFIELD_A">      0.00000000</i>
  </separator>
 </parameters>
 <atominfo>
  <atoms>       4 </atoms>
  <types>       1 </types>
  <array name="atoms" >
   <dimension dim="1">ion</dimension>
   <field type="string">element</field>
   <field type="int">atomtype</field>
   <set>
    <rc><c>Au</c><c>   1</c></rc>
    <rc><c>Au</c><c>   1</c></rc>
    <rc><c>Au</c><c>   1</c></rc>
    <rc><c>Au</c><c>   1</c></rc>
   </set>
  </array>
  <array name="atomtypes" >
   <dimension dim="1">type</dimension>
   <field type="int">atomspertype</field>
   <field type="string">element</field>
   <field>mass</field>
   <field>valence</field>
   <field type="string">pseudopotential</field>
   <set>
    <rc><c>   4</c><c>Au</c><c>    196.96600000</c><c>     11.00000000</c><c>  PAW_PBE Au 04Oct2007                  </c></rc>
   </set>
  </array>
 </atominfo>
 <structure name="initialpos" >
  <crystal>
   <varray name="basis" >
    <v>       4.48800000       0.00000000       0.00000000 </v>
    <v>       0.00000000       4.48800000       0.00000000 </v>
    <v>       0.00000000       0.00000000       4.48800000 </v>
   </varray>
   <i name="volume">     90.39794227 </i>
   <varray name="rec_basis" >
    <v>       0.22281640       0.00000000       0.00000000 </v>
    <v>       0.00000000       0.22281640       0.00000000 </v>
    <v>       0.00000000       0.00000000       0.22281640 </v>
   </varray>
  </crystal>
  <varray name="positions" >
   <v>       0.00000000       0.00000000       0.00000000 </v>
   <v>       0.00000000       0.50000000       0.50000000 </v>
   <v>       0.50000000       0.00000000       0.50000000 </v>
   <v>       0.50000000       0.50000000       0.00000000 </v>
  </varray>
 </structure>
 <calculation>
  <scstep>
   <time name="dav">    0.58    0.59</time>
   <time name="total">    0.76    0.77</time>
   <energy>
    <i name="alphaZ">    206.16328571 </i>
    <i name="ewald">  -3559.95797220 </i>
    <i name="hartreedc">   -648.53455856 </i>
    <i name="XCdc">     59.27772485 </i>
    <i name="pawpsdc">   3496.39001341 </i>
    <i name="pawaedc">  -3404.04053930 </i>
    <i name="eentropy">     -0.00054457 </i>
    <i name="bandstr">    322.26469361 </i>
    <i name="atom">   3704.32207507 </i>
    <i name="e_fr_energy">    175.88417803 </i>
    <i name="e_wo_entrp">    175.88472259 </i>
    <i name="e_0_energy">    175.88435955 </i>
   </energy>
  </scstep>
  <scstep>
   <time name="dav">    0.79    0.80</time>
   <time name="total">    0.80    0.81</time>
   <energy>
    <i name="e_fr_energy">    -10.12383957 </i>
    <i name="e_wo_entrp">    -10.12447294 </i>
    <i name="e_0_energy">    -10.12405069 </i>
   </energy>
  </scstep>
  <scstep>
   <time name="dav">    0.73    0.73</time>
   <time name="total">    0.73    0.73</time>
   <energy>
    <i name="e_fr_energy">    -12.50598370 </i>
    <i name="e_wo_entrp">    -12.50665380 </i>
    <i name="e_0_energy">    -12.50620706 </i>
   </energy>
  </scstep>
  <scstep>
   <time name="dav">    0.92    0.92</time>
   <time name="total">    0.92    0.93</time>
   <energy>
    <i name="e_fr_energy">    -12.51731577 </i>
    <i name="e_wo_entrp">    -12.51798519 </i>
    <i name="e_0_energy">    -12.51753891 </i>
   </energy>
  </scstep>
  <scstep>
   <time name="dav">    0.76    0.76</time>
   <time name="total">    0.77    0.78</time>
   <energy>
    <i name="e_fr_energy">    -12.51744533 </i>
    <i name="e_wo_entrp">    -12.51811474 </i>
    <i name="e_0_energy">    -12.51766847 </i>
   </energy>
  </scstep>
  <scstep>
   <time name="dav">    0.85    0.85</time>
   <time name="total">    0.87    0.88</time>
   <energy>
    <i name="e_fr_energy">    -11.69205551 </i>
    <i name="e_wo_entrp">    -11.69293143 </i>
    <i name="e_0_energy">    -11.69234748 </i>
   </energy>
  </scstep>
  <scstep>
   <time name="dav">    0.81    0.81</time>
   <time name="total">    0.83    0.84</time>
   <energy>
    <i name="e_fr_energy">    -11.67382227 </i>
    <i name="e_wo_entrp">    -11.67464148 </i>
    <i name="e_0_energy">    -11.67409534 </i>
   </energy>
  </scstep>
  <scstep>
   <time name="dav">    0.83    0.83</time>
   <time name="total">    0.85    0.86</time>
   <energy>
    <i name="e_fr_energy">    -11.67223831 </i>
    <i name="e_wo_entrp">    -11.67304234 </i>
    <i name="e_0_energy">    -11.67250632 </i>
   </energy>
  </scstep>
  <scstep>
   <time name="dav">    0.72    0.72</time>
   <time name="total">    0.72    0.73</time>
   <energy>
    <i name="alphaZ">    206.16328571 </i>
    <i name="ewald">  -3559.95797220 </i>
    <i name="hartreedc">   -607.76527334 </i>
    <i name="XCdc">     57.39195933 </i>
    <i name="pawpsdc">   3735.27382040 </i>
    <i name="pawaedc">  -3648.63195049 </i>
    <i name="eentropy">      0.00080715 </i>
    <i name="bandstr">    101.53101945 </i>
    <i name="atom">   3704.32207507 </i>
    <i name="e_fr_energy">    -11.67222893 </i>
    <i name="e_wo_entrp">    -11.67303608 </i>
    <i name="e_0_energy">    -11.67249798 </i>
   </energy>
  </scstep>
  <structure>
   <crystal>
    <varray name="basis" >
     <v>       4.48800000       0.00000000       0.00000000 </v>
     <v>       0.00000000       4.48800000       0.00000000 </v>
     <v>       0.00000000       0.00000000       4.48800000 </v>
    </varray>
    <i name="volume">     90.39794227 </i>
    <varray name="rec_basis" >
     <v>       0.22281640       0.00000000       0.00000000 </v>
     <v>       0.00000000       0.22281640       0.00000000 </v>
     <v>       0.00000000       0.00000000       0.22281640 </v>
    </varray>
   </crystal>
   <varray name="positions" >
    <v>       0.00000000       0.00000000       0.00000000 </v>
    <v>       0.00000000       0.50000000       0.50000000 </v>
    <v>       0.50000000       0.00000000       0.50000000 </v>
    <v>       0.50000000       0.50000000       0.00000000 </v>
   </varray>
  </structure>
  <varray name="forces" >
   <v>      -0.00000000       0.00000000      -0.00000000 </v>
   <v>       0.00000000       0.00000000      -0.00000000 </v>
   <v>      -0.00000000      -0.00000000       0.00000000 </v>
   <v>       0.00000000       0.00000000      -0.00000000 </v>
  </varray>
  <varray name="stress" >
   <v>    -161.14133180       0.00000000       0.00000000 </v>
   <v>       0.00000000    -161.14133180       0.00000000 </v>
   <v>       0.00000000      -0.00000000    -161.14133180 </v>
  </varray>
  <energy>
   <i name="e_fr_energy">    -11.67222893 </i>
   <i name="e_wo_entrp">    -11.67249798 </i>
   <i name="e_0_energy">      0.00080715 </i>
  </energy>
  <time name="totalsc">    7.76    7.84</time>
  <eigenvalues>
   <array>
    <dimension dim="1">band</dimension>
    <dimension dim="2">kpoint</dimension>
    <dimension dim="3">spin</dimension>
    <field>eigene</field>
    <field>occ</field>
    <set>
     <set comment="spin 1">
      <set comment="kpoint 1">
       <r>   -1.7942    1.0000 </r>
       <r>    0.5532    1.0000 </r>
       <r>    0.5532    1.0000 </r>
       <r>    0.5532    1.0000 </r>
       <r>    0.7359    1.0000 </r>
       <r>    0.7359    1.0000 </r>
       <r>    0.7359    1.0000 </r>
       <r>    1.9989    1.0000 </r>
       <r>    1.9989    1.0000 </r>
       <r>    1.9989    1.0000 </r>
       <r>    2.9106    1.0000 </r>
       <r>    2.9106    1.0000 </r>
       <r>    3.6047    1.0000 </r>
       <r>    3.6047    1.0000 </r>
       <r>    3.6047    1.0000 </r>
       <r>    3.8274    1.0000 </r>
       <r>    3.8274    1.0000 </r>
       <r>    3.8274    1.0000 </r>
       <r>    3.8274    1.0000 </r>
       <r>    3.8274    1.0000 </r>
       <r>    3.8274    1.0000 </r>
       <r>    7.1962   -0.0000 </r>
       <r>    7.1962   -0.0000 </r>
       <r>    7.1962   -0.0000 </r>
       <r>    9.2735    0.0000 </r>
       <r>    9.2735    0.0000 </r>
       <r>    9.2735    0.0000 </r>
       <r>   14.6044    0.0000 </r>
       <r>   14.6044    0.0000 </r>
       <r>   14.6044    0.0000 </r>
       <r>   14.6044    0.0000 </r>
       <r>   14.6044    0.0000 </r>
       <r>   14.6044    0.0000 </r>
       <r>   19.8478    0.0000 </r>
       <r>   19.8478    0.0000 </r>
       <r>   19.8478    0.0000 </r>
       <r>   19.9952    0.0000 </r>
       <r>   21.8525    0.0000 </r>
       <r>   21.8525    0.0000 </r>
       <r>   21.8525    0.0000 </r>
       <r>   22.3441    0.0000 </r>
       <r>   22.3441    0.0000 </r>
       <r>   22.3441    0.0000 </r>
       <r>   26.5034    0.0000 </r>
       <r>   28.8249    0.0000 </r>
       <r>   28.8249    0.0000 </r>
       <r>   28.8249    0.0000 </r>
       <r>   29.6071    0.0000 </r>
      </set>
      <set comment="kpoint 2">
       <r>   -1.6819    1.0000 </r>
       <r>    0.5829    1.0000 </r>
       <r>    0.6186    1.0000 </r>
       <r>    0.6186    1.0000 </r>
       <r>    0.7697    1.0000 </r>
       <r>    0.7880    1.0000 </r>
       <r>    0.7880    1.0000 </r>
       <r>    1.9557    1.0000 </r>
       <r>    2.0402    1.0000 </r>
       <r>    2.0402    1.0000 </r>
       <r>    2.8660    1.0000 </r>
       <r>    2.9303    1.0000 </r>
       <r>    3.5426    1.0000 </r>
       <r>    3.5426    1.0000 </r>
       <r>    3.5825    1.0000 </r>
       <r>    3.6044    1.0000 </r>
       <r>    3.6044    1.0000 </r>
       <r>    3.7506    1.0000 </r>
       <r>    3.7506    1.0000 </r>
       <r>    3.8275    1.0000 </r>
       <r>    3.8275    1.0000 </r>
       <r>    6.1150   -0.0000 </r>
       <r>    7.5110   -0.0000 </r>
       <r>    7.5110   -0.0000 </r>
       <r>    9.2144    0.0000 </r>
       <r>    9.2144    0.0000 </r>
       <r>   10.5570    0.0000 </r>
       <r>   14.3382    0.0000 </r>
       <r>   14.3382    0.0000 </r>
       <r>   14.3785    0.0000 </r>
       <r>   14.3785    0.0000 </r>
       <r>   14.8092    0.0000 </r>
       <r>   14.8092    0.0000 </r>
       <r>   19.8211    0.0000 </r>
       <r>   20.0674    0.0000 </r>
       <r>   20.4132    0.0000 </r>
       <r>   20.4132    0.0000 </r>
       <r>   21.8098    0.0000 </r>
       <r>   21.8939    0.0000 </r>
       <r>   22.0807    0.0000 </r>
       <r>   22.0807    0.0000 </r>
       <r>   22.1117    0.0000 </r>
       <r>   22.1117    0.0000 </r>
       <r>   27.1540    0.0000 </r>
       <r>   28.0480    0.0000 </r>
       <r>   28.0480    0.0000 </r>
       <r>   28.5309    0.0000 </r>
       <r>   28.9647    0.0000 </r>
      </set>
      <set comment="kpoint 3">
       <r>   -1.3511    1.0000 </r>
       <r>    0.6496    1.0000 </r>
       <r>    0.8015    1.0000 </r>
       <r>    0.8015    1.0000 </r>
       <r>    0.8684    1.0000 </r>
       <r>    0.9443    1.0000 </r>
       <r>    0.9443    1.0000 </r>
       <r>    1.8335    1.0000 </r>
       <r>    2.1623    1.0000 </r>
       <r>    2.1623    1.0000 </r>
       <r>    2.7433    1.0000 </r>
       <r>    2.9875    1.0000 </r>
       <r>    3.1038    1.0000 </r>
       <r>    3.1038    1.0000 </r>
       <r>    3.3658    1.0000 </r>
       <r>    3.3658    1.0000 </r>
       <r>    3.5188    1.0000 </r>
       <r>    3.5412    1.0000 </r>
       <r>    3.5412    1.0000 </r>
       <r>    3.8278    1.0000 </r>
       <r>    3.8278    1.0000 </r>
       <r>    4.6171    1.0000 </r>
       <r>    8.2829    0.0000 </r>
       <r>    8.2829    0.0000 </r>
       <r>    9.0654    0.0000 </r>
       <r>    9.0654    0.0000 </r>
       <r>   12.6761    0.0000 </r>
       <r>   13.6303    0.0000 </r>
       <r>   13.6303    0.0000 </r>
       <r>   13.9412    0.0000 </r>
       <r>   13.9412    0.0000 </r>
       <r>   15.3987    0.0000 </r>
       <r>   15.3987    0.0000 </r>
       <r>   19.7655    0.0000 </r>
       <r>   20.2688    0.0000 </r>
       <r>   21.0770    0.0000 </r>
       <r>   21.2904    0.0000 </r>
       <r>   21.2904    0.0000 </r>
       <r>   21.6831    0.0000 </r>
       <r>   21.8363    0.0000 </r>
       <r>   21.8363    0.0000 </r>
       <r>   22.8165    0.0000 </r>
       <r>   22.8165    0.0000 </r>
       <r>   25.7742    0.0000 </r>
       <r>   27.6212    0.0000 </r>
       <r>   27.6212    0.0000 </r>
       <r>   29.2597    0.0000 </r>
       <r>   29.3890    0.0000 </r>
      </set>
      <set comment="kpoint 4">
       <r>   -0.8249    1.0000 </r>
       <r>    0.6634    1.0000 </r>
       <r>    1.0235    1.0000 </r>
       <r>    1.0540    1.0000 </r>
       <r>    1.0540    1.0000 </r>
       <r>    1.2034    1.0000 </r>
       <r>    1.2034    1.0000 </r>
       <r>    1.6520    1.0000 </r>
       <r>    2.3596    1.0000 </r>
       <r>    2.3596    1.0000 </r>
       <r>    2.5404    1.0000 </r>
       <r>    2.5404    1.0000 </r>
       <r>    2.5811    1.0000 </r>
       <r>    3.0762    1.0000 </r>
       <r>    3.1158    1.0000 </r>
       <r>    3.1158    1.0000 </r>
       <r>    3.2488    1.0000 </r>
       <r>    3.2488    1.0000 </r>
       <r>    3.3737    1.0000 </r>
       <r>    3.4228    1.0000 </r>
       <r>    3.8280    1.0000 </r>
       <r>    3.8280    1.0000 </r>
       <r>    8.8989    0.0000 </r>
       <r>    8.8989    0.0000 </r>
       <r>    9.2851    0.0000 </r>
       <r>    9.2851    0.0000 </r>
       <r>   12.6521    0.0000 </r>
       <r>   12.6521    0.0000 </r>
       <r>   13.5805    0.0000 </r>
       <r>   13.5805    0.0000 </r>
       <r>   15.0248    0.0000 </r>
       <r>   16.3105    0.0000 </r>
       <r>   16.3105    0.0000 </r>
       <r>   19.7469    0.0000 </r>
       <r>   20.1070    0.0000 </r>
       <r>   20.1070    0.0000 </r>
       <r>   20.3461    0.0000 </r>
       <r>   20.5593    0.0000 </r>
       <r>   21.4779    0.0000 </r>
       <r>   23.1150    0.0000 </r>
       <r>   23.7247    0.0000 </r>
       <r>   23.7247    0.0000 </r>
       <r>   23.8402    0.0000 </r>
       <r>   23.8402    0.0000 </r>
       <r>   27.8486    0.0000 </r>
       <r>   27.8486    0.0000 </r>
       <r>   28.0929    0.0000 </r>
       <r>   28.0929    0.0000 </r>
      </set>
      <set comment="kpoint 5">
       <r>   -0.1712    1.0000 </r>
       <r>    0.4160    1.0000 </r>
       <r>    1.2202    1.0000 </r>
       <r>    1.2646    1.0000 </r>
       <r>    1.2646    1.0000 </r>
       <r>    1.4381    1.0000 </r>
       <r>    1.5623    1.0000 </r>
       <r>    1.5623    1.0000 </r>
       <r>    2.0135    1.0000 </r>
       <r>    2.0135    1.0000 </r>
       <r>    2.4712    1.0000 </r>
       <r>    2.6210    1.0000 </r>
       <r>    2.6210    1.0000 </r>
       <r>    2.6357    1.0000 </r>
       <r>    2.9043    1.0000 </r>
       <r>    2.9043    1.0000 </r>
       <r>    2.9275    1.0000 </r>
       <r>    2.9275    1.0000 </r>
       <r>    3.1869    1.0000 </r>
       <r>    3.3072    1.0000 </r>
       <r>    3.8283    1.0000 </r>
       <r>    3.8283    1.0000 </r>
       <r>    8.7927    0.0000 </r>
       <r>    8.7927    0.0000 </r>
       <r>   10.3965    0.0000 </r>
       <r>   10.3965    0.0000 </r>
       <r>   11.5427    0.0000 </r>
       <r>   11.5427    0.0000 </r>
       <r>   13.3930    0.0000 </r>
       <r>   13.3930    0.0000 </r>
       <r>   17.4647    0.0000 </r>
       <r>   17.4647    0.0000 </r>
       <r>   17.4955    0.0000 </r>
       <r>   18.7702    0.0000 </r>
       <r>   18.7702    0.0000 </r>
       <r>   19.5919    0.0000 </r>
       <r>   19.8724    0.0000 </r>
       <r>   20.6714    0.0000 </r>
       <r>   20.8875    0.0000 </r>
       <r>   21.2054    0.0000 </r>
       <r>   25.0980    0.0000 </r>
       <r>   25.0980    0.0000 </r>
       <r>   25.6932    0.0000 </r>
       <r>   25.6932    0.0000 </r>
       <r>   26.5382    0.0000 </r>
       <r>   26.5382    0.0000 </r>
       <r>   28.5880    0.0000 </r>
       <r>   28.5881    0.0000 </r>
      </set>
      <set comment="kpoint 6">
       <r>   -1.5715    1.0000 </r>
       <r>    0.6495    1.0000 </r>
       <r>    0.6495    1.0000 </r>
       <r>    0.6659    1.0000 </r>
       <r>    0.8207    1.0000 </r>
       <r>    0.8207    1.0000 </r>
       <r>    0.8534    1.0000 </r>
       <r>    1.9409    1.0000 </r>
       <r>    2.0550    1.0000 </r>
       <r>    2.0752    1.0000 </r>
       <r>    2.8555    1.0000 </r>
       <r>    2.9236    1.0000 </r>
       <r>    3.4333    1.0000 </r>
       <r>    3.4333    1.0000 </r>
       <r>    3.4622    1.0000 </r>
       <r>    3.4861    1.0000 </r>
       <r>    3.5993    1.0000 </r>
       <r>    3.5993    1.0000 </r>
       <r>    3.7503    1.0000 </r>
       <r>    3.7503    1.0000 </r>
       <r>    3.7747    1.0000 </r>
       <r>    6.3949   -0.0000 </r>
       <r>    6.3949   -0.0000 </r>
       <r>    7.7984   -0.0000 </r>
       <r>    9.1404    0.0000 </r>
       <r>   10.5198    0.0000 </r>
       <r>   10.5198    0.0000 </r>
       <r>   13.4826    0.0000 </r>
       <r>   14.5367    0.0000 </r>
       <r>   14.5367    0.0000 </r>
       <r>   14.5935    0.0000 </r>
       <r>   14.5935    0.0000 </r>
       <r>   14.9889    0.0000 </r>
       <r>   20.0623    0.0000 </r>
       <r>   20.3981    0.0000 </r>
       <r>   20.3981    0.0000 </r>
       <r>   20.4995    0.0000 </r>
       <r>   20.8632    0.0000 </r>
       <r>   21.9147    0.0000 </r>
       <r>   22.0785    0.0000 </r>
       <r>   22.0785    0.0000 </r>
       <r>   22.6140    0.0000 </r>
       <r>   22.7563    0.0000 </r>
       <r>   26.3823    0.0000 </r>
       <r>   27.9890    0.0000 </r>
       <r>   28.4861    0.0000 </r>
       <r>   28.6459    0.0000 </r>
       <r>   28.7315    0.0000 </r>
      </set>
      <set comment="kpoint 7">
       <r>   -1.2463    1.0000 </r>
       <r>    0.7203    1.0000 </r>
       <r>    0.8060    1.0000 </r>
       <r>    0.8365    1.0000 </r>
       <r>    0.9159    1.0000 </r>
       <r>    0.9733    1.0000 </r>
       <r>    1.0372    1.0000 </r>
       <r>    1.8374    1.0000 </r>
       <r>    2.1640    1.0000 </r>
       <r>    2.1748    1.0000 </r>
       <r>    2.7562    1.0000 </r>
       <r>    2.9486    1.0000 </r>
       <r>    2.9837    1.0000 </r>
       <r>    3.0344    1.0000 </r>
       <r>    3.1658    1.0000 </r>
       <r>    3.3238    1.0000 </r>
       <r>    3.4056    1.0000 </r>
       <r>    3.5290    1.0000 </r>
       <r>    3.5400    1.0000 </r>
       <r>    3.7484    1.0000 </r>
       <r>    3.7494    1.0000 </r>
       <r>    4.9697    1.0000 </r>
       <r>    6.9947   -0.0000 </r>
       <r>    8.5263    0.0000 </r>
       <r>    8.9423    0.0000 </r>
       <r>   10.4555    0.0000 </r>
       <r>   12.5146    0.0000 </r>
       <r>   12.6429    0.0000 </r>
       <r>   13.8174    0.0000 </r>
       <r>   14.2132    0.0000 </r>
       <r>   15.0588    0.0000 </r>
       <r>   15.1056    0.0000 </r>
       <r>   15.2426    0.0000 </r>
       <r>   19.6992    0.0000 </r>
       <r>   19.9215    0.0000 </r>
       <r>   20.3812    0.0000 </r>
       <r>   21.1311    0.0000 </r>
       <r>   21.5305    0.0000 </r>
       <r>   21.8240    0.0000 </r>
       <r>   21.9811    0.0000 </r>
       <r>   22.6781    0.0000 </r>
       <r>   22.8039    0.0000 </r>
       <r>   23.7745    0.0000 </r>
       <r>   25.2386    0.0000 </r>
       <r>   27.3567    0.0000 </r>
       <r>   27.8094    0.0000 </r>
       <r>   29.0000    0.0000 </r>
       <r>   29.4615    0.0000 </r>
      </set>
      <set comment="kpoint 8">
       <r>   -0.7297    1.0000 </r>
       <r>    0.7398    1.0000 </r>
       <r>    1.0291    1.0000 </r>
       <r>    1.0652    1.0000 </r>
       <r>    1.0966    1.0000 </r>
       <r>    1.2258    1.0000 </r>
       <r>    1.2985    1.0000 </r>
       <r>    1.6669    1.0000 </r>
       <r>    2.2980    1.0000 </r>
       <r>    2.3582    1.0000 </r>
       <r>    2.4060    1.0000 </r>
       <r>    2.5117    1.0000 </r>
       <r>    2.6508    1.0000 </r>
       <r>    2.7547    1.0000 </r>
       <r>    3.0929    1.0000 </r>
       <r>    3.0948    1.0000 </r>
       <r>    3.1587    1.0000 </r>
       <r>    3.2467    1.0000 </r>
       <r>    3.3757    1.0000 </r>
       <r>    3.7439    1.0000 </r>
       <r>    3.7479    1.0000 </r>
       <r>    3.9186    1.0000 </r>
       <r>    7.6096   -0.0000 </r>
       <r>    8.6802    0.0000 </r>
       <r>    9.4964    0.0000 </r>
       <r>   10.4971    0.0000 </r>
       <r>   11.9177    0.0000 </r>
       <r>   12.8326    0.0000 </r>
       <r>   13.9800    0.0000 </r>
       <r>   14.4906    0.0000 </r>
       <r>   14.6929    0.0000 </r>
       <r>   15.9766    0.0000 </r>
       <r>   16.4093    0.0000 </r>
       <r>   18.5566    0.0000 </r>
       <r>   19.2962    0.0000 </r>
       <r>   20.4390    0.0000 </r>
       <r>   21.3357    0.0000 </r>
       <r>   21.8267    0.0000 </r>
       <r>   21.9234    0.0000 </r>
       <r>   22.3520    0.0000 </r>
       <r>   23.1535    0.0000 </r>
       <r>   23.6234    0.0000 </r>
       <r>   23.8493    0.0000 </r>
       <r>   25.3088    0.0000 </r>
       <r>   27.2464    0.0000 </r>
       <r>   27.9598    0.0000 </r>
       <r>   28.0145    0.0000 </r>
       <r>   28.1573    0.0000 </r>
      </set>
      <set comment="kpoint 9">
       <r>   -0.0877    1.0000 </r>
       <r>    0.4939    1.0000 </r>
       <r>    1.2542    1.0000 </r>
       <r>    1.2776    1.0000 </r>
       <r>    1.3140    1.0000 </r>
       <r>    1.4630    1.0000 </r>
       <r>    1.5740    1.0000 </r>
       <r>    1.5742    1.0000 </r>
       <r>    1.9246    1.0000 </r>
       <r>    2.0095    1.0000 </r>
       <r>    2.3062    1.0000 </r>
       <r>    2.3790    1.0000 </r>
       <r>    2.6186    1.0000 </r>
       <r>    2.7610    1.0000 </r>
       <r>    2.9056    1.0000 </r>
       <r>    2.9249    1.0000 </r>
       <r>    2.9354    1.0000 </r>
       <r>    3.0712    1.0000 </r>
       <r>    3.2419    1.0000 </r>
       <r>    3.4417    1.0000 </r>
       <r>    3.7444    1.0000 </r>
       <r>    3.7461    1.0000 </r>
       <r>    8.0769   -0.0000 </r>
       <r>    8.4019    0.0000 </r>
       <r>   10.5882    0.0000 </r>
       <r>   10.7794    0.0000 </r>
       <r>   11.2879    0.0000 </r>
       <r>   11.7245    0.0000 </r>
       <r>   13.9952    0.0000 </r>
       <r>   14.2604    0.0000 </r>
       <r>   16.0950    0.0000 </r>
       <r>   17.0578    0.0000 </r>
       <r>   17.3855    0.0000 </r>
       <r>   18.2299    0.0000 </r>
       <r>   18.2799    0.0000 </r>
       <r>   20.6318    0.0000 </r>
       <r>   20.6736    0.0000 </r>
       <r>   21.1889    0.0000 </r>
       <r>   21.4358    0.0000 </r>
       <r>   21.6321    0.0000 </r>
       <r>   23.7999    0.0000 </r>
       <r>   24.7925    0.0000 </r>
       <r>   25.1271    0.0000 </r>
       <r>   26.5865    0.0000 </r>
       <r>   27.0837    0.0000 </r>
       <r>   27.2495    0.0000 </r>
       <r>   27.9542    0.0000 </r>
       <r>   28.6929    0.0000 </r>
      </set>
      <set comment="kpoint 10">
       <r>   -0.9386    1.0000 </r>
       <r>    0.8750    1.0000 </r>
       <r>    0.9202    1.0000 </r>
       <r>    0.9202    1.0000 </r>
       <r>    1.0575    1.0000 </r>
       <r>    1.0575    1.0000 </r>
       <r>    1.2465    1.0000 </r>
       <r>    1.8055    1.0000 </r>
       <r>    2.2117    1.0000 </r>
       <r>    2.2167    1.0000 </r>
       <r>    2.6281    1.0000 </r>
       <r>    2.6281    1.0000 </r>
       <r>    2.7246    1.0000 </r>
       <r>    2.7946    1.0000 </r>
       <r>    3.0495    1.0000 </r>
       <r>    3.1993    1.0000 </r>
       <r>    3.3902    1.0000 </r>
       <r>    3.3902    1.0000 </r>
       <r>    3.5366    1.0000 </r>
       <r>    3.5366    1.0000 </r>
       <r>    3.6217    1.0000 </r>
       <r>    5.6059   -0.0126 </r>
       <r>    5.6059   -0.0126 </r>
       <r>    8.5871    0.0000 </r>
       <r>    9.1731    0.0000 </r>
       <r>   11.8259    0.0000 </r>
       <r>   12.0925    0.0000 </r>
       <r>   12.0925    0.0000 </r>
       <r>   14.3504    0.0000 </r>
       <r>   14.3504    0.0000 </r>
       <r>   15.0855    0.0000 </r>
       <r>   15.0855    0.0000 </r>
       <r>   16.0645    0.0000 </r>
       <r>   18.3202    0.0000 </r>
       <r>   19.1920    0.0000 </r>
       <r>   20.6383    0.0000 </r>
       <r>   21.8224    0.0000 </r>
       <r>   21.8224    0.0000 </r>
       <r>   21.9183    0.0000 </r>
       <r>   22.7668    0.0000 </r>
       <r>   22.7668    0.0000 </r>
       <r>   23.9239    0.0000 </r>
       <r>   24.0505    0.0000 </r>
       <r>   25.2324    0.0000 </r>
       <r>   26.6187    0.0000 </r>
       <r>   28.3397    0.0000 </r>
       <r>   28.5034    0.0000 </r>
       <r>   29.0601    0.0000 </r>
      </set>
      <set comment="kpoint 11">
       <r>   -0.4528    1.0000 </r>
       <r>    0.9568    1.0000 </r>
       <r>    1.0356    1.0000 </r>
       <r>    1.1886    1.0000 </r>
       <r>    1.2059    1.0000 </r>
       <r>    1.2900    1.0000 </r>
       <r>    1.4927    1.0000 </r>
       <r>    1.6929    1.0000 </r>
       <r>    2.1200    1.0000 </r>
       <r>    2.2339    1.0000 </r>
       <r>    2.2658    1.0000 </r>
       <r>    2.3753    1.0000 </r>
       <r>    2.4111    1.0000 </r>
       <r>    2.6681    1.0000 </r>
       <r>    3.0158    1.0000 </r>
       <r>    3.1760    1.0000 </r>
       <r>    3.2283    1.0000 </r>
       <r>    3.2418    1.0000 </r>
       <r>    3.2549    1.0000 </r>
       <r>    3.5323    1.0000 </r>
       <r>    3.5557    1.0000 </r>
       <r>    4.5417    1.0000 </r>
       <r>    6.2686   -0.0000 </r>
       <r>    8.0718   -0.0000 </r>
       <r>   10.0762    0.0000 </r>
       <r>   11.3555    0.0000 </r>
       <r>   11.6137    0.0000 </r>
       <r>   13.3447    0.0000 </r>
       <r>   13.4896    0.0000 </r>
       <r>   15.1572    0.0000 </r>
       <r>   15.1729    0.0000 </r>
       <r>   16.3041    0.0000 </r>
       <r>   16.6186    0.0000 </r>
       <r>   17.0495    0.0000 </r>
       <r>   18.2639    0.0000 </r>
       <r>   21.1445    0.0000 </r>
       <r>   21.9241    0.0000 </r>
       <r>   22.2452    0.0000 </r>
       <r>   22.5922    0.0000 </r>
       <r>   22.7053    0.0000 </r>
       <r>   23.3829    0.0000 </r>
       <r>   23.8724    0.0000 </r>
       <r>   24.0194    0.0000 </r>
       <r>   26.0407    0.0000 </r>
       <r>   26.8441    0.0000 </r>
       <r>   27.6815    0.0000 </r>
       <r>   28.3489    0.0000 </r>
       <r>   28.3597    0.0000 </r>
      </set>
      <set comment="kpoint 12">
       <r>    0.1493    1.0000 </r>
       <r>    0.7102    1.0000 </r>
       <r>    1.2827    1.0000 </r>
       <r>    1.3526    1.0000 </r>
       <r>    1.4544    1.0000 </r>
       <r>    1.5297    1.0000 </r>
       <r>    1.6064    1.0000 </r>
       <r>    1.6505    1.0000 </r>
       <r>    1.7193    1.0000 </r>
       <r>    1.9913    1.0000 </r>
       <r>    2.0804    1.0000 </r>
       <r>    2.1496    1.0000 </r>
       <r>    2.6207    1.0000 </r>
       <r>    2.7690    1.0000 </r>
       <r>    2.8812    1.0000 </r>
       <r>    2.9212    1.0000 </r>
       <r>    2.9562    1.0000 </r>
       <r>    3.0122    1.0000 </r>
       <r>    3.4885    1.0000 </r>
       <r>    3.5296    1.0000 </r>
       <r>    3.5335    1.0000 </r>
       <r>    3.8742    1.0000 </r>
       <r>    6.8996   -0.0000 </r>
       <r>    7.4967   -0.0000 </r>
       <r>   11.1240    0.0000 </r>
       <r>   11.1858    0.0000 </r>
       <r>   11.2808    0.0000 </r>
       <r>   12.2378    0.0000 </r>
       <r>   14.6954    0.0000 </r>
       <r>   15.4891    0.0000 </r>
       <r>   15.8566    0.0000 </r>
       <r>   15.9432    0.0000 </r>
       <r>   16.1458    0.0000 </r>
       <r>   17.2162    0.0000 </r>
       <r>   18.6202    0.0000 </r>
       <r>   20.7476    0.0000 </r>
       <r>   22.2516    0.0000 </r>
       <r>   22.4218    0.0000 </r>
       <r>   22.4708    0.0000 </r>
       <r>   22.6132    0.0000 </r>
       <r>   22.9458    0.0000 </r>
       <r>   23.6489    0.0000 </r>
       <r>   25.2046    0.0000 </r>
       <r>   26.7202    0.0000 </r>
       <r>   26.7429    0.0000 </r>
       <r>   27.5973    0.0000 </r>
       <r>   27.8587    0.0000 </r>
       <r>   28.5833    0.0000 </r>
      </set>
      <set comment="kpoint 13">
       <r>   -0.0240    1.0000 </r>
       <r>    1.1113    1.0000 </r>
       <r>    1.2708    1.0000 </r>
       <r>    1.2708    1.0000 </r>
       <r>    1.3873    1.0000 </r>
       <r>    1.3873    1.0000 </r>
       <r>    1.6829    1.0000 </r>
       <r>    1.7057    1.0000 </r>
       <r>    1.8582    1.0000 </r>
       <r>    1.8582    1.0000 </r>
       <r>    2.1980    1.0000 </r>
       <r>    2.2148    1.0000 </r>
       <r>    2.4642    1.0000 </r>
       <r>    2.5981    1.0000 </r>
       <r>    2.8833    1.0000 </r>
       <r>    3.0702    1.0000 </r>
       <r>    3.0702    1.0000 </r>
       <r>    3.2387    1.0000 </r>
       <r>    3.2387    1.0000 </r>
       <r>    3.3836    1.0000 </r>
       <r>    3.5041    1.0000 </r>
       <r>    5.1759    1.0014 </r>
       <r>    5.1759    1.0014 </r>
       <r>    7.2837   -0.0000 </r>
       <r>   10.9158    0.0000 </r>
       <r>   11.2124    0.0000 </r>
       <r>   12.5476    0.0000 </r>
       <r>   12.5476    0.0000 </r>
       <r>   14.1166    0.0000 </r>
       <r>   14.1166    0.0000 </r>
       <r>   15.7121    0.0000 </r>
       <r>   16.9444    0.0000 </r>
       <r>   16.9444    0.0000 </r>
       <r>   17.1932    0.0000 </r>
       <r>   17.6644    0.0000 </r>
       <r>   20.5135    0.0000 </r>
       <r>   22.1927    0.0000 </r>
       <r>   23.0385    0.0000 </r>
       <r>   23.1447    0.0000 </r>
       <r>   23.1447    0.0000 </r>
       <r>   23.8891    0.0000 </r>
       <r>   23.8891    0.0000 </r>
       <r>   24.0973    0.0000 </r>
       <r>   25.9637    0.0000 </r>
       <r>   27.3949    0.0000 </r>
       <r>   27.3949    0.0000 </r>
       <r>   28.2672    0.0000 </r>
       <r>   28.3268    0.0000 </r>
      </set>
      <set comment="kpoint 14">
       <r>    0.4950    1.0000 </r>
       <r>    0.9956    1.0000 </r>
       <r>    1.2637    1.0000 </r>
       <r>    1.4701    1.0000 </r>
       <r>    1.5024    1.0000 </r>
       <r>    1.6117    1.0000 </r>
       <r>    1.6475    1.0000 </r>
       <r>    1.6646    1.0000 </r>
       <r>    1.8057    1.0000 </r>
       <r>    1.8952    1.0000 </r>
       <r>    1.9403    1.0000 </r>
       <r>    2.0830    1.0000 </r>
       <r>    2.6442    1.0000 </r>
       <r>    2.6563    1.0000 </r>
       <r>    2.7834    1.0000 </r>
       <r>    2.8520    1.0000 </r>
       <r>    2.8712    1.0000 </r>
       <r>    2.9291    1.0000 </r>
       <r>    3.2474    1.0000 </r>
       <r>    3.2861    1.0000 </r>
       <r>    3.8794    1.0000 </r>
       <r>    4.3985    1.0000 </r>
       <r>    5.8246   -0.0000 </r>
       <r>    6.5174   -0.0000 </r>
       <r>   11.3822    0.0000 </r>
       <r>   11.8301    0.0000 </r>
       <r>   11.9181    0.0000 </r>
       <r>   13.0079    0.0000 </r>
       <r>   13.4898    0.0000 </r>
       <r>   14.5329    0.0000 </r>
       <r>   15.0649    0.0000 </r>
       <r>   16.1118    0.0000 </r>
       <r>   17.3976    0.0000 </r>
       <r>   17.8633    0.0000 </r>
       <r>   18.9705    0.0000 </r>
       <r>   20.9258    0.0000 </r>
       <r>   21.2664    0.0000 </r>
       <r>   22.6702    0.0000 </r>
       <r>   23.0526    0.0000 </r>
       <r>   23.2658    0.0000 </r>
       <r>   23.5882    0.0000 </r>
       <r>   23.8368    0.0000 </r>
       <r>   25.2806    0.0000 </r>
       <r>   26.7453    0.0000 </r>
       <r>   26.8512    0.0000 </r>
       <r>   27.1207    0.0000 </r>
       <r>   28.2813    0.0000 </r>
       <r>   28.4160    0.0000 </r>
      </set>
      <set comment="kpoint 15">
       <r>    0.8688    1.0000 </r>
       <r>    1.1956    1.0000 </r>
       <r>    1.1956    1.0000 </r>
       <r>    1.2464    1.0000 </r>
       <r>    1.6690    1.0000 </r>
       <r>    1.6771    1.0000 </r>
       <r>    1.6771    1.0000 </r>
       <r>    1.8350    1.0000 </r>
       <r>    1.8951    1.0000 </r>
       <r>    1.8951    1.0000 </r>
       <r>    1.9348    1.0000 </r>
       <r>    2.0522    1.0000 </r>
       <r>    2.5570    1.0000 </r>
       <r>    2.6512    1.0000 </r>
       <r>    2.6821    1.0000 </r>
       <r>    2.6821    1.0000 </r>
       <r>    2.7670    1.0000 </r>
       <r>    2.9732    1.0000 </r>
       <r>    2.9732    1.0000 </r>
       <r>    3.0868    1.0000 </r>
       <r>    4.3624    1.0000 </r>
       <r>    4.9836    1.0000 </r>
       <r>    4.9836    1.0000 </r>
       <r>    5.6720   -0.0011 </r>
       <r>   11.8304    0.0000 </r>
       <r>   12.5309    0.0000 </r>
       <r>   12.5309    0.0000 </r>
       <r>   12.8847    0.0000 </r>
       <r>   13.4263    0.0000 </r>
       <r>   13.9539    0.0000 </r>
       <r>   13.9539    0.0000 </r>
       <r>   15.0071    0.0000 </r>
       <r>   19.4481    0.0000 </r>
       <r>   19.4481    0.0000 </r>
       <r>   19.6277    0.0000 </r>
       <r>   20.5703    0.0000 </r>
       <r>   21.0668    0.0000 </r>
       <r>   21.8252    0.0000 </r>
       <r>   21.9289    0.0000 </r>
       <r>   21.9289    0.0000 </r>
       <r>   24.5935    0.0000 </r>
       <r>   25.1789    0.0000 </r>
       <r>   25.1789    0.0000 </r>
       <r>   26.4297    0.0000 </r>
       <r>   28.1627    0.0000 </r>
       <r>   28.2559    0.0000 </r>
       <r>   28.3091    0.0000 </r>
       <r>   28.5750    0.0000 </r>
      </set>
      <set comment="kpoint 16">
       <r>   -1.4634    1.0000 </r>
       <r>    0.6956    1.0000 </r>
       <r>    0.6956    1.0000 </r>
       <r>    0.6956    1.0000 </r>
       <r>    0.8869    1.0000 </r>
       <r>    0.8869    1.0000 </r>
       <r>    0.8869    1.0000 </r>
       <r>    1.9329    1.0000 </r>
       <r>    2.0847    1.0000 </r>
       <r>    2.0847    1.0000 </r>
       <r>    2.8848    1.0000 </r>
       <r>    2.8848    1.0000 </r>
       <r>    3.3542    1.0000 </r>
       <r>    3.3542    1.0000 </r>
       <r>    3.3542    1.0000 </r>
       <r>    3.4192    1.0000 </r>
       <r>    3.4192    1.0000 </r>
       <r>    3.4192    1.0000 </r>
       <r>    3.7539    1.0000 </r>
       <r>    3.7539    1.0000 </r>
       <r>    3.7539    1.0000 </r>
       <r>    6.6339   -0.0000 </r>
       <r>    6.6339   -0.0000 </r>
       <r>    6.6339   -0.0000 </r>
       <r>   10.4474    0.0000 </r>
       <r>   10.4474    0.0000 </r>
       <r>   10.4474    0.0000 </r>
       <r>   13.7465    0.0000 </r>
       <r>   13.7465    0.0000 </r>
       <r>   13.7465    0.0000 </r>
       <r>   15.1799    0.0000 </r>
       <r>   15.1799    0.0000 </r>
       <r>   15.1799    0.0000 </r>
       <r>   19.5987    0.0000 </r>
       <r>   20.4716    0.0000 </r>
       <r>   20.4716    0.0000 </r>
       <r>   20.4716    0.0000 </r>
       <r>   20.6082    0.0000 </r>
       <r>   22.4638    0.0000 </r>
       <r>   22.4638    0.0000 </r>
       <r>   22.6010    0.0000 </r>
       <r>   22.6010    0.0000 </r>
       <r>   22.6010    0.0000 </r>
       <r>   26.0842    0.0000 </r>
       <r>   27.6179    0.0000 </r>
       <r>   27.6179    0.0000 </r>
       <r>   29.0488    0.0000 </r>
       <r>   30.1866    0.0000 </r>
      </set>
      <set comment="kpoint 17">
       <r>   -1.1455    1.0000 </r>
       <r>    0.7635    1.0000 </r>
       <r>    0.8326    1.0000 </r>
       <r>    0.8326    1.0000 </r>
       <r>    0.9841    1.0000 </r>
       <r>    1.0722    1.0000 </r>
       <r>    1.0722    1.0000 </r>
       <r>    1.8492    1.0000 </r>
       <r>    2.1691    1.0000 </r>
       <r>    2.1734    1.0000 </r>
       <r>    2.7879    1.0000 </r>
       <r>    2.9011    1.0000 </r>
       <r>    2.9011    1.0000 </r>
       <r>    2.9689    1.0000 </r>
       <r>    3.0461    1.0000 </r>
       <r>    3.2441    1.0000 </r>
       <r>    3.2942    1.0000 </r>
       <r>    3.2942    1.0000 </r>
       <r>    3.6846    1.0000 </r>
       <r>    3.7250    1.0000 </r>
       <r>    3.7250    1.0000 </r>
       <r>    5.2245    1.0090 </r>
       <r>    7.1700   -0.0000 </r>
       <r>    7.1700   -0.0000 </r>
       <r>   10.2595    0.0000 </r>
       <r>   10.2595    0.0000 </r>
       <r>   12.2215    0.0000 </r>
       <r>   13.0601    0.0000 </r>
       <r>   13.0601    0.0000 </r>
       <r>   14.5915    0.0000 </r>
       <r>   15.2358    0.0000 </r>
       <r>   15.2358    0.0000 </r>
       <r>   15.7339    0.0000 </r>
       <r>   18.5291    0.0000 </r>
       <r>   20.4104    0.0000 </r>
       <r>   20.5547    0.0000 </r>
       <r>   21.0963    0.0000 </r>
       <r>   21.0963    0.0000 </r>
       <r>   21.6014    0.0000 </r>
       <r>   22.5686    0.0000 </r>
       <r>   22.9377    0.0000 </r>
       <r>   23.7854    0.0000 </r>
       <r>   23.7854    0.0000 </r>
       <r>   24.9951    0.0000 </r>
       <r>   27.2271    0.0000 </r>
       <r>   27.3805    0.0000 </r>
       <r>   29.1040    0.0000 </r>
       <r>   29.5076    0.0000 </r>
      </set>
      <set comment="kpoint 18">
       <r>   -0.6420    1.0000 </r>
       <r>    0.7833    1.0000 </r>
       <r>    1.0535    1.0000 </r>
       <r>    1.0535    1.0000 </r>
       <r>    1.1319    1.0000 </r>
       <r>    1.3302    1.0000 </r>
       <r>    1.3302    1.0000 </r>
       <r>    1.6938    1.0000 </r>
       <r>    2.2726    1.0000 </r>
       <r>    2.3197    1.0000 </r>
       <r>    2.3972    1.0000 </r>
       <r>    2.3972    1.0000 </r>
       <r>    2.6052    1.0000 </r>
       <r>    2.7347    1.0000 </r>
       <r>    3.0082    1.0000 </r>
       <r>    3.0969    1.0000 </r>
       <r>    3.0976    1.0000 </r>
       <r>    3.0976    1.0000 </r>
       <r>    3.5672    1.0000 </r>
       <r>    3.6993    1.0000 </r>
       <r>    3.6993    1.0000 </r>
       <r>    4.1265    1.0000 </r>
       <r>    7.7188   -0.0000 </r>
       <r>    7.7188   -0.0000 </r>
       <r>   10.0576    0.0000 </r>
       <r>   10.0576    0.0000 </r>
       <r>   12.6159    0.0000 </r>
       <r>   12.6159    0.0000 </r>
       <r>   13.7543    0.0000 </r>
       <r>   14.8858    0.0000 </r>
       <r>   14.8858    0.0000 </r>
       <r>   16.1486    0.0000 </r>
       <r>   16.6024    0.0000 </r>
       <r>   17.3728    0.0000 </r>
       <r>   20.3600    0.0000 </r>
       <r>   20.3698    0.0000 </r>
       <r>   20.5378    0.0000 </r>
       <r>   22.2896    0.0000 </r>
       <r>   22.2896    0.0000 </r>
       <r>   22.5395    0.0000 </r>
       <r>   22.7830    0.0000 </r>
       <r>   23.1585    0.0000 </r>
       <r>   25.2916    0.0000 </r>
       <r>   25.2916    0.0000 </r>
       <r>   27.4277    0.0000 </r>
       <r>   27.4679    0.0000 </r>
       <r>   28.0264    0.0000 </r>
       <r>   28.0264    0.0000 </r>
      </set>
      <set comment="kpoint 19">
       <r>   -0.0188    1.0000 </r>
       <r>    0.5454    1.0000 </r>
       <r>    1.3105    1.0000 </r>
       <r>    1.3150    1.0000 </r>
       <r>    1.3150    1.0000 </r>
       <r>    1.5047    1.0000 </r>
       <r>    1.5482    1.0000 </r>
       <r>    1.5482    1.0000 </r>
       <r>    1.9818    1.0000 </r>
       <r>    1.9818    1.0000 </r>
       <r>    2.2441    1.0000 </r>
       <r>    2.2741    1.0000 </r>
       <r>    2.5178    1.0000 </r>
       <r>    2.7549    1.0000 </r>
       <r>    2.9088    1.0000 </r>
       <r>    2.9088    1.0000 </r>
       <r>    2.9396    1.0000 </r>
       <r>    3.2526    1.0000 </r>
       <r>    3.3962    1.0000 </r>
       <r>    3.4164    1.0000 </r>
       <r>    3.6880    1.0000 </r>
       <r>    3.6880    1.0000 </r>
       <r>    8.0537   -0.0000 </r>
       <r>    8.0537   -0.0000 </r>
       <r>    9.9553    0.0000 </r>
       <r>    9.9553    0.0000 </r>
       <r>   12.3985    0.0000 </r>
       <r>   12.3985    0.0000 </r>
       <r>   14.5670    0.0000 </r>
       <r>   14.5670    0.0000 </r>
       <r>   15.0253    0.0000 </r>
       <r>   16.2097    0.0000 </r>
       <r>   17.7197    0.0000 </r>
       <r>   18.2757    0.0000 </r>
       <r>   19.0076    0.0000 </r>
       <r>   20.3950    0.0000 </r>
       <r>   20.4627    0.0000 </r>
       <r>   20.6587    0.0000 </r>
       <r>   22.5584    0.0000 </r>
       <r>   22.6926    0.0000 </r>
       <r>   23.5494    0.0000 </r>
       <r>   23.5494    0.0000 </r>
       <r>   26.1019    0.0000 </r>
       <r>   26.1019    0.0000 </r>
       <r>   27.6439    0.0000 </r>
       <r>   27.6439    0.0000 </r>
       <r>   28.0644    0.0000 </r>
       <r>   28.1322    0.0000 </r>
      </set>
      <set comment="kpoint 20">
       <r>   -0.8506    1.0000 </r>
       <r>    0.8895    1.0000 </r>
       <r>    0.8910    1.0000 </r>
       <r>    0.8910    1.0000 </r>
       <r>    1.1752    1.0000 </r>
       <r>    1.1752    1.0000 </r>
       <r>    1.2847    1.0000 </r>
       <r>    1.8415    1.0000 </r>
       <r>    2.1995    1.0000 </r>
       <r>    2.2003    1.0000 </r>
       <r>    2.5954    1.0000 </r>
       <r>    2.5954    1.0000 </r>
       <r>    2.6977    1.0000 </r>
       <r>    2.7943    1.0000 </r>
       <r>    3.0209    1.0000 </r>
       <r>    3.0980    1.0000 </r>
       <r>    3.1446    1.0000 </r>
       <r>    3.1446    1.0000 </r>
       <r>    3.6624    1.0000 </r>
       <r>    3.6649    1.0000 </r>
       <r>    3.6649    1.0000 </r>
       <r>    5.7785   -0.0000 </r>
       <r>    5.7785   -0.0000 </r>
       <r>    7.5696   -0.0000 </r>
       <r>    9.7489    0.0000 </r>
       <r>   11.5072    0.0000 </r>
       <r>   11.5072    0.0000 </r>
       <r>   12.6384    0.0000 </r>
       <r>   14.2970    0.0000 </r>
       <r>   14.2970    0.0000 </r>
       <r>   15.7691    0.0000 </r>
       <r>   15.7691    0.0000 </r>
       <r>   16.2183    0.0000 </r>
       <r>   17.2159    0.0000 </r>
       <r>   20.1888    0.0000 </r>
       <r>   20.5832    0.0000 </r>
       <r>   21.0197    0.0000 </r>
       <r>   21.0197    0.0000 </r>
       <r>   21.8242    0.0000 </r>
       <r>   23.4879    0.0000 </r>
       <r>   23.8247    0.0000 </r>
       <r>   23.8247    0.0000 </r>
       <r>   24.4092    0.0000 </r>
       <r>   25.2673    0.0000 </r>
       <r>   26.3163    0.0000 </r>
       <r>   27.5520    0.0000 </r>
       <r>   29.1346    0.0000 </r>
       <r>   29.1354    0.0000 </r>
      </set>
      <set comment="kpoint 21">
       <r>   -0.3894    1.0000 </r>
       <r>    0.9010    1.0000 </r>
       <r>    1.0347    1.0000 </r>
       <r>    1.0957    1.0000 </r>
       <r>    1.3274    1.0000 </r>
       <r>    1.4329    1.0000 </r>
       <r>    1.5182    1.0000 </r>
       <r>    1.7574    1.0000 </r>
       <r>    2.1516    1.0000 </r>
       <r>    2.2208    1.0000 </r>
       <r>    2.2424    1.0000 </r>
       <r>    2.2991    1.0000 </r>
       <r>    2.3556    1.0000 </r>
       <r>    2.7958    1.0000 </r>
       <r>    2.9068    1.0000 </r>
       <r>    2.9389    1.0000 </r>
       <r>    3.0212    1.0000 </r>
       <r>    3.2016    1.0000 </r>
       <r>    3.5462    1.0000 </r>
       <r>    3.5915    1.0000 </r>
       <r>    3.5980    1.0000 </r>
       <r>    4.6519    1.0000 </r>
       <r>    6.4092   -0.0000 </r>
       <r>    7.8510   -0.0000 </r>
       <r>    9.3187    0.0000 </r>
       <r>   10.7105    0.0000 </r>
       <r>   12.5780    0.0000 </r>
       <r>   12.6634    0.0000 </r>
       <r>   14.0284    0.0000 </r>
       <r>   15.5677    0.0000 </r>
       <r>   15.9406    0.0000 </r>
       <r>   15.9592    0.0000 </r>
       <r>   16.4288    0.0000 </r>
       <r>   16.7819    0.0000 </r>
       <r>   19.3800    0.0000 </r>
       <r>   20.9733    0.0000 </r>
       <r>   21.0740    0.0000 </r>
       <r>   21.5022    0.0000 </r>
       <r>   22.1373    0.0000 </r>
       <r>   23.0718    0.0000 </r>
       <r>   23.9049    0.0000 </r>
       <r>   23.9719    0.0000 </r>
       <r>   25.2552    0.0000 </r>
       <r>   26.1875    0.0000 </r>
       <r>   26.8653    0.0000 </r>
       <r>   27.7506    0.0000 </r>
       <r>   28.0481    0.0000 </r>
       <r>   28.2250    0.0000 </r>
      </set>
      <set comment="kpoint 22">
       <r>    0.1718    1.0000 </r>
       <r>    0.6777    1.0000 </r>
       <r>    1.2592    1.0000 </r>
       <r>    1.3488    1.0000 </r>
       <r>    1.4823    1.0000 </r>
       <r>    1.5231    1.0000 </r>
       <r>    1.5873    1.0000 </r>
       <r>    1.6253    1.0000 </r>
       <r>    1.9576    1.0000 </r>
       <r>    2.0622    1.0000 </r>
       <r>    2.0868    1.0000 </r>
       <r>    2.1342    1.0000 </r>
       <r>    2.4526    1.0000 </r>
       <r>    2.6607    1.0000 </r>
       <r>    2.8170    1.0000 </r>
       <r>    2.8638    1.0000 </r>
       <r>    3.0062    1.0000 </r>
       <r>    3.3261    1.0000 </r>
       <r>    3.4566    1.0000 </r>
       <r>    3.5500    1.0000 </r>
       <r>    3.5527    1.0000 </r>
       <r>    3.8774    1.0000 </r>
       <r>    7.0320   -0.0000 </r>
       <r>    7.5907   -0.0000 </r>
       <r>    9.4786    0.0000 </r>
       <r>   10.0139    0.0000 </r>
       <r>   13.0054    0.0000 </r>
       <r>   13.5368    0.0000 </r>
       <r>   13.6479    0.0000 </r>
       <r>   14.7719    0.0000 </r>
       <r>   15.6725    0.0000 </r>
       <r>   16.0625    0.0000 </r>
       <r>   17.2208    0.0000 </r>
       <r>   18.3459    0.0000 </r>
       <r>   18.6343    0.0000 </r>
       <r>   20.6633    0.0000 </r>
       <r>   21.0490    0.0000 </r>
       <r>   21.4495    0.0000 </r>
       <r>   22.2401    0.0000 </r>
       <r>   22.9152    0.0000 </r>
       <r>   24.0223    0.0000 </r>
       <r>   24.1065    0.0000 </r>
       <r>   25.7833    0.0000 </r>
       <r>   26.5974    0.0000 </r>
       <r>   26.8626    0.0000 </r>
       <r>   27.7019    0.0000 </r>
       <r>   28.1470    0.0000 </r>
       <r>   28.4405    0.0000 </r>
      </set>
      <set comment="kpoint 23">
       <r>   -0.0072    1.0000 </r>
       <r>    1.0629    1.0000 </r>
       <r>    1.0629    1.0000 </r>
       <r>    1.0755    1.0000 </r>
       <r>    1.6076    1.0000 </r>
       <r>    1.6076    1.0000 </r>
       <r>    1.6866    1.0000 </r>
       <r>    1.8017    1.0000 </r>
       <r>    1.9215    1.0000 </r>
       <r>    1.9215    1.0000 </r>
       <r>    2.1961    1.0000 </r>
       <r>    2.2676    1.0000 </r>
       <r>    2.3153    1.0000 </r>
       <r>    2.7670    1.0000 </r>
       <r>    2.7882    1.0000 </r>
       <r>    2.8253    1.0000 </r>
       <r>    2.8253    1.0000 </r>
       <r>    3.4515    1.0000 </r>
       <r>    3.4515    1.0000 </r>
       <r>    3.4710    1.0000 </r>
       <r>    3.4713    1.0000 </r>
       <r>    5.2647    1.0248 </r>
       <r>    5.2647    1.0248 </r>
       <r>    7.4113   -0.0000 </r>
       <r>    9.2840    0.0000 </r>
       <r>   11.4825    0.0000 </r>
       <r>   11.4825    0.0000 </r>
       <r>   13.0117    0.0000 </r>
       <r>   14.6494    0.0000 </r>
       <r>   15.2379    0.0000 </r>
       <r>   15.2379    0.0000 </r>
       <r>   17.0282    0.0000 </r>
       <r>   17.0282    0.0000 </r>
       <r>   17.7621    0.0000 </r>
       <r>   18.3136    0.0000 </r>
       <r>   20.4266    0.0000 </r>
       <r>   21.5793    0.0000 </r>
       <r>   21.9907    0.0000 </r>
       <r>   21.9907    0.0000 </r>
       <r>   23.6506    0.0000 </r>
       <r>   23.7957    0.0000 </r>
       <r>   25.1978    0.0000 </r>
       <r>   25.1978    0.0000 </r>
       <r>   25.8212    0.0000 </r>
       <r>   27.4744    0.0000 </r>
       <r>   27.4744    0.0000 </r>
       <r>   28.3210    0.0000 </r>
       <r>   28.4793    0.0000 </r>
      </set>
      <set comment="kpoint 24">
       <r>    0.4368    1.0000 </r>
       <r>    0.8362    1.0000 </r>
       <r>    1.1620    1.0000 </r>
       <r>    1.1936    1.0000 </r>
       <r>    1.6599    1.0000 </r>
       <r>    1.6962    1.0000 </r>
       <r>    1.7535    1.0000 </r>
       <r>    1.7880    1.0000 </r>
       <r>    1.9014    1.0000 </r>
       <r>    1.9925    1.0000 </r>
       <r>    2.0911    1.0000 </r>
       <r>    2.1858    1.0000 </r>
       <r>    2.4075    1.0000 </r>
       <r>    2.5937    1.0000 </r>
       <r>    2.6650    1.0000 </r>
       <r>    2.7181    1.0000 </r>
       <r>    2.9374    1.0000 </r>
       <r>    3.2168    1.0000 </r>
       <r>    3.3765    1.0000 </r>
       <r>    3.3819    1.0000 </r>
       <r>    3.8511    1.0000 </r>
       <r>    4.4104    1.0000 </r>
       <r>    5.9230   -0.0000 </r>
       <r>    6.6460   -0.0000 </r>
       <r>    9.8151    0.0000 </r>
       <r>   10.5591    0.0000 </r>
       <r>   12.4052    0.0000 </r>
       <r>   13.4637    0.0000 </r>
       <r>   13.6022    0.0000 </r>
       <r>   14.3807    0.0000 </r>
       <r>   16.2391    0.0000 </r>
       <r>   17.2590    0.0000 </r>
       <r>   17.4512    0.0000 </r>
       <r>   17.9212    0.0000 </r>
       <r>   18.9739    0.0000 </r>
       <r>   20.7631    0.0000 </r>
       <r>   21.1272    0.0000 </r>
       <r>   21.9882    0.0000 </r>
       <r>   22.1949    0.0000 </r>
       <r>   22.4094    0.0000 </r>
       <r>   24.5525    0.0000 </r>
       <r>   25.0214    0.0000 </r>
       <r>   25.6697    0.0000 </r>
       <r>   26.5908    0.0000 </r>
       <r>   26.8317    0.0000 </r>
       <r>   27.1833    0.0000 </r>
       <r>   28.5245    0.0000 </r>
       <r>   28.7250    0.0000 </r>
      </set>
      <set comment="kpoint 25">
       <r>    0.7153    1.0000 </r>
       <r>    0.9701    1.0000 </r>
       <r>    0.9701    1.0000 </r>
       <r>    1.0697    1.0000 </r>
       <r>    1.7726    1.0000 </r>
       <r>    1.8040    1.0000 </r>
       <r>    1.8040    1.0000 </r>
       <r>    1.8606    1.0000 </r>
       <r>    2.0842    1.0000 </r>
       <r>    2.0842    1.0000 </r>
       <r>    2.1459    1.0000 </r>
       <r>    2.2424    1.0000 </r>
       <r>    2.3878    1.0000 </r>
       <r>    2.5196    1.0000 </r>
       <r>    2.5220    1.0000 </r>
       <r>    2.5220    1.0000 </r>
       <r>    2.9601    1.0000 </r>
       <r>    3.1526    1.0000 </r>
       <r>    3.1526    1.0000 </r>
       <r>    3.2187    1.0000 </r>
       <r>    4.3500    1.0000 </r>
       <r>    5.0158    1.0000 </r>
       <r>    5.0158    1.0000 </r>
       <r>    5.7477   -0.0000 </r>
       <r>   10.4801    0.0000 </r>
       <r>   11.3470    0.0000 </r>
       <r>   11.3470    0.0000 </r>
       <r>   12.3196    0.0000 </r>
       <r>   14.3444    0.0000 </r>
       <r>   15.2403    0.0000 </r>
       <r>   15.2403    0.0000 </r>
       <r>   16.2043    0.0000 </r>
       <r>   19.4263    0.0000 </r>
       <r>   19.4263    0.0000 </r>
       <r>   19.6448    0.0000 </r>
       <r>   20.4314    0.0000 </r>
       <r>   20.8220    0.0000 </r>
       <r>   21.6193    0.0000 </r>
       <r>   21.6193    0.0000 </r>
       <r>   21.7103    0.0000 </r>
       <r>   24.9090    0.0000 </r>
       <r>   25.4846    0.0000 </r>
       <r>   25.4846    0.0000 </r>
       <r>   26.5289    0.0000 </r>
       <r>   27.2897    0.0000 </r>
       <r>   28.0458    0.0000 </r>
       <r>   28.0534    0.0000 </r>
       <r>   28.0534    0.0000 </r>
      </set>
      <set comment="kpoint 26">
       <r>   -0.5969    1.0000 </r>
       <r>    0.9085    1.0000 </r>
       <r>    0.9085    1.0000 </r>
       <r>    0.9085    1.0000 </r>
       <r>    1.4005    1.0000 </r>
       <r>    1.4005    1.0000 </r>
       <r>    1.4005    1.0000 </r>
       <r>    1.9194    1.0000 </r>
       <r>    2.1845    1.0000 </r>
       <r>    2.1845    1.0000 </r>
       <r>    2.4508    1.0000 </r>
       <r>    2.4508    1.0000 </r>
       <r>    2.4508    1.0000 </r>
       <r>    2.8883    1.0000 </r>
       <r>    2.8883    1.0000 </r>
       <r>    2.8883    1.0000 </r>
       <r>    2.9623    1.0000 </r>
       <r>    2.9623    1.0000 </r>
       <r>    3.6988    1.0000 </r>
       <r>    3.6988    1.0000 </r>
       <r>    3.6988    1.0000 </r>
       <r>    6.2177   -0.0000 </r>
       <r>    6.2177   -0.0000 </r>
       <r>    6.2177   -0.0000 </r>
       <r>   10.4219    0.0000 </r>
       <r>   10.4219    0.0000 </r>
       <r>   10.4219    0.0000 </r>
       <r>   14.3921    0.0000 </r>
       <r>   14.3921    0.0000 </r>
       <r>   14.3921    0.0000 </r>
       <r>   15.8331    0.0000 </r>
       <r>   16.6736    0.0000 </r>
       <r>   16.6736    0.0000 </r>
       <r>   16.6736    0.0000 </r>
       <r>   20.4467    0.0000 </r>
       <r>   20.4467    0.0000 </r>
       <r>   20.4467    0.0000 </r>
       <r>   20.6537    0.0000 </r>
       <r>   22.3466    0.0000 </r>
       <r>   22.3466    0.0000 </r>
       <r>   24.9155    0.0000 </r>
       <r>   25.3776    0.0000 </r>
       <r>   25.3776    0.0000 </r>
       <r>   25.3776    0.0000 </r>
       <r>   26.2991    0.0000 </r>
       <r>   26.2991    0.0000 </r>
       <r>   29.1702    0.0000 </r>
       <r>   29.1702    0.0000 </r>
      </set>
      <set comment="kpoint 27">
       <r>   -0.2114    1.0000 </r>
       <r>    0.8583    1.0000 </r>
       <r>    0.9974    1.0000 </r>
       <r>    0.9974    1.0000 </r>
       <r>    1.5851    1.0000 </r>
       <r>    1.6046    1.0000 </r>
       <r>    1.6046    1.0000 </r>
       <r>    1.9399    1.0000 </r>
       <r>    2.1703    1.0000 </r>
       <r>    2.1875    1.0000 </r>
       <r>    2.2149    1.0000 </r>
       <r>    2.2454    1.0000 </r>
       <r>    2.2454    1.0000 </r>
       <r>    2.6613    1.0000 </r>
       <r>    2.7584    1.0000 </r>
       <r>    2.7584    1.0000 </r>
       <r>    2.9998    1.0000 </r>
       <r>    3.1703    1.0000 </r>
       <r>    3.6400    1.0000 </r>
       <r>    3.6400    1.0000 </r>
       <r>    3.6641    1.0000 </r>
       <r>    5.0025    1.0000 </r>
       <r>    6.7902   -0.0000 </r>
       <r>    6.7902   -0.0000 </r>
       <r>    9.3739    0.0000 </r>
       <r>    9.3739    0.0000 </r>
       <r>   11.2479    0.0000 </r>
       <r>   14.5302    0.0000 </r>
       <r>   14.6119    0.0000 </r>
       <r>   14.6119    0.0000 </r>
       <r>   16.4738    0.0000 </r>
       <r>   16.8086    0.0000 </r>
       <r>   16.8086    0.0000 </r>
       <r>   17.4127    0.0000 </r>
       <r>   20.3011    0.0000 </r>
       <r>   20.4317    0.0000 </r>
       <r>   20.9054    0.0000 </r>
       <r>   20.9054    0.0000 </r>
       <r>   20.9618    0.0000 </r>
       <r>   22.6597    0.0000 </r>
       <r>   24.5703    0.0000 </r>
       <r>   25.5585    0.0000 </r>
       <r>   26.5900    0.0000 </r>
       <r>   26.6773    0.0000 </r>
       <r>   26.9122    0.0000 </r>
       <r>   26.9122    0.0000 </r>
       <r>   27.9600    0.0000 </r>
       <r>   27.9600    0.0000 </r>
      </set>
      <set comment="kpoint 28">
       <r>    0.2375    1.0000 </r>
       <r>    0.6355    1.0000 </r>
       <r>    1.1146    1.0000 </r>
       <r>    1.1146    1.0000 </r>
       <r>    1.6041    1.0000 </r>
       <r>    1.6041    1.0000 </r>
       <r>    1.7911    1.0000 </r>
       <r>    1.8956    1.0000 </r>
       <r>    2.0170    1.0000 </r>
       <r>    2.0969    1.0000 </r>
       <r>    2.2459    1.0000 </r>
       <r>    2.2459    1.0000 </r>
       <r>    2.3067    1.0000 </r>
       <r>    2.4595    1.0000 </r>
       <r>    2.6605    1.0000 </r>
       <r>    2.6605    1.0000 </r>
       <r>    3.3455    1.0000 </r>
       <r>    3.3776    1.0000 </r>
       <r>    3.5513    1.0000 </r>
       <r>    3.5712    1.0000 </r>
       <r>    3.5712    1.0000 </r>
       <r>    4.0286    1.0000 </r>
       <r>    7.3700   -0.0000 </r>
       <r>    7.3700   -0.0000 </r>
       <r>    8.5527    0.0000 </r>
       <r>    8.5527    0.0000 </r>
       <r>   12.2267    0.0000 </r>
       <r>   13.3264    0.0000 </r>
       <r>   14.8509    0.0000 </r>
       <r>   14.8509    0.0000 </r>
       <r>   16.4963    0.0000 </r>
       <r>   16.4963    0.0000 </r>
       <r>   18.4058    0.0000 </r>
       <r>   18.6718    0.0000 </r>
       <r>   19.6098    0.0000 </r>
       <r>   20.2046    0.0000 </r>
       <r>   20.2357    0.0000 </r>
       <r>   20.9461    0.0000 </r>
       <r>   21.7997    0.0000 </r>
       <r>   21.7997    0.0000 </r>
       <r>   25.3384    0.0000 </r>
       <r>   25.6940    0.0000 </r>
       <r>   26.4023    0.0000 </r>
       <r>   26.4023    0.0000 </r>
       <r>   27.2769    0.0000 </r>
       <r>   27.3307    0.0000 </r>
       <r>   27.9785    0.0000 </r>
       <r>   28.0383    0.0000 </r>
      </set>
      <set comment="kpoint 29">
       <r>    0.0479    1.0000 </r>
       <r>    0.8644    1.0000 </r>
       <r>    0.8644    1.0000 </r>
       <r>    0.9430    1.0000 </r>
       <r>    1.7055    1.0000 </r>
       <r>    1.7528    1.0000 </r>
       <r>    1.7528    1.0000 </r>
       <r>    2.0875    1.0000 </r>
       <r>    2.1739    1.0000 </r>
       <r>    2.1801    1.0000 </r>
       <r>    2.1801    1.0000 </r>
       <r>    2.2486    1.0000 </r>
       <r>    2.3883    1.0000 </r>
       <r>    2.5504    1.0000 </r>
       <r>    2.5504    1.0000 </r>
       <r>    2.5523    1.0000 </r>
       <r>    3.0472    1.0000 </r>
       <r>    3.3807    1.0000 </r>
       <r>    3.5991    1.0000 </r>
       <r>    3.6242    1.0000 </r>
       <r>    3.6242    1.0000 </r>
       <r>    5.5423   -0.0354 </r>
       <r>    5.5423   -0.0354 </r>
       <r>    7.3077   -0.0000 </r>
       <r>    8.1942    0.0000 </r>
       <r>   10.0289    0.0000 </r>
       <r>   10.0289    0.0000 </r>
       <r>   13.1974    0.0000 </r>
       <r>   15.0568    0.0000 </r>
       <r>   16.5909    0.0000 </r>
       <r>   16.5909    0.0000 </r>
       <r>   17.5122    0.0000 </r>
       <r>   17.5122    0.0000 </r>
       <r>   18.0610    0.0000 </r>
       <r>   19.7674    0.0000 </r>
       <r>   20.2136    0.0000 </r>
       <r>   20.7502    0.0000 </r>
       <r>   20.7502    0.0000 </r>
       <r>   20.9908    0.0000 </r>
       <r>   22.5798    0.0000 </r>
       <r>   24.8718    0.0000 </r>
       <r>   25.8781    0.0000 </r>
       <r>   26.8446    0.0000 </r>
       <r>   26.8446    0.0000 </r>
       <r>   27.3355    0.0000 </r>
       <r>   27.7804    0.0000 </r>
       <r>   27.7804    0.0000 </r>
       <r>   28.0959    0.0000 </r>
      </set>
      <set comment="kpoint 30">
       <r>    0.3440    1.0000 </r>
       <r>    0.6319    1.0000 </r>
       <r>    0.8934    1.0000 </r>
       <r>    0.9174    1.0000 </r>
       <r>    1.7167    1.0000 </r>
       <r>    1.7272    1.0000 </r>
       <r>    1.9146    1.0000 </r>
       <r>    2.0312    1.0000 </r>
       <r>    2.2039    1.0000 </r>
       <r>    2.2071    1.0000 </r>
       <r>    2.3273    1.0000 </r>
       <r>    2.3641    1.0000 </r>
       <r>    2.3758    1.0000 </r>
       <r>    2.4513    1.0000 </r>
       <r>    2.5095    1.0000 </r>
       <r>    2.5201    1.0000 </r>
       <r>    3.2471    1.0000 </r>
       <r>    3.5010    1.0000 </r>
       <r>    3.5276    1.0000 </r>
       <r>    3.5378    1.0000 </r>
       <r>    3.7723    1.0000 </r>
       <r>    4.4887    1.0000 </r>
       <r>    6.2168   -0.0000 </r>
       <r>    7.0230   -0.0000 </r>
       <r>    8.1577    0.0000 </r>
       <r>    8.9917    0.0000 </r>
       <r>   10.9288    0.0000 </r>
       <r>   11.9934    0.0000 </r>
       <r>   15.5930    0.0000 </r>
       <r>   16.2069    0.0000 </r>
       <r>   17.6562    0.0000 </r>
       <r>   17.9369    0.0000 </r>
       <r>   18.1044    0.0000 </r>
       <r>   18.8901    0.0000 </r>
       <r>   19.0056    0.0000 </r>
       <r>   20.3834    0.0000 </r>
       <r>   20.7848    0.0000 </r>
       <r>   20.8000    0.0000 </r>
       <r>   21.3134    0.0000 </r>
       <r>   21.5431    0.0000 </r>
       <r>   25.6296    0.0000 </r>
       <r>   26.2482    0.0000 </r>
       <r>   26.4170    0.0000 </r>
       <r>   26.4539    0.0000 </r>
       <r>   26.7655    0.0000 </r>
       <r>   27.3646    0.0000 </r>
       <r>   28.1578    0.0000 </r>
       <r>   28.6168    0.0000 </r>
      </set>
      <set comment="kpoint 31">
       <r>    0.4908    1.0000 </r>
       <r>    0.6766    1.0000 </r>
       <r>    0.6766    1.0000 </r>
       <r>    0.7711    1.0000 </r>
       <r>    1.8132    1.0000 </r>
       <r>    1.8698    1.0000 </r>
       <r>    1.8698    1.0000 </r>
       <r>    1.9795    1.0000 </r>
       <r>    2.1922    1.0000 </r>
       <r>    2.2704    1.0000 </r>
       <r>    2.2704    1.0000 </r>
       <r>    2.3103    1.0000 </r>
       <r>    2.6087    1.0000 </r>
       <r>    2.6087    1.0000 </r>
       <r>    2.6300    1.0000 </r>
       <r>    2.6855    1.0000 </r>
       <r>    3.2209    1.0000 </r>
       <r>    3.4004    1.0000 </r>
       <r>    3.4004    1.0000 </r>
       <r>    3.4241    1.0000 </r>
       <r>    4.3212    1.0000 </r>
       <r>    5.1297    1.0002 </r>
       <r>    5.1297    1.0002 </r>
       <r>    5.9756   -0.0000 </r>
       <r>    8.8717    0.0000 </r>
       <r>    9.8068    0.0000 </r>
       <r>    9.8068    0.0000 </r>
       <r>   10.8160    0.0000 </r>
       <r>   16.2698    0.0000 </r>
       <r>   17.0636    0.0000 </r>
       <r>   17.0636    0.0000 </r>
       <r>   17.9321    0.0000 </r>
       <r>   19.3810    0.0000 </r>
       <r>   19.3810    0.0000 </r>
       <r>   19.7094    0.0000 </r>
       <r>   20.1092    0.0000 </r>
       <r>   20.3386    0.0000 </r>
       <r>   20.9947    0.0000 </r>
       <r>   20.9947    0.0000 </r>
       <r>   21.3899    0.0000 </r>
       <r>   25.5747    0.0000 </r>
       <r>   26.0493    0.0000 </r>
       <r>   26.0493    0.0000 </r>
       <r>   26.7027    0.0000 </r>
       <r>   26.7224    0.0000 </r>
       <r>   27.5365    0.0000 </r>
       <r>   27.5808    0.0000 </r>
       <r>   27.5808    0.0000 </r>
      </set>
      <set comment="kpoint 32">
       <r>    0.1497    1.0000 </r>
       <r>    0.7308    1.0000 </r>
       <r>    0.7308    1.0000 </r>
       <r>    0.7308    1.0000 </r>
       <r>    1.8013    1.0000 </r>
       <r>    1.8013    1.0000 </r>
       <r>    1.8013    1.0000 </r>
       <r>    2.1023    1.0000 </r>
       <r>    2.1023    1.0000 </r>
       <r>    2.3480    1.0000 </r>
       <r>    2.3480    1.0000 </r>
       <r>    2.3480    1.0000 </r>
       <r>    2.5440    1.0000 </r>
       <r>    2.5440    1.0000 </r>
       <r>    2.5440    1.0000 </r>
       <r>    2.7230    1.0000 </r>
       <r>    3.2956    1.0000 </r>
       <r>    3.2956    1.0000 </r>
       <r>    3.6613    1.0000 </r>
       <r>    3.6613    1.0000 </r>
       <r>    3.6613    1.0000 </r>
       <r>    6.0154   -0.0000 </r>
       <r>    6.0154   -0.0000 </r>
       <r>    6.0154   -0.0000 </r>
       <r>    8.7162    0.0000 </r>
       <r>    8.7162    0.0000 </r>
       <r>    8.7162    0.0000 </r>
       <r>   11.8448    0.0000 </r>
       <r>   17.1449    0.0000 </r>
       <r>   17.1449    0.0000 </r>
       <r>   17.1449    0.0000 </r>
       <r>   18.5734    0.0000 </r>
       <r>   18.5734    0.0000 </r>
       <r>   18.5734    0.0000 </r>
       <r>   19.9904    0.0000 </r>
       <r>   19.9904    0.0000 </r>
       <r>   19.9904    0.0000 </r>
       <r>   20.0311    0.0000 </r>
       <r>   21.3708    0.0000 </r>
       <r>   21.3708    0.0000 </r>
       <r>   25.7649    0.0000 </r>
       <r>   26.1828    0.0000 </r>
       <r>   26.1828    0.0000 </r>
       <r>   27.7222    0.0000 </r>
[...]
       <r>   26.6350    0.0000 </r>
       <r>   26.6473    0.0000 </r>
       <r>   26.6473    0.0000 </r>
       <r>   26.8060    0.0000 </r>
       <r>   27.1716    0.0000 </r>
       <r>   27.1929    0.0000 </r>
       <r>   28.0482    0.0000 </r>
      </set>
      <set comment="kpoint 34">
       <r>    0.3418    1.0000 </r>
       <r>    0.4648    1.0000 </r>
       <r>    0.4648    1.0000 </r>
       <r>    0.5193    1.0000 </r>
       <r>    1.8895    1.0000 </r>
       <r>    1.9235    1.0000 </r>
       <r>    1.9235    1.0000 </r>
       <r>    2.0086    1.0000 </r>
       <r>    2.0585    1.0000 </r>
       <r>    2.1182    1.0000 </r>
       <r>    2.1182    1.0000 </r>
       <r>    2.1365    1.0000 </r>
       <r>    3.0955    1.0000 </r>
       <r>    3.0955    1.0000 </r>
       <r>    3.1089    1.0000 </r>
       <r>    3.2779    1.0000 </r>
       <r>    3.4445    1.0000 </r>
       <r>    3.5783    1.0000 </r>
       <r>    3.5821    1.0000 </r>
       <r>    3.5821    1.0000 </r>
       <r>    4.3497    1.0000 </r>
       <r>    5.3787    0.8243 </r>
       <r>    5.3787    0.8243 </r>
       <r>    6.2727   -0.0000 </r>
       <r>    7.5407   -0.0000 </r>
       <r>    8.4410    0.0000 </r>
       <r>    8.4410    0.0000 </r>
       <r>    9.4467    0.0000 </r>
       <r>   18.1431    0.0000 </r>
       <r>   18.7903    0.0000 </r>
       <r>   18.7903    0.0000 </r>
       <r>   19.3557    0.0000 </r>
       <r>   19.3665    0.0000 </r>
       <r>   19.3665    0.0000 </r>
       <r>   19.7989    0.0000 </r>
       <r>   19.8542    0.0000 </r>
       <r>   20.0511    0.0000 </r>
       <r>   20.4067    0.0000 </r>
       <r>   20.4067    0.0000 </r>
       <r>   20.9444    0.0000 </r>
       <r>   26.2062    0.0000 </r>
       <r>   26.4477    0.0000 </r>
       <r>   26.4818    0.0000 </r>
       <r>   26.4818    0.0000 </r>
       <r>   26.8316    0.0000 </r>
       <r>   27.0519    0.0000 </r>
       <r>   27.1854    0.0000 </r>
       <r>   27.1854    0.0000 </r>
      </set>
      <set comment="kpoint 35">
       <r>    0.2955    1.0000 </r>
       <r>    0.3561    1.0000 </r>
       <r>    0.3561    1.0000 </r>
       <r>    0.3561    1.0000 </r>
       <r>    1.9604    1.0000 </r>
       <r>    1.9604    1.0000 </r>
       <r>    1.9604    1.0000 </r>
       <r>    2.0027    1.0000 </r>
       <r>    2.0027    1.0000 </r>
       <r>    2.0298    1.0000 </r>
       <r>    2.0298    1.0000 </r>
       <r>    2.0298    1.0000 </r>
       <r>    3.4419    1.0000 </r>
       <r>    3.4419    1.0000 </r>
       <r>    3.4419    1.0000 </r>
       <r>    3.5923    1.0000 </r>
       <r>    3.5923    1.0000 </r>
       <r>    3.6394    1.0000 </r>
       <r>    3.6394    1.0000 </r>
       <r>    3.6394    1.0000 </r>
       <r>    4.8149    1.0000 </r>
       <r>    5.7647   -0.0000 </r>
       <r>    5.7647   -0.0000 </r>
       <r>    5.7647   -0.0000 </r>
       <r>    7.4381   -0.0000 </r>
       <r>    7.4381   -0.0000 </r>
       <r>    7.4381   -0.0000 </r>
       <r>    8.2904    0.0000 </r>
       <r>   19.3676    0.0000 </r>
       <r>   19.3676    0.0000 </r>
       <r>   19.3676    0.0000 </r>
       <r>   19.4793    0.0000 </r>
       <r>   19.9610    0.0000 </r>
       <r>   19.9610    0.0000 </r>
       <r>   19.9610    0.0000 </r>
       <r>   20.1116    0.0000 </r>
       <r>   20.1116    0.0000 </r>
       <r>   20.1116    0.0000 </r>
       <r>   20.4880    0.0000 </r>
       <r>   20.4880    0.0000 </r>
       <r>   26.4631    0.0000 </r>
       <r>   26.4631    0.0000 </r>
       <r>   26.6806    0.0000 </r>
       <r>   26.6806    0.0000 </r>
       <r>   26.6806    0.0000 </r>
       <r>   26.7146    0.0000 </r>
       <r>   26.7146    0.0000 </r>
       <r>   26.7146    0.0000 </r>
      </set>
     </set>
    </set>
   </array>
  </eigenvalues>
  <separator name="orbital magnetization" >
   <v name="MAGDIPOLOUT">      0.00000000      0.00000000      0.00000000</v>
  </separator>
  <dos>
   <i name="efermi">      5.42089435 </i>
   <total>
    <array>
     <dimension dim="1">gridpoints</dimension>
     <dimension dim="2">spin</dimension>
     <field>energy</field>
     <field>total</field>
     <field>integrated</field>
     <set>
      <set comment="spin 1">
       <r>    -3.3932     0.0000     0.0000 </r>
       <r>    -3.2760     0.0000     0.0000 </r>
       <r>    -3.1587     0.0000     0.0000 </r>
       <r>    -3.0415     0.0000     0.0000 </r>
       <r>    -2.9242     0.0000     0.0000 </r>
       <r>    -2.8069     0.0000     0.0000 </r>
       <r>    -2.6897    -0.0000    -0.0000 </r>
       <r>    -2.5724    -0.0000    -0.0000 </r>
       <r>    -2.4551    -0.0000    -0.0000 </r>
       <r>    -2.3379    -0.0000    -0.0000 </r>
       <r>    -2.2206    -0.0000    -0.0000 </r>
       <r>    -2.1033    -0.0000    -0.0000 </r>
       <r>    -1.9861    -0.0003    -0.0000 </r>
       <r>    -1.8688    -0.0009    -0.0001 </r>
       <r>    -1.7516     0.0222     0.0025 </r>
       <r>    -1.6343     0.1388     0.0187 </r>
       <r>    -1.5170     0.2754     0.0510 </r>
       <r>    -1.3998     0.1935     0.0737 </r>
       <r>    -1.2825     0.2418     0.1021 </r>
       <r>    -1.1652     0.6486     0.1781 </r>
       <r>    -1.0480     0.3787     0.2226 </r>
       <r>    -0.9307     0.1559     0.2408 </r>
       <r>    -0.8135     0.6500     0.3171 </r>
       <r>    -0.6962     0.6792     0.3967 </r>
       <r>    -0.5789     0.6853     0.4771 </r>
       <r>    -0.4617     0.4086     0.5250 </r>
       <r>    -0.3444     1.2133     0.6673 </r>
       <r>    -0.2271     0.4037     0.7146 </r>
       <r>    -0.1099     0.6251     0.7879 </r>
       <r>     0.0074     1.4488     0.9578 </r>
       <r>     0.1246     1.3171     1.1122 </r>
       <r>     0.2419     1.7432     1.3166 </r>
       <r>     0.3592     2.2890     1.5851 </r>
       <r>     0.4764     3.5890     2.0059 </r>
       <r>     0.5937     3.7331     2.4437 </r>
       <r>     0.7110     6.6761     3.2265 </r>
       <r>     0.8282     7.7622     4.1367 </r>
       <r>     0.9455    11.4502     5.4794 </r>
       <r>     1.0627    10.8619     6.7531 </r>
       <r>     1.1800     9.4569     7.8621 </r>
       <r>     1.2973     9.6660     8.9955 </r>
       <r>     1.4145     7.8645     9.9177 </r>
       <r>     1.5318     7.2489    10.7678 </r>
       <r>     1.6491    11.9390    12.1678 </r>
       <r>     1.7663    13.0974    13.7036 </r>
       <r>     1.8836    12.9013    15.2165 </r>
       <r>     2.0009    13.8155    16.8365 </r>
       <r>     2.1181    14.8283    18.5753 </r>
       <r>     2.2354    21.0014    21.0380 </r>
       <r>     2.3526    16.9344    23.0238 </r>
       <r>     2.4699    11.0974    24.3251 </r>
       <r>     2.5872    10.3430    25.5379 </r>
       <r>     2.7044    13.1963    27.0854 </r>
       <r>     2.8217    12.5665    28.5590 </r>
       <r>     2.9390    14.7893    30.2932 </r>
       <r>     3.0562    13.5210    31.8787 </r>
       <r>     3.1735    10.8796    33.1545 </r>
       <r>     3.2907    11.6709    34.5230 </r>
       <r>     3.4080    11.2983    35.8479 </r>
       <r>     3.5253    15.2315    37.6340 </r>
       <r>     3.6425    18.4657    39.7993 </r>
       <r>     3.7598    11.9213    41.1973 </r>
       <r>     3.8771     6.5717    41.9679 </r>
       <r>     3.9943     2.0200    42.2047 </r>
       <r>     4.1116     0.5280    42.2667 </r>
       <r>     4.2288     0.2815    42.2997 </r>
       <r>     4.3461     1.1851    42.4386 </r>
       <r>     4.4634     2.7519    42.7613 </r>
       <r>     4.5806     1.4656    42.9332 </r>
       <r>     4.6979     1.1116    43.0635 </r>
       <r>     4.8152     0.6837    43.1437 </r>
       <r>     4.9324     0.4333    43.1945 </r>
       <r>     5.0497     2.1875    43.4510 </r>
       <r>     5.1669     1.6022    43.6389 </r>
       <r>     5.2842     1.7672    43.8461 </r>
       <r>     5.4015     1.1804    43.9845 </r>
       <r>     5.5187     0.7096    44.0677 </r>
       <r>     5.6360     1.1741    44.2054 </r>
       <r>     5.7533     1.3051    44.3585 </r>
       <r>     5.8705     1.9942    44.5923 </r>
       <r>     5.9878     1.4934    44.7674 </r>
       <r>     6.1051     0.7048    44.8501 </r>
       <r>     6.2223     1.1792    44.9883 </r>
       <r>     6.3396     1.8543    45.2058 </r>
       <r>     6.4568     1.4106    45.3712 </r>
       <r>     6.5741     0.7666    45.4611 </r>
       <r>     6.6914     2.1779    45.7165 </r>
       <r>     6.8086     1.3724    45.8774 </r>
       <r>     6.9259     0.7477    45.9651 </r>
       <r>     7.0432     2.0330    46.2035 </r>
       <r>     7.1604     1.4727    46.3762 </r>
       <r>     7.2777     0.9087    46.4827 </r>
       <r>     7.3949     1.6270    46.6735 </r>
       <r>     7.5122     1.9005    46.8964 </r>
       <r>     7.6295     3.0908    47.2588 </r>
       <r>     7.7467     1.9033    47.4820 </r>
       <r>     7.8640     1.1727    47.6195 </r>
       <r>     7.9813     0.4777    47.6755 </r>
       <r>     8.0985     1.7661    47.8826 </r>
       <r>     8.2158     1.9119    48.1068 </r>
       <r>     8.3330     0.6279    48.1805 </r>
       <r>     8.4503     1.1651    48.3171 </r>
       <r>     8.5676     1.8422    48.5331 </r>
       <r>     8.6848     1.1794    48.6714 </r>
       <r>     8.8021     0.8124    48.7667 </r>
       <r>     8.9194     0.9916    48.8829 </r>
       <r>     9.0366     1.5463    49.0643 </r>
       <r>     9.1539     0.6366    49.1389 </r>
       <r>     9.2712     1.0474    49.2617 </r>
       <r>     9.3884     2.2677    49.5277 </r>
       <r>     9.5057     2.1326    49.7777 </r>
       <r>     9.6229     1.0034    49.8954 </r>
       <r>     9.7402     0.4324    49.9461 </r>
       <r>     9.8575     2.0674    50.1885 </r>
       <r>     9.9747     1.5254    50.3674 </r>
       <r>    10.0920     3.3947    50.7655 </r>
       <r>    10.2093     0.7504    50.8535 </r>
       <r>    10.3265     0.7812    50.9451 </r>
       <r>    10.4438     1.3827    51.1072 </r>
       <r>    10.5610     3.1050    51.4713 </r>
       <r>    10.6783     1.8975    51.6938 </r>
       <r>    10.7956     1.4191    51.8602 </r>
       <r>    10.9128     1.1887    51.9996 </r>
       <r>    11.0301     0.8335    52.0974 </r>
       <r>    11.1474     0.4462    52.1497 </r>
       <r>    11.2646     1.6319    52.3411 </r>
       <r>    11.3819     2.5291    52.6376 </r>
       <r>    11.4991     2.0164    52.8741 </r>
       <r>    11.6164     1.5637    53.0574 </r>
       <r>    11.7337     0.5318    53.1198 </r>
       <r>    11.8509     1.1631    53.2562 </r>
       <r>    11.9682     1.7317    53.4593 </r>
       <r>    12.0855     1.1497    53.5941 </r>
       <r>    12.2027     0.8021    53.6881 </r>
       <r>    12.3200     1.5155    53.8658 </r>
       <r>    12.4372     1.9518    54.0947 </r>
       <r>    12.5545     2.1435    54.3461 </r>
       <r>    12.6718     4.0156    54.8169 </r>
       <r>    12.7890     1.1788    54.9552 </r>
       <r>    12.9063     0.4606    55.0092 </r>
       <r>    13.0236     1.8569    55.2269 </r>
       <r>    13.1408     1.8125    55.4395 </r>
       <r>    13.2581     0.4174    55.4884 </r>
       <r>    13.3754     0.9937    55.6049 </r>
       <r>    13.4926     2.4282    55.8897 </r>
       <r>    13.6099     3.1246    56.2561 </r>
       <r>    13.7271     2.0230    56.4933 </r>
       <r>    13.8444     1.0936    56.6215 </r>
       <r>    13.9617     1.0962    56.7501 </r>
       <r>    14.0789     2.1724    57.0048 </r>
       <r>    14.1962     0.7471    57.0924 </r>
       <r>    14.3135     2.0319    57.3307 </r>
       <r>    14.4307     3.0930    57.6934 </r>
       <r>    14.5480     2.5332    57.9904 </r>
       <r>    14.6652     4.0592    58.4664 </r>
       <r>    14.7825     1.9969    58.7006 </r>
       <r>    14.8998     2.2040    58.9590 </r>
       <r>    15.0170     1.6028    59.1470 </r>
       <r>    15.1343     3.1165    59.5124 </r>
       <r>    15.2516     4.0677    59.9894 </r>
       <r>    15.3688     1.7079    60.1897 </r>
       <r>    15.4861     0.3204    60.2273 </r>
       <r>    15.6033     1.8860    60.4484 </r>
       <r>    15.7206     2.2269    60.7096 </r>
       <r>    15.8379     1.7374    60.9133 </r>
       <r>    15.9551     2.2496    61.1771 </r>
       <r>    16.0724     2.7996    61.5054 </r>
       <r>    16.1897     3.4690    61.9122 </r>
       <r>    16.3069     3.8303    62.3613 </r>
       <r>    16.4242     1.5835    62.5470 </r>
       <r>    16.5414     2.3891    62.8272 </r>
       <r>    16.6587     2.1720    63.0818 </r>
       <r>    16.7760     1.4146    63.2477 </r>
       <r>    16.8932     1.4577    63.4187 </r>
       <r>    17.0105     1.1940    63.5587 </r>
       <r>    17.1278     2.7937    63.8863 </r>
       <r>    17.2450     2.7385    64.2074 </r>
       <r>    17.3623     2.0305    64.4455 </r>
       <r>    17.4796     2.9409    64.7904 </r>
       <r>    17.5968     2.4244    65.0746 </r>
       <r>    17.7141     1.6344    65.2663 </r>
       <r>    17.8313     1.0157    65.3854 </r>
       <r>    17.9486     2.2669    65.6512 </r>
       <r>    18.0659     1.6184    65.8410 </r>
       <r>    18.1831     1.5494    66.0227 </r>
       <r>    18.3004     2.2998    66.2924 </r>
       <r>    18.4177     2.6189    66.5995 </r>
       <r>    18.5349     1.6636    66.7945 </r>
       <r>    18.6522     2.4110    67.0773 </r>
       <r>    18.7694     1.4461    67.2468 </r>
       <r>    18.8867     1.3761    67.4082 </r>
       <r>    19.0040     2.7262    67.7279 </r>
       <r>    19.1212     1.7333    67.9311 </r>
       <r>    19.2385     0.2710    67.9629 </r>
       <r>    19.3558     2.7742    68.2882 </r>
       <r>    19.4730     4.4571    68.8109 </r>
       <r>    19.5903     0.8239    68.9075 </r>
       <r>    19.7075     1.8961    69.1298 </r>
       <r>    19.8248     2.3679    69.4075 </r>
       <r>    19.9421     1.9560    69.6369 </r>
       <r>    20.0593     2.1132    69.8847 </r>
       <r>    20.1766     2.2401    70.1473 </r>
       <r>    20.2939     2.4882    70.4391 </r>
       <r>    20.4111     6.1606    71.1615 </r>
       <r>    20.5284     7.1741    72.0028 </r>
       <r>    20.6457     3.3658    72.3974 </r>
       <r>    20.7629     4.4060    72.9141 </r>
       <r>    20.8802     4.0066    73.3839 </r>
       <r>    20.9974     5.4576    74.0239 </r>
       <r>    21.1147     6.2003    74.7510 </r>
       <r>    21.2320     2.8439    75.0844 </r>
       <r>    21.3492     2.0837    75.3288 </r>
       <r>    21.4665     2.7277    75.6487 </r>
       <r>    21.5838     3.7395    76.0872 </r>
       <r>    21.7010     2.4652    76.3762 </r>
       <r>    21.8183     2.4536    76.6639 </r>
       <r>    21.9355     4.0497    77.1388 </r>
       <r>    22.0528     3.4145    77.5392 </r>
       <r>    22.1701     2.3130    77.8105 </r>
       <r>    22.2873     3.6817    78.2422 </r>
       <r>    22.4046     2.6127    78.5486 </r>
       <r>    22.5219     2.2900    78.8171 </r>
       <r>    22.6391     3.8296    79.2662 </r>
       <r>    22.7564     3.3882    79.6635 </r>
       <r>    22.8736     1.9244    79.8891 </r>
       <r>    22.9909     1.8859    80.1103 </r>
       <r>    23.1082     2.1310    80.3602 </r>
       <r>    23.2254     1.8578    80.5780 </r>
       <r>    23.3427     0.5650    80.6443 </r>
       <r>    23.4600     0.5648    80.7105 </r>
       <r>    23.5772     1.6174    80.9002 </r>
       <r>    23.6945     2.0053    81.1353 </r>
       <r>    23.8117     3.2569    81.5172 </r>
       <r>    23.9290     4.7332    82.0723 </r>
       <r>    24.0463     2.9852    82.4223 </r>
       <r>    24.1635     1.8269    82.6365 </r>
       <r>    24.2808     0.0508    82.6425 </r>
       <r>    24.3981     0.1828    82.6639 </r>
       <r>    24.5153     0.6879    82.7446 </r>
       <r>    24.6326     1.5345    82.9245 </r>
       <r>    24.7499     0.2011    82.9481 </r>
       <r>    24.8671     0.7983    83.0417 </r>
       <r>    24.9844     1.4166    83.2078 </r>
       <r>    25.1016     1.4631    83.3794 </r>
       <r>    25.2189     2.8782    83.7169 </r>
       <r>    25.3362     4.7803    84.2775 </r>
       <r>    25.4534     1.4202    84.4440 </r>
       <r>    25.5707     1.4637    84.6156 </r>
       <r>    25.6880     2.6204    84.9229 </r>
       <r>    25.8052     2.2704    85.1891 </r>
       <r>    25.9225     1.1950    85.3293 </r>
       <r>    26.0397     1.1360    85.4625 </r>
       <r>    26.1570     2.5953    85.7668 </r>
       <r>    26.2743     3.0540    86.1250 </r>
       <r>    26.3915     2.3644    86.4022 </r>
       <r>    26.5088     4.5634    86.9373 </r>
       <r>    26.6261     4.6089    87.4778 </r>
       <r>    26.7433     5.4869    88.1212 </r>
       <r>    26.8606     6.4790    88.8809 </r>
       <r>    26.9778     3.5045    89.2919 </r>
       <r>    27.0951     0.7968    89.3853 </r>
       <r>    27.2124     3.7957    89.8304 </r>
       <r>    27.3296     4.2042    90.3234 </r>
       <r>    27.4469     3.7658    90.7650 </r>
       <r>    27.5642     2.8438    91.0985 </r>
       <r>    27.6814     3.8264    91.5472 </r>
       <r>    27.7987     4.0301    92.0197 </r>
       <r>    27.9159     1.8927    92.2417 </r>
       <r>    28.0332     5.3564    92.8698 </r>
       <r>    28.1505     6.6943    93.6548 </r>
       <r>    28.2677     3.4683    94.0615 </r>
       <r>    28.3850     2.9041    94.4020 </r>
       <r>    28.5023     2.8636    94.7378 </r>
       <r>    28.6195     2.9673    95.0858 </r>
       <r>    28.7368     2.2910    95.3544 </r>
       <r>    28.8541     0.6842    95.4347 </r>
       <r>    28.9713     0.1650    95.4540 </r>
       <r>    29.0886     1.2585    95.6016 </r>
       <r>    29.2058     1.7046    95.8015 </r>
       <r>    29.3231     0.2175    95.8270 </r>
       <r>    29.4404     0.3375    95.8666 </r>
       <r>    29.5576     0.8720    95.9688 </r>
       <r>    29.6749     0.0915    95.9796 </r>
       <r>    29.7922    -0.0124    95.9781 </r>
       <r>    29.9094    -0.0005    95.9780 </r>
       <r>    30.0267    -0.0043    95.9775 </r>
       <r>    30.1439     0.0367    95.9818 </r>
       <r>    30.2612     0.1501    95.9995 </r>
       <r>    30.3785     0.0066    96.0002 </r>
       <r>    30.4957    -0.0019    96.0000 </r>
       <r>    30.6130    -0.0000    96.0000 </r>
       <r>    30.7303    -0.0000    96.0000 </r>
       <r>    30.8475    -0.0000    96.0000 </r>
       <r>    30.9648     0.0000    96.0000 </r>
       <r>    31.0820     0.0000    96.0000 </r>
       <r>    31.1993     0.0000    96.0000 </r>
       <r>    31.3166     0.0000    96.0000 </r>
       <r>    31.4338     0.0000    96.0000 </r>
       <r>    31.5511     0.0000    96.0000 </r>
       <r>    31.6684     0.0000    96.0000 </r>
       <r>    31.7856     0.0000    96.0000 </r>
      </set>
     </set>
    </array>
   </total>
  </dos>
 </calculation>
 <structure name="finalpos" >
  <crystal>
   <varray name="basis" >
    <v>       4.48800000       0.00000000       0.00000000 </v>
    <v>       0.00000000       4.48800000       0.00000000 </v>
    <v>       0.00000000       0.00000000       4.48800000 </v>
   </varray>
   <i name="volume">     90.39794227 </i>
   <varray name="rec_basis" >
    <v>       0.22281640       0.00000000       0.00000000 </v>
    <v>       0.00000000       0.22281640       0.00000000 </v>
    <v>       0.00000000       0.00000000       0.22281640 </v>
   </varray>
  </crystal>
  <varray name="positions" >
   <v>       0.00000000       0.00000000       0.00000000 </v>
   <v>       0.00000000       0.50000000       0.50000000 </v>
   <v>       0.50000000       0.00000000       0.50000000 </v>
   <v>       0.50000000       0.50000000       0.00000000 </v>
  </varray>
 </structure>
</modeling>
