----- GAMESS execution script 'rungms' -----
This job is running on host crcfe01.crc.nd.edu
under operating system Linux at Thu Oct 17 12:46:29 EDT 2019
Available scratch disk space (Kbyte units) at beginning of the job is
Filesystem      1K-blocks  Used  Available Use% Mounted on
AFS            2147483647     0 2147483647   0% /afs
GAMESS temporary binary files will be written to /afs/crc.nd.edu/user/c/cdrisko
GAMESS supplementary output files will be written to /afs/crc.nd.edu/user/c/cdrisko/scr
Copying input file acetaldehyde.inp to your run's scratch directory...

 Distributed Data Interface kickoff program.
 Initiating 1 compute processes on 1 nodes to run the following command:
 /afs/crc.nd.edu/x86_64_linux/g/gamess/nov-2017/gamess/gamess.00.x acetaldehyde 

          ******************************************************
          *         GAMESS VERSION = 11 NOV 2017 (R3)         *
          *             FROM IOWA STATE UNIVERSITY             *
          * M.W.SCHMIDT, K.K.BALDRIDGE, J.A.BOATZ, S.T.ELBERT, *
          *   M.S.GORDON, J.H.JENSEN, S.KOSEKI, N.MATSUNAGA,   *
          *          K.A.NGUYEN, S.J.SU, T.L.WINDUS,           *
          *       TOGETHER WITH M.DUPUIS, J.A.MONTGOMERY       *
          *         J.COMPUT.CHEM.  14, 1347-1363(1993)        *
          **************** 64 BIT INTEL VERSION ****************

  SINCE 1993, STUDENTS AND POSTDOCS WORKING AT IOWA STATE UNIVERSITY
  AND ALSO IN THEIR VARIOUS JOBS AFTER LEAVING ISU HAVE MADE IMPORTANT
  CONTRIBUTIONS TO THE CODE:
     IVANA ADAMOVIC, CHRISTINE AIKENS, YURI ALEXEEV, POOJA ARORA,
     ANDREY ASADCHEV, ROB BELL, PRADIPTA BANDYOPADHYAY, JONATHAN BENTZ,
     BRETT BODE, KURT BRORSEN, CALEB CARLIN, GALINA CHABAN, WEI CHEN,
     CHEOL HO CHOI, PAUL DAY, ALBERT DEFUSCO, NUWAN DESILVA, TIM DUDLEY,
     DMITRI FEDOROV, ALEX FINDLATER, GRAHAM FLETCHER, MARK FREITAG,
     KURT GLAESEMANN, ANASTASIA GUININA,
     DAN KEMP, GRANT MERRILL, NORIYUKI MINEZAWA, JONATHAN MULLIN,
     TAKESHI NAGATA, SEAN NEDD, HEATHER NETZLOFF, BOSILJKA NJEGIC, RYAN OLSON,
     MIKE PAK, BUU PHAM,
     SPENCER PRUITT, LUKE ROSKOP, JIM SHOEMAKER, LYUDMILA SLIPCHENKO,
     TONY SMITH, SAROM SOK LEANG, JIE SONG, TETSUYA TAKETSUGU, SIMON WEBB,
     PENG XU, SOOHAENG YOO, FEDERICO ZAHARIEV

  ADDITIONAL CODE HAS BEEN PROVIDED BY COLLABORATORS IN OTHER GROUPS:
     IOWA STATE UNIVERSITY:
          JOE IVANIC, AARON WEST, LAIMUTIS BYTAUTAS, KLAUS RUEDENBERG
     UNIVERSITY OF TOKYO: KIMIHIKO HIRAO, TAKAHITO NAKAJIMA,
          TAKAO TSUNEDA, MUNEAKI KAMIYA, SUSUMU YANAGISAWA,
          KIYOSHI YAGI, MAHITO CHIBA, SEIKEN TOKURA, NAOAKI KAWAKAMI
     UNIVERSITY OF AARHUS: FRANK JENSEN
     UNIVERSITY OF IOWA: VISVALDAS KAIRYS, HUI LI
     NATIONAL INST. OF STANDARDS AND TECHNOLOGY: WALT STEVENS, DAVID GARMER
     UNIVERSITY OF PISA: BENEDETTA MENNUCCI, JACOPO TOMASI
     UNIVERSITY OF MEMPHIS: HENRY KURTZ, PRAKASHAN KORAMBATH
     UNIVERSITY OF ALBERTA: TOBY ZENG, MARIUSZ KLOBUKOWSKI
     UNIVERSITY OF NEW ENGLAND: MARK SPACKMAN
     MIE UNIVERSITY: HIROAKI UMEDA
     NAT. INST. OF ADVANCED INDUSTRIAL SCIENCE AND TECHNOLOGY: KAZUO KITAURA
     MICHIGAN STATE UNIVERSITY:
          KAROL KOWALSKI, MARTA WLOCH, JEFFREY GOUR, JESSE LUTZ,
          WEI LI, PIOTR PIECUCH
     UNIVERSITY OF SILESIA: MONIKA MUSIAL, STANISLAW KUCHARSKI
     FACULTES UNIVERSITAIRES NOTRE-DAME DE LA PAIX:
          OLIVIER QUINET, BENOIT CHAMPAGNE
     UNIVERSITY OF CALIFORNIA - SANTA BARBARA: BERNARD KIRTMAN
     INSTITUTE FOR MOLECULAR SCIENCE:
          KAZUYA ISHIMURA, MICHIO KATOUDA, AND SHIGERU NAGASE
     UNIVERSITY OF NOTRE DAME: ANNA POMOGAEVA, DAN CHIPMAN
     KYUSHU UNIVERSITY:
          HARUYUKI NAKANO,
          FENG LONG GU, JACEK KORCHOWIEC, MARCIN MAKOWSKI, AND YURIKO AOKI,
          HIROTOSHI MORI AND EISAKU MIYOSHI
     PENNSYLVANIA STATE UNIVERSITY:
          TZVETELIN IORDANOV, CHET SWALINA, JONATHAN SKONE,
          SHARON HAMMES-SCHIFFER
     WASEDA UNIVERSITY:
          MASATO KOBAYASHI, TOMOKO AKAMA, TSUGUKI TOUMA,
          TAKESHI YOSHIKAWA, YASUHIRO IKABATA, JUNJI SEINO,
          YUYA NAKAJIMA, HIROMI NAKAI
     NANJING UNIVERSITY: SHUHUA LI
     UNIVERSITY OF NEBRASKA:
          PEIFENG SU, DEJUN SI, NANDUN THELLAMUREGE, YALI WANG, HUI LI
     UNIVERSITY OF ZURICH: ROBERTO PEVERATI, KIM BALDRIDGE
     N. COPERNICUS UNIVERSITY AND JACKSON STATE UNIVERSITY:
          MARIA BARYSZ
     UNIVERSITY OF COPENHAGEN: Jimmy Kromann, CASPER STEINMANN
     TOKYO INSTITUTE OF TECHNOLOGY: HIROYA NAKATA
     NAGOYA UNIVERSITY: YOSHIO NISHIMOTO, STEPHAN IRLE
     MOSCOW STATE UNIVERSITY: VLADIMIR MIRONOV

 EXECUTION OF GAMESS BEGUN Thu Oct 17 12:46:29 2019

            ECHO OF THE FIRST FEW INPUT CARDS -
 INPUT CARD> $CONTRL SCFTYP=RHF DFTTYP=B3LYP RUNTYP=ENERGY                                  
 INPUT CARD>       ISPHER=1 MULT=1 COORD=ZMT NZVAR=15 $END                                  
 INPUT CARD> $BASIS GBASIS=N31 NGAUSS=6 NDFUNC=1 $END                                       
 INPUT CARD> $STATPT IFREEZ(1)=9 $END                                                       
 INPUT CARD> $DATA                                                                          
 INPUT CARD>Title Single Point Energy Calculation of Acetaldehyde                           
 INPUT CARD>C1                                                                              
 INPUT CARD>C                                                                               
 INPUT CARD>C      1   1.5086892                                                            
 INPUT CARD>O      2   1.2107245  1  124.7161                                               
 INPUT CARD>H      2   1.1145804  1  114.7739  3  180.0000  0                               
 INPUT CARD>H      1   1.0926781  2  110.5176  3  100.      0                               
 INPUT CARD>H      1   1.0983769  2  109.8265  3  121.4889  0                               
 INPUT CARD>H      1   1.0983769  2  109.8265  3 -121.4889  0                               
 INPUT CARD> $END                                                                           
    1000000 WORDS OF MEMORY AVAILABLE

     BASIS OPTIONS
     -------------
     GBASIS=N31          IGAUSS=       6      POLAR=POPN31  
     NDFUNC=       1     NFFUNC=       0     DIFFSP=       F
     NPFUNC=       0      DIFFS=       F     BASNAM=        


     RUN TITLE
     ---------
 Title Single Point Energy Calculation of Acetaldehyde                           

 THE POINT GROUP OF THE MOLECULE IS C1      
 THE ORDER OF THE PRINCIPAL AXIS IS     0

 YOUR FULLY SUBSTITUTED Z-MATRIX IS
 C   
 C      1   1.5086892
 O      2   1.2107245  1  124.7161
 H      2   1.1145804  1  114.7739  3  180.0000  0
 H      1   1.0926781  2  110.5176  3  100.0000  0
 H      1   1.0983769  2  109.8265  3  121.4889  0
 H      1   1.0983769  2  109.8265  3 -121.4889  0

 THE MOMENTS OF INERTIA ARE (AMU-ANGSTROM**2)
 IXX=     8.194   IYY=    52.572   IZZ=    55.789

 ATOM      ATOMIC                      COORDINATES (BOHR)
           CHARGE         X                   Y                   Z
 C           6.0    -2.3539538459        0.4175081377        0.1574806675
 C           6.0     0.2403624982       -0.7516656519       -0.0180435473
 O           8.0     2.2030407658        0.4240826465       -0.0050744735
 H           1.0     0.2533841966       -2.8525927986       -0.1671446542
 H           1.0    -3.2191763362        0.5432575034       -1.7131430391
 H           1.0    -3.4753207584       -0.1037726574       -1.5095670744
 H           1.0    -3.3565628926       -0.3386332663        1.8101363697

          INTERNUCLEAR DISTANCES (ANGS.)
          ------------------------------

                1 C          2 C          3 O          4 H          5 H     

   1 C       0.0000000    1.5086892 *  2.4129941 *  2.2198436 *  1.0926781 *
   2 C       1.5086892 *  0.0000000    1.2107245 *  1.1145804 *  2.1507392 *
   3 O       2.4129941 *  1.2107245 *  0.0000000    2.0194911 *  3.0089736  
   4 H       2.2198436 *  1.1145804 *  2.0194911 *  0.0000000    2.6972776 *
   5 H       1.0926781 *  2.1507392 *  3.0089736    2.6972776 *  0.0000000  
   6 H       1.0983769 *  2.1463151 *  3.1210656    2.5522231 *  0.3836813 *
   7 H       1.0983769 *  2.1463151 *  3.1210656    2.5522231 *  1.9233321 *

                6 H          7 H     

   1 C       1.0983769 *  1.0983769 *
   2 C       2.1463151 *  2.1463151 *
   3 O       3.1210656    3.1210656  
   4 H       2.5522231 *  2.5522231 *
   5 H       0.3836813 *  1.9233321 *
   6 H       0.0000000    1.7622233 *
   7 H       1.7622233 *  0.0000000  

  * ... LESS THAN  3.000


     ATOMIC BASIS SET
     ----------------
 THE CONTRACTED PRIMITIVE FUNCTIONS HAVE BEEN UNNORMALIZED
 THE CONTRACTED BASIS FUNCTIONS ARE NOW NORMALIZED TO UNITY

  SHELL TYPE  PRIMITIVE        EXPONENT          CONTRACTION COEFFICIENT(S)

 C         

      1   S       1          3047.5248800    0.001834737132
      1   S       2           457.3695180    0.014037322813
      1   S       3           103.9486850    0.068842622264
      1   S       4            29.2101553    0.232184443216
      1   S       5             9.2866630    0.467941348435
      1   S       6             3.1639270    0.362311985337

      2   L       7             7.8682723   -0.119332419775    0.068999066591
      2   L       8             1.8812885   -0.160854151696    0.316423960957
      2   L       9             0.5442493    1.143456437840    0.744308290898

      3   L      10             0.1687145    1.000000000000    1.000000000000

      4   D      11             0.8000000    1.000000000000

 C         

      5   S      12          3047.5248800    0.001834737132
      5   S      13           457.3695180    0.014037322813
      5   S      14           103.9486850    0.068842622264
      5   S      15            29.2101553    0.232184443216
      5   S      16             9.2866630    0.467941348435
      5   S      17             3.1639270    0.362311985337

      6   L      18             7.8682723   -0.119332419775    0.068999066591
      6   L      19             1.8812885   -0.160854151696    0.316423960957
      6   L      20             0.5442493    1.143456437840    0.744308290898

      7   L      21             0.1687145    1.000000000000    1.000000000000

      8   D      22             0.8000000    1.000000000000

 O         

      9   S      23          5484.6716600    0.001831074430
      9   S      24           825.2349460    0.013950172200
      9   S      25           188.0469580    0.068445078098
      9   S      26            52.9645000    0.232714335992
      9   S      27            16.8975704    0.470192897984
      9   S      28             5.7996353    0.358520852987

     10   L      29            15.5396162   -0.110777549525    0.070874268231
     10   L      30             3.5999336   -0.148026262701    0.339752839147
     10   L      31             1.0137618    1.130767015354    0.727158577316

     11   L      32             0.2700058    1.000000000000    1.000000000000

     12   D      33             0.8000000    1.000000000000

 H         

     13   S      34            18.7311370    0.033494604338
     13   S      35             2.8253944    0.234726953484
     13   S      36             0.6401217    0.813757326146

     14   S      37             0.1612778    1.000000000000

 H         

     15   S      38            18.7311370    0.033494604338
     15   S      39             2.8253944    0.234726953484
     15   S      40             0.6401217    0.813757326146

     16   S      41             0.1612778    1.000000000000

 H         

     17   S      42            18.7311370    0.033494604338
     17   S      43             2.8253944    0.234726953484
     17   S      44             0.6401217    0.813757326146

     18   S      45             0.1612778    1.000000000000

 H         

     19   S      46            18.7311370    0.033494604338
     19   S      47             2.8253944    0.234726953484
     19   S      48             0.6401217    0.813757326146

     20   S      49             0.1612778    1.000000000000

 TOTAL NUMBER OF BASIS SET SHELLS             =   20
 NUMBER OF CARTESIAN GAUSSIAN BASIS FUNCTIONS =   53
 NOTE: THIS RUN WILL RESTRICT THE MO VARIATION SPACE TO SPHERICAL HARMONICS.
 THE NUMBER OF ORBITALS KEPT IN THE VARIATIONAL SPACE WILL BE PRINTED LATER.
 NUMBER OF ELECTRONS                          =   24
 CHARGE OF MOLECULE                           =    0
 SPIN MULTIPLICITY                            =    1
 NUMBER OF OCCUPIED ORBITALS (ALPHA)          =   12
 NUMBER OF OCCUPIED ORBITALS (BETA )          =   12
 TOTAL NUMBER OF ATOMS                        =    7
 THE NUCLEAR REPULSION ENERGY IS       70.3157639026

     LEBEDEV GRID-BASED DFT OPTIONS
     ------------------------------
     DFTTYP=B3LYP   
     NRAD  =      96     NLEB  =     302
     NRAD0 =      24     NLEB0 =     110
     SWOFF =    5.00E-03 (PURE SCF -> DFT)
     SWITCH=    3.00E-04 (COARSE -> TIGHT GRID)
     THRESH=    0.00E+00 GTHRE=    1.00E+00

 GRIMME'S EMPIRICAL DISPERSION CORRECTION= F

     $CONTRL OPTIONS
     ---------------
 SCFTYP=RHF          RUNTYP=ENERGY       EXETYP=RUN     
 MPLEVL=       0     CITYP =NONE         CCTYP =NONE         VBTYP =NONE    
 DFTTYP=B3LYP        TDDFT =NONE    
 MULT  =       1     ICHARG=       0     NZVAR =      15     COORD =ZMT     
 PP    =NONE         RELWFN=NONE         LOCAL =NONE         NUMGRD=       F
 ISPHER=       1     NOSYM =       0     MAXIT =      30     UNITS =ANGS    
 PLTORB=       F     MOLPLT=       F     AIMPAC=       F     FRIEND=        
 NPRINT=       7     IREST =       0     GEOM  =INPUT   
 NORMF =       0     NORMP =       0     ITOL  =      20     ICUT  =       9
 INTTYP=BEST         GRDTYP=BEST         QMTTOL= 1.0E-06

     $SYSTEM OPTIONS
     ---------------
  REPLICATED MEMORY=     1000000 WORDS (ON EVERY NODE).
 DISTRIBUTED MEMDDI=           0 MILLION WORDS IN AGGREGATE,
 MEMDDI DISTRIBUTED OVER   1 PROCESSORS IS           0 WORDS/PROCESSOR.
 TOTAL MEMORY REQUESTED ON EACH PROCESSOR=     1000000 WORDS.
 TIMLIM=      525600.00 MINUTES, OR     365.0 DAYS.
 PARALL= F  BALTYP=  DLB     KDIAG=    0  COREFL= F
 MXSEQ2=     300 MXSEQ3=     150  mem10=         0

          ----------------
          PROPERTIES INPUT
          ----------------

     MOMENTS            FIELD           POTENTIAL          DENSITY
 IEMOM =       1   IEFLD =       0   IEPOT =       0   IEDEN =       0
 WHERE =COMASS     WHERE =NUCLEI     WHERE =NUCLEI     WHERE =NUCLEI  
 OUTPUT=BOTH       OUTPUT=BOTH       OUTPUT=BOTH       OUTPUT=BOTH    
 IEMINT=       0   IEFINT=       0                     IEDINT=       0
                                                       MORB  =       0
          EXTRAPOLATION IN EFFECT
          DIIS IN EFFECT
 ORBITAL PRINTING OPTION: NPREO=     1    53     2     1

     -------------------------------
     INTEGRAL TRANSFORMATION OPTIONS
     -------------------------------
     NWORD  =            0
     CUTOFF = 1.0E-09     MPTRAN =       0
     DIRTRF =       F     AOINTS =DUP     

          ----------------------
          INTEGRAL INPUT OPTIONS
          ----------------------
 NOPK  =       1 NORDER=       0 SCHWRZ=       T

   --- ENCODED Z MATRIX ---
 COORD  TYPE   I   J   K   L   M   N
    1      1    2   1
    2      1    3   2
    3      2    3   2   1
    4      1    4   2
    5      2    4   2   1
    6      3    4   2   1   3
    7      1    5   1
    8      2    5   1   2
    9      3    5   1   2   3
   10      1    6   1
   11      2    6   1   2
   12      3    6   1   2   3
   13      1    7   1
   14      2    7   1   2
   15      3    7   1   2   3

 THE DETERMINANT OF THE G MATRIX IS 10**(    -8)


                     --------------------
                     INTERNAL COORDINATES
                     --------------------

                 - - ATOMS - -         COORDINATE      COORDINATE
 NO.   TYPE    I  J  K  L  M  N        (BOHR,RAD)       (ANG,DEG)
 ----------------------------------------------------------------
   1 STRETCH   2  1                     2.8510092       1.5086892
   2 STRETCH   3  2                     2.2879376       1.2107245
   3 BEND      3  2  1                  2.1767066     124.7161000
   4 STRETCH   4  2                     2.1062515       1.1145804
   5 BEND      4  2  1                  2.0031825     114.7739000
   6 TORSION   4  2  1  3               3.1415927     180.0000000
   7 STRETCH   5  1                     2.0648622       1.0926781
   8 BEND      5  1  2                  1.9288960     110.5176000
   9 TORSION   5  1  2  3               1.7453293     100.0000000
  10 STRETCH   6  1                     2.0756314       1.0983769
  11 BEND      6  1  2                  1.9168340     109.8265000
  12 TORSION   6  1  2  3               2.1203813     121.4889000
  13 STRETCH   7  1                     2.0756314       1.0983769
  14 BEND      7  1  2                  1.9168340     109.8265000
  15 TORSION   7  1  2  3              -2.1203813    -121.4889000

     ------------------------------------------
     THE POINT GROUP IS C1 , NAXIS= 0, ORDER= 1
     ------------------------------------------

 -- VARIATIONAL SPACE WILL BE RESTRICTED TO PURE SPHERICAL HARMONICS ONLY --
 AFTER EXCLUDING CONTAMINANT COMBINATIONS FROM THE CARTESIAN GAUSSIAN BASIS
 SET, THE NUMBER OF SPHERICAL HARMONICS KEPT IN THE VARIATION SPACE IS   50

     DIMENSIONS OF THE SYMMETRY SUBSPACES ARE
 A   =   50

 ..... DONE SETTING UP THE RUN .....
 STEP CPU TIME =     0.00 TOTAL CPU TIME =          0.0 (      0.0 MIN)
 TOTAL WALL CLOCK TIME=          0.0 SECONDS, CPU UTILIZATION IS     0.00%

          ********************
          1 ELECTRON INTEGRALS
          ********************
 ...... END OF ONE-ELECTRON INTEGRALS ......
 STEP CPU TIME =     0.02 TOTAL CPU TIME =          0.0 (      0.0 MIN)
 TOTAL WALL CLOCK TIME=          0.0 SECONDS, CPU UTILIZATION IS   100.00%

          -------------
          GUESS OPTIONS
          -------------
          GUESS =HUCKEL            NORB  =       0          NORDER=       0
          MIX   =       F          PRTMO =       F          PUNMO =       F
          TOLZ  = 1.0E-08          TOLE  = 1.0E-05
          SYMDEN=       F          PURIFY=       F

 INITIAL GUESS ORBITALS GENERATED BY HUCKEL   ROUTINE.
 HUCKEL GUESS REQUIRES     27154 WORDS.

 STATISTICS FOR GENERATION OF SYMMETRY ORBITAL -Q- MATRIX
 NUMBER OF CARTESIAN ATOMIC ORBITALS=         53
 NUMBER OF SPHERICAL CONTAMINANTS DROPPED=     3
 NUMBER OF LINEARLY DEPENDENT MOS DROPPED=     0
 TOTAL NUMBER OF MOS IN VARIATION SPACE=      50

 SYMMETRIES FOR INITIAL GUESS ORBITALS FOLLOW.   BOTH SET(S).
    12 ORBITALS ARE OCCUPIED (    3 CORE ORBITALS).
     4=A        5=A        6=A        7=A        8=A        9=A       10=A   
    11=A       12=A       13=A       14=A       15=A       16=A       17=A   
    18=A       19=A       20=A       21=A       22=A   
 ...... END OF INITIAL ORBITAL SELECTION ......
 STEP CPU TIME =     0.00 TOTAL CPU TIME =          0.0 (      0.0 MIN)
 TOTAL WALL CLOCK TIME=          0.0 SECONDS, CPU UTILIZATION IS    66.67%

                    ----------------------
                    AO INTEGRAL TECHNOLOGY
                    ----------------------
     S,P,L SHELL ROTATED AXIS INTEGRALS, REPROGRAMMED BY
        KAZUYA ISHIMURA (IMS) AND JOSE SIERRA (SYNSTAR).
     S,P,D,L SHELL ROTATED AXIS INTEGRALS PROGRAMMED BY
        KAZUYA ISHIMURA (INSTITUTE FOR MOLECULAR SCIENCE).
     S,P,D,F,G SHELL TO TOTAL QUARTET ANGULAR MOMENTUM SUM 5,
        ERIC PROGRAM BY GRAHAM FLETCHER (ELORET AND NASA ADVANCED
        SUPERCOMPUTING DIVISION, AMES RESEARCH CENTER).
     S,P,D,F,G,L SHELL GENERAL RYS QUADRATURE PROGRAMMED BY
        MICHEL DUPUIS (PACIFIC NORTHWEST NATIONAL LABORATORY).

          --------------------
          2 ELECTRON INTEGRALS
          --------------------

 THE -PK- OPTION IS OFF, THE INTEGRALS ARE NOT IN SUPERMATRIX FORM.
 STORING   15000 INTEGRALS/RECORD ON DISK, USING 12 BYTES/INTEGRAL.
 TWO ELECTRON INTEGRAL EVALUATION REQUIRES   90606 WORDS OF MEMORY.
 SCHWARZ INEQUALITY OVERHEAD:      1430 INTEGRALS, T=        0.00
 II,JST,KST,LST =  1  1  1  1 NREC =         1 INTLOC =    1
 II,JST,KST,LST =  2  1  1  1 NREC =         1 INTLOC =    2
 II,JST,KST,LST =  3  1  1  1 NREC =         1 INTLOC =   34
 II,JST,KST,LST =  4  1  1  1 NREC =         1 INTLOC =  214
 II,JST,KST,LST =  5  1  1  1 NREC =         1 INTLOC = 1189
 II,JST,KST,LST =  6  1  1  1 NREC =         1 INTLOC = 3233
 II,JST,KST,LST =  7  1  1  1 NREC =         2 INTLOC =  981
 II,JST,KST,LST =  8  1  1  1 NREC =         3 INTLOC = 8236
 II,JST,KST,LST =  9  1  1  1 NREC =         7 INTLOC = 6171
 II,JST,KST,LST = 10  1  1  1 NREC =         8 INTLOC = 3232
 II,JST,KST,LST = 11  1  1  1 NREC =        13 INTLOC =   80
 II,JST,KST,LST = 12  1  1  1 NREC =        19 INTLOC =13426
 II,JST,KST,LST = 13  1  1  1 NREC =        34 INTLOC = 7194
 II,JST,KST,LST = 14  1  1  1 NREC =        37 INTLOC =10109
 II,JST,KST,LST = 15  1  1  1 NREC =        41 INTLOC = 1611
 II,JST,KST,LST = 16  1  1  1 NREC =        44 INTLOC = 8810
 II,JST,KST,LST = 17  1  1  1 NREC =        48 INTLOC = 6962
 II,JST,KST,LST = 18  1  1  1 NREC =        52 INTLOC = 6030
 II,JST,KST,LST = 19  1  1  1 NREC =        56 INTLOC =11634
 II,JST,KST,LST = 20  1  1  1 NREC =        61 INTLOC = 3140
 SCHWARZ INEQUALITY TEST SKIPPED         927 INTEGRAL BLOCKS.
 TOTAL NUMBER OF NONZERO TWO-ELECTRON INTEGRALS =              976782
         66 INTEGRAL RECORDS WERE STORED ON DISK FILE  8.
  ...... END OF TWO-ELECTRON INTEGRALS .....
 STEP CPU TIME =     0.12 TOTAL CPU TIME =          0.1 (      0.0 MIN)
 TOTAL WALL CLOCK TIME=          0.2 SECONDS, CPU UTILIZATION IS    87.50%

          --------------------------
             R-B3LYP SCF CALCULATION
          --------------------------

     NUCLEAR ENERGY =        70.3157639026
     MAXIT =   30     NPUNCH=    2
     EXTRAP=T  DAMP=F  SHIFT=F  RSTRCT=F  DIIS=T  DEM=F  SOSCF=F
         DENSITY MATRIX CONVERGENCE THRESHOLD=  1.00E-05
     COARSE -> FINE DFT GRID SWITCH THRESHOLD=  3.00E-04 (SWITCH IN $DFT)
                   HF -> DFT SWITCH THRESHOLD=  5.00E-03 (SWOFF IN $DFT)
     MEMORY REQUIRED FOR RHF ITERS=    307426 WORDS.

 DFT CODE IS SWITCHING FROM THE FINE GRID NRAD= 96,  NLEB=  302
                      TO THE COARSE GRID NRAD0= 24, NLEB0=  110

     EXCHANGE FUNCTIONAL   =B88&HFX   
     CORRELATION FUNCTIONAL=LYP88&VWN5
     DFT THRESHOLD         =.197E-07
     GRID CHANGE THRESHOLD =.300E-03
 FOR AN EULER-MACLAURIN QUADRATURE USING  96 RADIAL POINTS:
 SMALLEST GAUSSIAN PRIMITIVE EXPONENT=        0.1612777588 OF TYPE -S-
 ON ATOM NUMBER   4 HAS RADIAL NORMALIZATION=  1.000000
  LARGEST GAUSSIAN PRIMITIVE EXPONENT=     5484.6716600000 OF TYPE -S-
 ON ATOM NUMBER   3 HAS RADIAL NORMALIZATION=  1.000000
 DFT IS SWITCHED OFF, PERFORMING PURE SCF UNTIL SWOFF THRESHOLD IS REACHED.

 ITER EX DEM     TOTAL ENERGY        E CHANGE  DENSITY CHANGE    DIIS ERROR
          * * *   INITIATING DIIS PROCEDURE   * * *
   1  0  0     -151.7817368071  -151.7817368071   0.433511377   0.492687875
   2  1  0     -152.3610175744    -0.5792807673   0.126313420   0.103409685
   3  2  0     -152.3988411270    -0.0378235527   0.061048336   0.067850840
   4  3  0     -152.4151527857    -0.0163116587   0.032122837   0.008091337
   5  4  0     -152.4161630779    -0.0010102922   0.011971788   0.003159090
   6  5  0     -152.4163256591    -0.0001625812   0.008425360   0.001746766
   7  6  0     -152.4163718804    -0.0000462212   0.004765200   0.000748658
 CONVERGED TO SWOFF, SO DFT CALCULATION IS NOW SWITCHED ON.
          * * *   INITIATING DIIS PROCEDURE   * * *
   8  7  0     -153.2309081058    -0.8145362255   0.210129321   0.050871618
   9  8  0     -153.2420281585    -0.0111200527   0.083717924   0.032853556
  10  9  0     -153.2394059907     0.0026221679   0.044136583   0.045897224
  11 10  0     -153.2451499041    -0.0057439134   0.014789083   0.009529435
  12 11  0     -153.2453442254    -0.0001943213   0.005454251   0.000788365
  13 12  0     -153.2453474090    -0.0000031835   0.000735516   0.000125209
  14 13  0     -153.2453474990    -0.0000000900   0.000196505   0.000053486
 DFT CODE IS SWITCHING BACK TO THE FINE GRID
          * * *   INITIATING DIIS PROCEDURE   * * *
  15 14  0     -153.2447829785     0.0005645205   0.002655599   0.001561970
  16 15  0     -153.2447919755    -0.0000089970   0.000817887   0.000265895
  17 16  0     -153.2447915279     0.0000004476   0.000499244   0.000453900
  18 17  0     -153.2447922884    -0.0000007605   0.000221626   0.000069415
  19 18  0     -153.2447922972    -0.0000000088   0.000084196   0.000013089
  20 19  0     -153.2447922982    -0.0000000011   0.000019390   0.000004900
  21 20  0     -153.2447922983    -0.0000000001   0.000002177   0.000000612
  22 21  0     -153.2447922983    -0.0000000000   0.000000505   0.000000117

          -----------------
          DENSITY CONVERGED
          -----------------
     TIME TO FORM FOCK OPERATORS=       6.1 SECONDS (       0.3 SEC/ITER)
     TIME TO SOLVE SCF EQUATIONS=       0.1 SECONDS (       0.0 SEC/ITER)

 FINAL R-B3LYP ENERGY IS     -153.2447922983 AFTER  22 ITERATIONS
 DFT EXCHANGE + CORRELATION ENERGY =       -16.8919761055
 TOTAL ELECTRON NUMBER             =        24.0000494431

          ------------
          EIGENVECTORS
          ------------

                      1          2          3          4          5
                  -19.1503   -10.2765   -10.2004    -1.0452    -0.9226
                     A          A          A          A          A   
    1  C  1  S   -0.000010   0.001002   0.995188  -0.021527  -0.127523
    2  C  1  S   -0.000512  -0.001037   0.035858   0.042392   0.250928
    3  C  1  X   -0.000263  -0.000935  -0.000863   0.019951  -0.075666
    4  C  1  Y    0.000050   0.000350  -0.002335  -0.009663  -0.048332
    5  C  1  Z    0.000027  -0.000007  -0.001583  -0.010745  -0.144028
    6  C  1  S    0.000720   0.005597  -0.028104   0.016105   0.127937
    7  C  1  X   -0.001109   0.002627   0.000053   0.002703  -0.020106
    8  C  1  Y   -0.001362  -0.002028   0.005596   0.004401  -0.008896
    9  C  1  Z   -0.000082   0.000034   0.000919  -0.000523  -0.004418
   10  C  1 XX   -0.000383  -0.000949   0.000075   0.004399  -0.003554
   11  C  1 YY    0.000379   0.000239  -0.000231  -0.003666  -0.012957
   12  C  1 ZZ    0.000005   0.000709   0.000156  -0.000732   0.016511
   13  C  1 XY   -0.000160   0.000736  -0.000023  -0.002236   0.003691
   14  C  1 XZ   -0.000001   0.000118   0.000184   0.000096   0.013840
   15  C  1 YZ    0.000044  -0.000072  -0.000073   0.000439   0.005260
   16  C  2  S    0.000231   0.995152  -0.000959  -0.117264  -0.017767
   17  C  2  S    0.000033   0.035678  -0.001281   0.223547   0.026440
   18  C  2  X   -0.000050   0.001700   0.000480   0.155441  -0.079648
   19  C  2  Y   -0.000227   0.001320  -0.000418   0.097088  -0.003333
   20  C  2  Z   -0.000013   0.000091  -0.000044   0.001084  -0.007437
   21  C  2  S    0.008875  -0.016048   0.006161   0.087166   0.050915
   22  C  2  X    0.005289   0.005847  -0.004799  -0.016302  -0.028095
   23  C  2  Y    0.004976   0.002431   0.000463  -0.018457   0.006290
   24  C  2  Z    0.000163  -0.000112   0.000167  -0.002319  -0.012421
   25  C  2 XX   -0.000561   0.001367  -0.000882   0.017453   0.004234
   26  C  2 YY    0.000280  -0.000190   0.000418  -0.002448  -0.001787
   27  C  2 ZZ    0.000280  -0.001177   0.000464  -0.015006  -0.002448
   28  C  2 XY   -0.000774   0.001252   0.000754   0.022190  -0.008432
   29  C  2 XZ   -0.000022  -0.000002   0.000078   0.000467   0.002293
   30  C  2 YZ    0.000027   0.000038  -0.000025   0.000342  -0.000927
   31  O  3  S    0.995116  -0.000049  -0.000028  -0.194220   0.030340
   32  O  3  S    0.029427   0.000441  -0.000636   0.429949  -0.067576
   33  O  3  X   -0.001960   0.000972   0.000128  -0.139740   0.010846
   34  O  3  Y   -0.001180   0.000515  -0.000025  -0.084385   0.013885
   35  O  3  Z   -0.000009  -0.000006   0.000004  -0.001335  -0.002100
   36  O  3  S   -0.019386  -0.005822   0.002046   0.374665  -0.062611
   37  O  3  X    0.005115   0.003696  -0.000408  -0.040507   0.006440
   38  O  3  Y    0.002703   0.002668  -0.000652  -0.024745   0.000108
   39  O  3  Z    0.000006   0.000072  -0.000043  -0.000209   0.003203
   40  O  3 XX   -0.000188  -0.001146  -0.000028   0.005875  -0.000136
   41  O  3 YY    0.000106   0.000032   0.000229  -0.003392   0.000027
   42  O  3 ZZ    0.000083   0.001115  -0.000201  -0.002483   0.000109
   43  O  3 XY   -0.000113  -0.001487   0.000122   0.010204  -0.001131
   44  O  3 XZ    0.000004  -0.000005   0.000004   0.000134  -0.000110
   45  O  3 YZ    0.000005  -0.000031   0.000021  -0.000228  -0.000045
   46  H  4  S   -0.000238  -0.000970  -0.000555   0.027691   0.008410
   47  H  4  S    0.001152   0.004966   0.000434  -0.012800  -0.001048
   48  H  5  S    0.000153  -0.000332  -0.000757   0.022774   0.322078
   49  H  5  S   -0.000279   0.001326  -0.000409   0.002520   0.032683
   50  H  6  S   -0.000159  -0.000241  -0.000516   0.023238   0.328230
   51  H  6  S   -0.000304  -0.000400   0.007091  -0.000135   0.052198
   52  H  7  S   -0.000053  -0.000509  -0.000554   0.006438   0.047215
   53  H  7  S   -0.000525   0.000575   0.006027  -0.000336  -0.001403

                      6          7          8          9         10
                   -0.6512    -0.5266    -0.4675    -0.4287    -0.3799
                     A          A          A          A          A   
    1  C  1  S   -0.079966  -0.098284   0.011623   0.005439   0.020686
    2  C  1  S    0.149167   0.191515  -0.015964  -0.017866  -0.037948
    3  C  1  X    0.161033  -0.015024   0.240987   0.181946   0.082085
    4  C  1  Y   -0.103782  -0.039457   0.063467  -0.045298   0.010444
    5  C  1  Z    0.125486   0.192655  -0.166264  -0.120523  -0.061415
    6  C  1  S    0.185140   0.264634  -0.049457   0.012697  -0.078656
    7  C  1  X    0.033414  -0.023529   0.098914   0.094680   0.046374
    8  C  1  Y   -0.036701  -0.025383   0.037802  -0.030558   0.011948
    9  C  1  Z    0.007082   0.042388  -0.052339  -0.052314  -0.009830
   10  C  1 XX    0.004902   0.003800   0.005252  -0.004443   0.000371
   11  C  1 YY    0.002949  -0.004781  -0.005589   0.006048   0.001312
   12  C  1 ZZ   -0.007851   0.000981   0.000337  -0.001605  -0.001682
   13  C  1 XY   -0.011237   0.007189  -0.012436  -0.013263  -0.006800
   14  C  1 XZ   -0.013179  -0.008715   0.000530  -0.002145   0.012050
   15  C  1 YZ   -0.004933  -0.013716   0.009875   0.010713   0.002383
   16  C  2  S   -0.137205   0.073879  -0.038098   0.012545  -0.008553
   17  C  2  S    0.285480  -0.155020   0.089354  -0.040909   0.018970
   18  C  2  X   -0.196154  -0.116433  -0.076909  -0.334194  -0.059516
   19  C  2  Y   -0.074824   0.247295   0.330298  -0.106018  -0.023838
   20  C  2  Z    0.022123   0.078197  -0.048622  -0.090801   0.340482
   21  C  2  S    0.231616  -0.160076   0.057703   0.011618   0.025431
   22  C  2  X   -0.058868  -0.004290  -0.058513  -0.065655  -0.020473
   23  C  2  Y   -0.050139   0.098432   0.079827  -0.021228  -0.018148
   24  C  2  Z    0.009211   0.041929  -0.036890  -0.056758   0.198764
   25  C  2 XX   -0.003579   0.008383  -0.000981  -0.009551  -0.003353
   26  C  2 YY    0.007894  -0.011524  -0.000495   0.007286   0.002400
   27  C  2 ZZ   -0.004315   0.003141   0.001476   0.002265   0.000953
   28  C  2 XY   -0.011662   0.000081   0.001499  -0.011531  -0.003023
   29  C  2 XZ   -0.003560  -0.003938   0.002221  -0.001201   0.024799
   30  C  2 YZ    0.002956   0.001308  -0.003267  -0.002848   0.013510
   31  O  3  S    0.072848  -0.046027   0.044403  -0.068683  -0.005548
   32  O  3  S   -0.172763   0.107792  -0.102509   0.148538   0.009893
   33  O  3  X   -0.061263   0.037762  -0.294444   0.359006   0.044565
   34  O  3  Y   -0.023229   0.180514   0.089170   0.294515   0.041066
   35  O  3  Z    0.009042   0.045553  -0.042005  -0.085902   0.494467
   36  O  3  S   -0.179872   0.143590  -0.155280   0.301635   0.036759
   37  O  3  X   -0.042950   0.021433  -0.160492   0.182325   0.020240
   38  O  3  Y   -0.014509   0.092250   0.050876   0.155804   0.021296
   39  O  3  Z    0.003184   0.019448  -0.019643  -0.047424   0.307432
   40  O  3 XX    0.005255   0.004649   0.019559  -0.008022  -0.000332
   41  O  3 YY   -0.000784  -0.009071  -0.013742  -0.002701  -0.000184
   42  O  3 ZZ   -0.004471   0.004422  -0.005817   0.010724   0.000516
   43  O  3 XY    0.004088  -0.010979  -0.000255  -0.016313  -0.001577
   44  O  3 XZ   -0.000762  -0.003296   0.002810   0.005126  -0.026881
   45  O  3 YZ   -0.000228  -0.001992   0.001380   0.002812  -0.016850
   46  H  4  S    0.130894  -0.188679  -0.132098   0.050990   0.012902
   47  H  4  S    0.039885  -0.107171  -0.123678   0.049005   0.007684
   48  H  5  S   -0.162851  -0.099174   0.032633  -0.008370   0.054101
   49  H  5  S   -0.053543  -0.040235   0.074915   0.005068   0.027087
   50  H  6  S   -0.150760  -0.083324  -0.013765  -0.021300   0.041586
   51  H  6  S   -0.065582  -0.066806  -0.056382  -0.017311   0.040328
   52  H  7  S    0.088673   0.186669  -0.172782  -0.117556  -0.094977
   53  H  7  S    0.039701   0.113209  -0.125893  -0.093376  -0.088187

                     11         12         13         14         15
                   -0.2569    -0.2140    -0.0406     0.0523     0.1325
                     A          A          A          A          A   
    1  C  1  S    0.057455   0.058575   0.034999  -0.121614   0.029816
    2  C  1  S   -0.116952  -0.127427  -0.051820   0.166674  -0.031482
    3  C  1  X   -0.200851   0.000525   0.095941  -0.243256  -0.160742
    4  C  1  Y   -0.044906  -0.522989   0.009004  -0.081965  -0.008077
    5  C  1  Z    0.055112  -0.028354   0.111299  -0.274269   0.074906
    6  C  1  S   -0.335593  -0.173161  -0.326444   1.775249  -0.341807
    7  C  1  X   -0.119282   0.091442   0.121091  -0.532878  -0.409697
    8  C  1  Y    0.022650  -0.388014  -0.004953  -0.236420   0.104556
    9  C  1  Z    0.028671  -0.063779   0.231508  -0.564742   0.301513
   10  C  1 XX    0.000570  -0.006340   0.002646   0.002350   0.005311
   11  C  1 YY    0.005956   0.020658   0.003537  -0.009580  -0.001733
   12  C  1 ZZ   -0.006526  -0.014318  -0.006183   0.007230  -0.003577
   13  C  1 XY    0.011806   0.008940  -0.007552   0.008033  -0.010624
   14  C  1 XZ    0.002722  -0.001503   0.022124   0.029967  -0.001191
   15  C  1 YZ   -0.000678   0.019783  -0.013273   0.009884  -0.007013
   16  C  2  S   -0.002767  -0.004587  -0.008467   0.011491  -0.116178
   17  C  2  S   -0.003098   0.025791   0.021783   0.020235   0.169379
   18  C  2  X    0.059347  -0.057197  -0.014725   0.034554  -0.056142
   19  C  2  Y   -0.098096   0.096088  -0.018599  -0.069755  -0.310416
   20  C  2  Z   -0.005451   0.002298   0.468803   0.136070  -0.042280
   21  C  2  S    0.017397  -0.144024   0.050180  -0.245894   1.799548
   22  C  2  X   -0.085316  -0.053119   0.018312   0.065997  -0.171145
   23  C  2  Y    0.019459  -0.080134  -0.033619  -0.082578  -0.672242
   24  C  2  Z    0.011478  -0.009271   0.489820   0.256081  -0.119293
   25  C  2 XX   -0.034943   0.020641  -0.003648   0.008309  -0.005114
   26  C  2 YY    0.035712  -0.023624   0.001472   0.003680  -0.003338
   27  C  2 ZZ   -0.000769   0.002983   0.002176  -0.011989   0.008453
   28  C  2 XY    0.025177   0.014582  -0.001113   0.004241   0.005027
   29  C  2 XZ   -0.000000   0.001032  -0.029095   0.000859   0.000117
   30  C  2 YZ    0.002131  -0.001461  -0.014513  -0.007807   0.000265
   31  O  3  S   -0.002244  -0.009782   0.002515  -0.010515   0.009308
   32  O  3  S    0.002611   0.017808  -0.007007   0.025657  -0.019063
   33  O  3  X   -0.311165  -0.039614   0.011492  -0.067585   0.027883
   34  O  3  Y    0.499689  -0.090425   0.017629   0.032146   0.106170
   35  O  3  Z    0.015968   0.004197  -0.429572  -0.095965   0.025421
   36  O  3  S    0.038372   0.121447  -0.017696   0.095451  -0.093665
   37  O  3  X   -0.224049  -0.054619   0.008165  -0.096795   0.023846
   38  O  3  Y    0.344072  -0.081792   0.021686   0.027077   0.191513
   39  O  3  Z    0.008337   0.005480  -0.434351  -0.125173   0.039863
   40  O  3 XX    0.014772   0.003181  -0.000101   0.002413  -0.004947
   41  O  3 YY   -0.015361  -0.003012  -0.000495   0.000543  -0.001805
   42  O  3 ZZ    0.000589  -0.000168   0.000595  -0.002955   0.006751
   43  O  3 XY   -0.007367   0.004118  -0.000276   0.002297   0.003466
   44  O  3 XZ   -0.000049  -0.000213   0.000383   0.000348   0.000555
   45  O  3 YZ   -0.000338  -0.000418   0.001299  -0.001477  -0.000416
   46  H  4  S    0.154276  -0.117244  -0.006422   0.030947  -0.076502
   47  H  4  S    0.246542  -0.207562  -0.030207  -0.020526  -1.795070
   48  H  5  S    0.011194  -0.057927   0.110868  -0.082059   0.037250
   49  H  5  S   -0.128090  -0.493858   0.365474  -0.929472   1.045826
   50  H  6  S    0.060429   0.125538   0.109511  -0.043247  -0.008790
   51  H  6  S    0.230809   0.542366   0.079704  -0.798324  -0.879382
   52  H  7  S    0.053853   0.030477  -0.060112  -0.094759   0.014971
   53  H  7  S    0.099043   0.031961  -0.109831  -0.692642  -0.312212

                     16         17         18         19         20
                    0.1415     0.1994     0.2602     0.2889     0.3972
                     A          A          A          A          A   
    1  C  1  S   -0.044518  -0.049211   0.052141  -0.040572  -0.078338
    2  C  1  S    0.074559   0.021911  -0.023645   0.065566   0.097042
    3  C  1  X   -0.049751  -0.000739  -0.160491   0.191618   0.041468
    4  C  1  Y    0.011390  -0.240632  -0.020397   0.109237  -0.146809
    5  C  1  Z    0.364400   0.209220   0.000441   0.009118  -0.125083
    6  C  1  S    0.480115   1.214266  -1.476676   0.026673   0.472606
    7  C  1  X   -0.293687   0.375244  -1.459965   0.876161   0.253677
    8  C  1  Y    0.031987  -1.024085   0.271807   0.424513  -0.183902
    9  C  1  Z    1.040605   0.740292   0.146321  -0.054624  -0.413196
   10  C  1 XX    0.019479  -0.022127   0.020186  -0.041677  -0.020878
   11  C  1 YY    0.008334   0.001246   0.014728   0.025174   0.056948
   12  C  1 ZZ   -0.027813   0.020880  -0.034914   0.016504  -0.036070
   13  C  1 XY    0.004493  -0.000934  -0.016821  -0.007992   0.020047
   14  C  1 XZ    0.001606  -0.010716  -0.007552  -0.004715  -0.049499
   15  C  1 YZ    0.004997  -0.022860  -0.013242   0.002228  -0.010203
   16  C  2  S    0.000267   0.058374  -0.023200   0.071852   0.036136
   17  C  2  S    0.019660  -0.070874   0.045499  -0.071129  -0.206898
   18  C  2  X   -0.036181   0.107467  -0.317805   0.092060   0.241325
   19  C  2  Y    0.034036  -0.017597   0.226130  -0.333846  -0.178701
   20  C  2  Z   -0.057141  -0.037566   0.081966  -0.031289   0.317987
   21  C  2  S    0.019108  -1.115790   0.409017  -1.862831   0.039450
   22  C  2  X   -0.120860   0.628097  -1.729136  -1.292992   0.707983
   23  C  2  Y    0.135242  -0.033047   0.617438  -1.514493  -0.121160
   24  C  2  Z   -0.276628  -0.249907   0.124871  -0.050221  -0.039390
   25  C  2 XX    0.003358   0.004833   0.011489   0.001418   0.033344
   26  C  2 YY    0.000890  -0.003646  -0.009000   0.013897  -0.018310
   27  C  2 ZZ   -0.004247  -0.001188  -0.002489  -0.015315  -0.015034
   28  C  2 XY   -0.000744   0.006577   0.018316  -0.003151  -0.003350
   29  C  2 XZ   -0.008706  -0.007607   0.005097  -0.001536   0.026332
   30  C  2 YZ    0.018792   0.002400  -0.008206   0.003923  -0.022249
   31  O  3  S   -0.002568  -0.005619  -0.043065  -0.095248   0.015320
   32  O  3  S    0.004432   0.028394   0.074830   0.131754  -0.023237
   33  O  3  X    0.004398  -0.076638   0.001654  -0.157639  -0.066082
   34  O  3  Y   -0.017556   0.019893  -0.140549  -0.063036   0.065685
   35  O  3  Z    0.026189   0.050900  -0.013597  -0.004495  -0.037295
   36  O  3  S    0.033535  -0.061585   0.791764   1.970144  -0.403906
   37  O  3  X    0.004466  -0.093143  -0.108082  -0.825657   0.059742
   38  O  3  Y   -0.045385   0.066886  -0.443910  -0.323178   0.206406
   39  O  3  Z    0.087423   0.075410  -0.046442   0.007387  -0.038278
   40  O  3 XX    0.000704   0.000288   0.011541   0.021355  -0.023302
   41  O  3 YY    0.000282   0.000038  -0.008336   0.006618   0.016436
   42  O  3 ZZ   -0.000986  -0.000327  -0.003205  -0.027973   0.006866
   43  O  3 XY    0.000591  -0.001598   0.014349   0.037401  -0.007226
   44  O  3 XZ   -0.004570  -0.001218  -0.000434   0.000534  -0.014363
   45  O  3 YZ    0.004131   0.000948  -0.004154   0.001886  -0.017891
   46  H  4  S    0.013326   0.043825  -0.008872   0.075978  -0.100975
   47  H  4  S    0.143074   0.353952   0.766830  -0.734761  -0.175298
   48  H  5  S   -0.113481   0.154037  -0.100695   0.025912  -0.546869
   49  H  5  S   -1.092945   3.781784   1.843970  -0.654624   0.409181
   50  H  6  S    0.078107   0.003246  -0.206568  -0.026303  -0.539817
   51  H  6  S    1.911955  -3.507130  -1.613503   0.931495   0.515026
   52  H  7  S   -0.117362   0.114198  -0.049162  -0.005958  -0.011334
   53  H  7  S   -1.667184  -1.076579  -0.282186   0.341662   0.015820

                     21         22         23         24         25
                    0.5338     0.5635     0.6031     0.6692     0.6966
                     A          A          A          A          A   
    1  C  1  S   -0.011728  -0.021198   0.017890  -0.007329  -0.022808
    2  C  1  S    0.128150  -0.110550  -0.214860   0.037451   0.347526
    3  C  1  X    0.536287  -0.580168  -0.477406  -0.191732   0.184518
    4  C  1  Y   -0.510433   0.315929  -0.648833   0.241621   0.190221
    5  C  1  Z   -0.139502   0.033496  -0.447545  -0.304666  -0.527288
    6  C  1  S   -0.042233   0.080633  -0.650953   0.726320  -0.659881
    7  C  1  X   -0.702744   0.705626   0.456073   0.763771  -0.445218
    8  C  1  Y    0.434984  -0.379549   0.920135  -0.419738  -0.315067
    9  C  1  Z    0.093325  -0.314400   0.987201   0.815757   1.499802
   10  C  1 XX    0.000388  -0.021812  -0.052758   0.001199  -0.022533
   11  C  1 YY    0.025323   0.022575   0.037692   0.019518  -0.007177
   12  C  1 ZZ   -0.025710  -0.000763   0.015066  -0.020717   0.029710
   13  C  1 XY   -0.013968   0.019064   0.025455  -0.092029  -0.022130
   14  C  1 XZ   -0.002906  -0.018177   0.040077   0.022237   0.040626
   15  C  1 YZ    0.021702  -0.008528   0.056451   0.020874   0.018826
   16  C  2  S    0.039755  -0.024271  -0.000207   0.038143  -0.037551
   17  C  2  S    0.015577  -0.225797  -0.380443  -0.421400   0.055508
   18  C  2  X   -0.065984   0.131653   0.164891  -0.780578   0.590729
   19  C  2  Y   -0.048548   0.064872  -0.139140   0.033610   0.468443
   20  C  2  Z   -0.672789  -0.698552   0.130094   0.074863   0.054529
   21  C  2  S    0.285741  -0.037485   0.514920  -0.225581   0.837284
   22  C  2  X    0.324604  -0.153592  -0.742707   1.276123  -0.599246
   23  C  2  Y    0.006564  -0.131996   0.147120  -1.023805  -0.645694
   24  C  2  Z    0.796270   0.990462  -0.403538  -0.401194  -0.454626
   25  C  2 XX    0.082889  -0.054475   0.005973   0.063410  -0.019487
   26  C  2 YY   -0.009576  -0.016176  -0.036152  -0.059798  -0.050670
   27  C  2 ZZ   -0.073313   0.070651   0.030179  -0.003612   0.070157
   28  C  2 XY   -0.027471   0.037558   0.038417   0.110939  -0.072393
   29  C  2 XZ   -0.009450   0.015355   0.003072  -0.002562  -0.016905
   30  C  2 YZ   -0.007905  -0.036776   0.014583   0.009546   0.022422
   31  O  3  S   -0.006119   0.012185   0.004790  -0.032718   0.026316
   32  O  3  S    0.060776  -0.083614  -0.071365   0.138557  -0.083985
   33  O  3  X   -0.119896   0.075087   0.076026  -0.356876   0.087882
   34  O  3  Y    0.048136  -0.033656  -0.162790   0.046720   0.291618
   35  O  3  Z   -0.038402  -0.080240  -0.013033   0.025113   0.032010
   36  O  3  S   -0.232182   0.102062   0.223822  -0.123800   0.088870
   37  O  3  X    0.004014   0.029848   0.002061  -0.246720   0.262489
   38  O  3  Y    0.084008   0.000441  -0.031478  -0.004736   0.103057
   39  O  3  Z   -0.077088  -0.108775   0.080864   0.061229   0.079259
   40  O  3 XX   -0.022163   0.009538  -0.009824  -0.055045   0.045587
   41  O  3 YY    0.015294  -0.011534   0.000681  -0.006511  -0.010855
   42  O  3 ZZ    0.006869   0.001996   0.009143   0.061556  -0.034732
   43  O  3 XY   -0.016100   0.005229  -0.015642  -0.090493   0.094743
   44  O  3 XZ    0.040710   0.044973  -0.018311  -0.011502  -0.011011
   45  O  3 YZ    0.024242   0.017020   0.006274   0.007859   0.017018
   46  H  4  S    0.058288  -0.183508  -0.046156  -0.338134  -0.282481
   47  H  4  S    0.027043  -0.000291   0.097894  -0.453946  -0.287008
   48  H  5  S   -0.079803  -0.151733  -0.087962   0.000911   0.014924
   49  H  5  S    0.244135   0.289300  -0.119722   0.674595   1.587626
   50  H  6  S   -0.025998  -0.175985   0.087190  -0.060760  -0.065271
   51  H  6  S   -0.091393   0.101248   0.724423  -0.025246  -0.832672
   52  H  7  S   -0.178148  -0.034119  -0.219388  -0.197254  -0.229416
   53  H  7  S   -0.044392  -0.020403   0.050889  -0.054344  -0.592620

                     26         27         28         29         30
                    0.7372     0.7668     0.8594     0.8922     0.9202
                     A          A          A          A          A   
    1  C  1  S   -0.008018  -0.003351  -0.012784  -0.036185   0.017085
    2  C  1  S   -0.442226   0.412710   0.079253   1.021939  -0.119616
    3  C  1  X    0.346742   0.184932   0.059323  -0.358936  -0.095446
    4  C  1  Y    0.094341   0.409011   0.090541  -0.082117  -0.091261
    5  C  1  Z    0.478237  -0.595734   0.110404   0.344175  -0.009529
    6  C  1  S    0.241787  -1.336680  -0.493973  -1.623723   0.357285
    7  C  1  X   -1.377576  -1.197921  -0.488449   0.738028   0.597267
    8  C  1  Y   -0.199197  -1.091166  -0.033988  -0.056654   0.359724
    9  C  1  Z   -0.617868   1.526987  -0.108197  -0.430499  -0.170324
   10  C  1 XX   -0.083087  -0.001132  -0.027007   0.083184  -0.049729
   11  C  1 YY    0.068836  -0.037459   0.010612   0.020549   0.028812
   12  C  1 ZZ    0.014252   0.038590   0.016395  -0.103733   0.020917
   13  C  1 XY   -0.005897   0.025257   0.033843  -0.041358  -0.076158
   14  C  1 XZ    0.070998   0.002240   0.034983   0.121137  -0.057275
   15  C  1 YZ    0.013662  -0.017415   0.010897   0.052962  -0.010490
   16  C  2  S   -0.008371   0.017410   0.051283   0.012802   0.018273
   17  C  2  S   -0.632338   0.053561  -0.936619   0.716640   1.012702
   18  C  2  X    0.295017   0.041546   0.167113  -0.033400   0.054605
   19  C  2  Y   -0.428471  -0.663612   0.489330  -0.130859   0.001693
   20  C  2  Z    0.011615  -0.057671   0.029899   0.002896   0.004780
   21  C  2  S    1.617245   0.515114   2.874959  -1.244634  -0.964290
   22  C  2  X   -0.665909  -0.302705  -0.093452   0.356047   0.326819
   23  C  2  Y    1.129951   2.618407  -0.404763   0.472101  -0.109935
   24  C  2  Z    0.070983  -0.108713  -0.020175   0.048471   0.000030
   25  C  2 XX    0.063120   0.044585   0.011267   0.045330   0.127186
   26  C  2 YY   -0.118855   0.011840   0.093377   0.007322  -0.061587
   27  C  2 ZZ    0.055735  -0.056425  -0.104644  -0.052652  -0.065599
   28  C  2 XY    0.062815   0.035062   0.108619  -0.020592   0.132926
   29  C  2 XZ   -0.032090  -0.006091  -0.009876  -0.054168   0.024975
   30  C  2 YZ    0.001038   0.021617   0.019378   0.034448  -0.021364
   31  O  3  S    0.015597   0.007395   0.028797   0.007006   0.049573
   32  O  3  S   -0.068970   0.044694  -0.095053   0.005781  -0.264823
   33  O  3  X   -0.138551  -0.109655  -0.341721  -0.019438  -0.555095
   34  O  3  Y   -0.048619  -0.241528  -0.316216  -0.044354  -0.227323
   35  O  3  Z    0.087935  -0.022798   0.032319   0.222708  -0.123946
   36  O  3  S   -0.378950  -0.770932  -0.603858  -0.119696  -0.043371
   37  O  3  X    0.319125   0.407011   0.764431   0.123418   1.012181
   38  O  3  Y    0.022926  -0.060260   0.508191   0.072854   0.567332
   39  O  3  Z   -0.063858   0.051585  -0.031339  -0.231446   0.136222
   40  O  3 XX   -0.083545  -0.081594  -0.004626   0.003539   0.005366
   41  O  3 YY    0.033634   0.024480  -0.049512   0.018007   0.023189
   42  O  3 ZZ    0.049912   0.057113   0.054137  -0.021546  -0.028554
   43  O  3 XY   -0.002028  -0.017908  -0.070418   0.016482   0.004454
   44  O  3 XZ    0.011192  -0.008238  -0.000361   0.007177  -0.000817
   45  O  3 YZ   -0.003143   0.017441  -0.005167   0.006236  -0.003241
   46  H  4  S   -0.588178   0.187761   0.719709   0.092571  -0.334593
   47  H  4  S    0.817863   1.337808  -1.571180   0.516526   0.513013
   48  H  5  S    0.150971  -0.013088  -0.022483  -0.117699   0.096261
   49  H  5  S    0.018134   1.944455   0.171164   0.681211  -0.902862
   50  H  6  S    0.171335  -0.100456   0.035747   0.036301  -0.059925
   51  H  6  S   -1.429672  -1.127189  -0.397223  -0.201975   0.991369
   52  H  7  S   -0.409521   0.113171  -0.206377  -0.829347   0.272148
   53  H  7  S    0.042612  -1.091330   0.124549   1.669472   0.049224

                     31         32         33         34         35
                    0.9911     1.0731     1.1054     1.3919     1.5173
                     A          A          A          A          A   
    1  C  1  S    0.000353  -0.042233  -0.052529   0.002683   0.012797
    2  C  1  S    0.463738  -1.145905  -1.343458   0.039605   0.148755
    3  C  1  X   -0.035745  -0.024543   0.100775   0.059314   0.027071
    4  C  1  Y   -0.030388   0.113489   0.276894   0.156639   0.040952
    5  C  1  Z    0.154709  -0.058944  -0.113990   0.009952  -0.089569
    6  C  1  S   -1.139534   2.602357   4.666547  -0.076046  -0.504311
    7  C  1  X   -0.152809   0.083333   0.811102  -0.135734  -0.055615
    8  C  1  Y    0.136898  -1.060730  -1.554684  -0.341875   0.136995
    9  C  1  Z   -0.060222   0.243359   0.384962   0.319250   0.107177
   10  C  1 XX    0.010834   0.012817   0.067304   0.054966   0.098894
   11  C  1 YY   -0.021142   0.070396   0.106998  -0.053629   0.019476
   12  C  1 ZZ    0.010308  -0.083213  -0.174303  -0.001336  -0.118370
   13  C  1 XY   -0.011733   0.076296   0.007135   0.132711   0.169890
   14  C  1 XZ    0.031042   0.060965   0.076759  -0.232371   0.039917
   15  C  1 YZ    0.043092   0.042752   0.031853   0.520994   0.003574
   16  C  2  S   -0.002829   0.015468   0.027157   0.002333  -0.001338
   17  C  2  S   -0.158227   0.478605   0.659715   0.028115  -0.055606
   18  C  2  X    0.021529   0.043080  -0.148220  -0.009102   0.003740
   19  C  2  Y   -0.032088  -0.208397   0.180581   0.002004  -0.003745
   20  C  2  Z    0.111732  -0.000992   0.036010  -0.023696   0.168894
   21  C  2  S    0.559901  -2.006866  -2.777303   0.159100   0.690595
   22  C  2  X   -0.269751   0.349121   2.069581   0.094035  -0.011501
   23  C  2  Y    0.262727   1.062728  -1.305901   0.066994   0.003317
   24  C  2  Z   -0.565816  -0.100218  -0.388097   0.019617  -0.120180
   25  C  2 XX    0.006985  -0.141913   0.036498   0.030445  -0.029152
   26  C  2 YY   -0.016440   0.185677   0.019895   0.001279   0.055437
   27  C  2 ZZ    0.009455  -0.043764  -0.056393  -0.031725  -0.026285
   28  C  2 XY   -0.012578   0.056258  -0.037430  -0.023868   0.039220
   29  C  2 XZ   -0.059090  -0.033673  -0.075925   0.426809  -0.333884
   30  C  2 YZ    0.014919   0.044148   0.052747  -0.135013  -0.509098
   31  O  3  S   -0.004347   0.007048   0.006569  -0.007403  -0.011792
   32  O  3  S    0.051843  -0.105200  -0.080652   0.178980   0.329023
   33  O  3  X    0.004698  -0.273257   0.321511  -0.033753  -0.068830
   34  O  3  Y    0.072782   0.540466  -0.456508  -0.032803  -0.042096
   35  O  3  Z   -0.893347  -0.034248  -0.125524  -0.057446   0.102992
   36  O  3  S   -0.104691   0.100248   0.085217  -0.322396  -0.586042
   37  O  3  X    0.026207   0.433715  -0.690400   0.094919   0.241632
   38  O  3  Y   -0.135001  -0.963355   0.958059   0.114289   0.128950
   39  O  3  Z    1.229055   0.070138   0.267743  -0.061947   0.111057
   40  O  3 XX   -0.014108   0.104161  -0.006631  -0.017518   0.044037
   41  O  3 YY   -0.003651  -0.059870   0.079465   0.025434  -0.025426
   42  O  3 ZZ    0.017759  -0.044291  -0.072835  -0.007917  -0.018611
   43  O  3 XY    0.001050  -0.049714   0.036409   0.035304   0.013283
   44  O  3 XZ    0.031388  -0.004658   0.006640  -0.085486   0.461949
   45  O  3 YZ    0.022843   0.021219   0.045489  -0.194979   0.089343
   46  H  4  S    0.016243   0.327222   0.087376  -0.057273  -0.119973
   47  H  4  S    0.036702   0.609606  -0.471826   0.077333  -0.031608
   48  H  5  S    0.050936  -0.205843  -0.199256  -0.699170  -0.534324
   49  H  5  S    0.178675   1.176445   1.660881   2.036389   0.643458
   50  H  6  S    0.034505   0.051821   0.009439   0.832530   0.568177
   51  H  6  S   -0.195169  -1.578721  -2.009948  -1.956354  -0.504448
   52  H  7  S   -0.203246  -0.315025  -0.352974  -0.028938   0.174615
   53  H  7  S    0.537115  -0.529633  -0.686124  -0.113536  -0.032420

                     36         37         38         39         40
                    1.5653     1.6329     1.6824     1.7909     1.8096
                     A          A          A          A          A   
    1  C  1  S   -0.017519   0.035980   0.010180  -0.001255  -0.006625
    2  C  1  S   -0.202378   0.447962  -0.281157  -0.463228   0.165568
    3  C  1  X   -0.031660  -0.002060  -0.208049  -0.209496   0.106225
    4  C  1  Y   -0.002664   0.026044   0.029675   0.067948  -0.012038
    5  C  1  Z    0.017365  -0.035752   0.017101   0.058456   0.064125
    6  C  1  S    0.675725  -1.673355  -0.119982   0.589776  -0.049702
    7  C  1  X    0.078114   0.007919  -0.210204   0.182802  -0.229792
    8  C  1  Y   -0.315759   0.766936   0.002353  -0.120792  -0.081645
    9  C  1  Z    0.516329  -0.128033   0.115811  -0.370567  -0.219656
   10  C  1 XX   -0.176027   0.197410   0.391286   0.113738  -0.264629
   11  C  1 YY   -0.032133   0.043807  -0.410099  -0.256806   0.005028
   12  C  1 ZZ    0.208159  -0.241217   0.018813   0.143067   0.259600
   13  C  1 XY   -0.288604   0.142549  -0.008332  -0.230715  -0.115155
   14  C  1 XZ   -0.221291   0.061051  -0.030075  -0.142344  -0.269053
   15  C  1 YZ    0.068115   0.055020  -0.086631   0.175508   0.308723
   16  C  2  S   -0.000002  -0.023699  -0.004679   0.021408  -0.012517
   17  C  2  S    0.085972  -0.293038  -0.455382  -0.025858   0.028097
   18  C  2  X   -0.009655  -0.090061   0.143444   0.025192   0.043390
   19  C  2  Y   -0.014160  -0.000829  -0.053435   0.075985  -0.056527
   20  C  2  Z    0.085738  -0.003153  -0.013573   0.045462   0.066185
   21  C  2  S   -1.425173  -0.780737   1.466179  -0.510305   0.414663
   22  C  2  X   -0.267698  -1.953774  -0.229500  -0.145684   0.350005
   23  C  2  Y   -0.107346  -1.214697   0.277715   0.491048   0.073068
   24  C  2  Z   -0.219159   0.069897  -0.021601   0.204411   0.144609
   25  C  2 XX    0.027313  -0.066433   0.171628   0.250239  -0.083379
   26  C  2 YY    0.061870   0.126774   0.183386  -0.372502   0.186671
   27  C  2 ZZ   -0.089183  -0.060341  -0.355014   0.122264  -0.103292
   28  C  2 XY   -0.124422  -0.282686  -0.259459  -0.176665   0.146179
   29  C  2 XZ    0.158549  -0.129795   0.025030  -0.139956  -0.098119
   30  C  2 YZ   -0.469478   0.146974   0.002542  -0.014695  -0.034198
   31  O  3  S    0.023753   0.020692  -0.016409  -0.002764   0.005276
   32  O  3  S   -0.788312  -1.360385   0.494529   0.026719   0.085639
   33  O  3  X    0.128109  -0.015224  -0.164775  -0.133365   0.133612
   34  O  3  Y    0.069666   0.042307   0.013220   0.159879  -0.072004
   35  O  3  Z    0.011138   0.014684  -0.003218   0.060736   0.045993
   36  O  3  S    1.564207   3.527368  -0.949796   0.026877  -0.489212
   37  O  3  X   -0.559155  -0.919514   0.448382   0.157499   0.002494
   38  O  3  Y   -0.334437  -0.593520   0.083098  -0.279056   0.206471
   39  O  3  Z    0.065813  -0.030554   0.003838  -0.098622  -0.069240
   40  O  3 XX   -0.048358  -0.122383   0.053580  -0.406701   0.295922
   41  O  3 YY    0.068750   0.164251   0.474381   0.088674  -0.070054
   42  O  3 ZZ   -0.020392  -0.041868  -0.527961   0.318027  -0.225869
   43  O  3 XY   -0.109156  -0.168065  -0.133355   0.351963  -0.249084
   44  O  3 XZ    0.234917  -0.049773  -0.018357  -0.044175  -0.201435
   45  O  3 YZ   -0.189485   0.146319  -0.000084   0.390988   0.658310
   46  H  4  S    0.200860  -0.224012  -0.197360   0.498097  -0.192902
   47  H  4  S    0.058427  -0.330952  -0.113917   0.141950   0.039398
   48  H  5  S    0.600179  -0.434249   0.224597  -0.167189   0.039344
   49  H  5  S   -0.293461   0.541670  -0.274570  -0.238572   0.008512
   50  H  6  S   -0.536620   0.555422  -0.212546   0.075996  -0.067839
   51  H  6  S    0.414876  -0.331741   0.171285  -0.023611  -0.131227
   52  H  7  S   -0.340006   0.348605  -0.086606   0.021726  -0.071004
   53  H  7  S   -0.262699   0.290766  -0.171957   0.028278   0.081414

                     41         42         43         44         45
                    1.9244     1.9744     2.0683     2.1931     2.3067
                     A          A          A          A          A   
    1  C  1  S    0.030086   0.033685   0.002014   0.019483   0.036001
    2  C  1  S    0.173634   0.208338   0.175382   0.154519   0.227517
    3  C  1  X   -0.021661  -0.058939   0.042867  -0.040939  -0.071671
    4  C  1  Y    0.136486   0.048910  -0.009510  -0.032177  -0.015477
    5  C  1  Z   -0.039046   0.015823   0.006516   0.039732  -0.003086
    6  C  1  S   -1.082559  -1.198051  -0.437102  -0.756955  -1.277000
    7  C  1  X   -0.388661  -0.159550  -0.375904  -0.247786  -0.490484
    8  C  1  Y    0.047764   0.036883  -0.017195   0.143237   0.393027
    9  C  1  Z   -0.324942   0.689502   0.290612  -0.036512  -0.278030
   10  C  1 XX   -0.355960   0.106089  -0.298488  -0.004832  -0.105853
   11  C  1 YY    0.401039   0.614422   0.168217   0.246471   0.131764
   12  C  1 ZZ   -0.045079  -0.720511   0.130271  -0.241639  -0.025911
   13  C  1 XY   -0.531006  -0.024757   0.429030   0.327470   0.301756
   14  C  1 XZ    0.196273  -0.346121   0.011322  -0.573806   0.685541
   15  C  1 YZ    0.114641  -0.302018  -0.205995   0.388906   0.472580
   16  C  2  S   -0.016865  -0.018494   0.006201  -0.014985  -0.051080
   17  C  2  S   -0.185790  -0.312266   0.260674  -0.111129  -0.230427
   18  C  2  X    0.165213   0.171127  -0.283165  -0.044480  -0.109409
   19  C  2  Y    0.044576  -0.011337   0.162148   0.036157   0.102279
   20  C  2  Z   -0.027800  -0.001020   0.009584   0.106326  -0.002875
   21  C  2  S    1.146411   1.247387  -0.224556   0.695161   1.336860
   22  C  2  X   -0.066363  -0.210647  -0.257047  -0.224893  -0.417045
   23  C  2  Y    1.169013   0.681568   0.427827   0.355906   0.535742
   24  C  2  Z    0.212312  -0.229587  -0.098549   0.242191   0.123734
   25  C  2 XX    0.346660   0.282587  -0.159665   0.039570   0.281180
   26  C  2 YY   -0.296495   0.012546  -0.373259  -0.083873   0.166995
   27  C  2 ZZ   -0.050166  -0.295132   0.532924   0.044303  -0.448175
   28  C  2 XY    0.160821   0.051667   0.008867   0.082450   0.226584
   29  C  2 XZ   -0.128206   0.198375   0.138095  -0.243813   0.157690
   30  C  2 YZ    0.163136  -0.274916  -0.234076   0.494308  -0.149468
   31  O  3  S    0.015479   0.009356  -0.007712   0.001878   0.015465
   32  O  3  S    0.114142   0.114824   0.015635   0.045697  -0.139076
   33  O  3  X    0.136286   0.076383  -0.137311  -0.000976   0.163407
   34  O  3  Y    0.186326   0.130696   0.006881   0.046749   0.158532
   35  O  3  Z    0.016892  -0.034868  -0.018138   0.058468   0.014233
   36  O  3  S   -0.992925  -0.740096   0.207183  -0.251914  -0.298222
   37  O  3  X    0.336900   0.292441   0.073016   0.146593   0.144849
   38  O  3  Y   -0.125484  -0.071671  -0.214060  -0.087195  -0.213906
   39  O  3  Z   -0.055566   0.099568   0.049837  -0.192897  -0.061659
   40  O  3 XX    0.082985  -0.013934  -0.213290  -0.074577  -0.192655
   41  O  3 YY    0.283239  -0.051308   0.609344   0.171766   0.176774
   42  O  3 ZZ   -0.366224   0.065242  -0.396054  -0.097189   0.015881
   43  O  3 XY   -0.153533   0.090211  -0.052948   0.048825   0.247012
   44  O  3 XZ    0.109404  -0.237674  -0.139851   0.426078  -0.006567
   45  O  3 YZ   -0.169577   0.199021   0.151159  -0.122079   0.147912
   46  H  4  S    0.349646   0.047401   0.412797   0.050522  -0.059882
   47  H  4  S    0.313220   0.112054   0.149847   0.057708   0.087219
   48  H  5  S   -0.559060   0.480239   0.044251   0.881151   0.637546
   49  H  5  S    0.206304   0.102222   0.235817  -0.585626  -0.880328
   50  H  6  S    0.559678   0.224675  -0.024846  -0.558302  -0.909655
   51  H  6  S   -0.272642   0.121562  -0.131319   0.538995   0.940201
   52  H  7  S    0.456351  -0.043742  -0.237768  -0.045013   0.506247
   53  H  7  S    0.072307  -0.092467  -0.034155   0.070415   0.010950

                     46         47         48         49         50
                    2.3527     2.5185     2.5851     2.8560     2.9461
                     A          A          A          A          A   
    1  C  1  S    0.015129   0.051540  -0.000681   0.032290  -0.012474
    2  C  1  S    0.169024   0.094637  -0.005847  -0.093033   0.066860
    3  C  1  X   -0.074907  -0.272699  -0.005283  -0.217001   0.093592
    4  C  1  Y    0.057334   0.068996   0.012520   0.166308  -0.049386
    5  C  1  Z    0.016937   0.014690   0.022749   0.020812  -0.014413
    6  C  1  S   -0.821242  -1.523686   0.007265  -0.293197   0.113742
    7  C  1  X   -0.546491  -0.863082  -0.027268  -0.217291   0.172238
    8  C  1  Y    0.119291   0.221733  -0.029450   0.142232   0.024679
    9  C  1  Z    0.168046   0.049597   0.047846   0.056056   0.033719
   10  C  1 XX   -0.360088  -0.771575  -0.046163  -0.213559   0.066554
   11  C  1 YY   -0.159420   0.505187   0.004637  -0.060904   0.013203
   12  C  1 ZZ    0.519508   0.266388   0.041525   0.274463  -0.079757
   13  C  1 XY    0.249309   0.099120  -0.031740   0.527100  -0.191651
   14  C  1 XZ   -0.285064   0.043013   0.114350   0.042008  -0.022755
   15  C  1 YZ   -0.394429   0.006993  -0.234804  -0.050352   0.007995
   16  C  2  S   -0.062302  -0.029534  -0.000955  -0.044148  -0.029157
   17  C  2  S   -0.107476  -0.050395   0.021424  -0.324712  -1.327235
   18  C  2  X   -0.166313  -0.227328   0.000680  -0.372083  -1.085536
   19  C  2  Y    0.143538   0.053167  -0.009314  -0.160860  -0.664652
   20  C  2  Z    0.005021   0.000655   0.240034   0.003400  -0.007339
   21  C  2  S    0.947850   1.702533  -0.001049   0.174768  -1.749787
   22  C  2  X   -0.260827  -0.735699   0.006401  -0.346495  -0.688482
   23  C  2  Y    0.430126   0.857725  -0.004359  -0.501663  -0.539113
   24  C  2  Z   -0.012319   0.076419   0.231398  -0.032371  -0.022224
   25  C  2 XX    0.325704  -0.124275   0.055210   0.897491  -0.683269
   26  C  2 YY    0.286280   0.409704  -0.026872  -0.794633   0.229807
   27  C  2 ZZ   -0.611984  -0.285430  -0.028338  -0.102859   0.453462
   28  C  2 XY    0.411162  -0.871675  -0.067826  -0.552490  -0.422228
   29  C  2 XZ   -0.121958  -0.102478   0.889574  -0.077447   0.022884
   30  C  2 YZ    0.120372   0.070614   0.429981  -0.035613  -0.002967
   31  O  3  S    0.024020  -0.020277  -0.000007  -0.009510  -0.061669
   32  O  3  S   -0.336087   0.582246   0.006932  -0.330545  -0.685784
   33  O  3  X    0.295094  -0.344886  -0.002282  -0.005220  -0.248788
   34  O  3  Y    0.194577  -0.152753  -0.002722   0.047415  -0.169329
   35  O  3  Z   -0.006465   0.001043  -0.013896   0.002667  -0.004444
   36  O  3  S   -0.087099  -0.745766  -0.010197   0.970357   3.103743
   37  O  3  X   -0.002821   0.509266  -0.009363  -0.646034  -1.521585
   38  O  3  Y   -0.240921  -0.010611   0.035483   0.079608  -0.968912
   39  O  3  Z    0.035208   0.000746  -0.443671   0.030779  -0.011945
   40  O  3 XX   -0.252222  -0.166724   0.039735   0.831402   0.738939
   41  O  3 YY    0.222217   0.011905  -0.065554  -0.661816  -0.021478
   42  O  3 ZZ    0.030005   0.154819   0.025818  -0.169586  -0.717461
   43  O  3 XY    0.292356   0.120921  -0.038862  -0.115547   1.161339
   44  O  3 XZ   -0.012596  -0.014288   0.829089  -0.047385   0.023858
   45  O  3 YZ   -0.084738  -0.038164   0.531768  -0.036259   0.016558
   46  H  4  S   -0.148364  -0.253259  -0.015497   0.258172  -0.023043
   47  H  4  S    0.140162   0.341252   0.018084  -0.411211   0.010825
   48  H  5  S   -0.605438  -0.053232  -0.217578   0.003369  -0.036545
   49  H  5  S    0.605845   0.065221   0.244093   0.097304   0.152838
   50  H  6  S    0.618803   0.089519   0.202039  -0.087608   0.063665
   51  H  6  S   -0.572842  -0.098228  -0.204429  -0.055004  -0.107335
   52  H  7  S   -0.389997   0.038460  -0.056709  -0.114431   0.020038
   53  H  7  S    0.099200  -0.036954  -0.025087   0.013715   0.008453
 ...... END OF RHF CALCULATION ......
 STEP CPU TIME =     6.38 TOTAL CPU TIME =          6.5 (      0.1 MIN)
 TOTAL WALL CLOCK TIME=          6.9 SECONDS, CPU UTILIZATION IS    95.04%

     ---------------------------------------------------------------------
     PROPERTIES FOR THE B3LYP    DFT FUNCTIONAL (RHF  TYPE) DENSITY MATRIX
     ---------------------------------------------------------------------

          -----------------
          ENERGY COMPONENTS
          -----------------

         WAVEFUNCTION NORMALIZATION =       1.0000000000

                ONE ELECTRON ENERGY =    -345.9609923949
                TWO ELECTRON ENERGY =     122.4004361940
           NUCLEAR REPULSION ENERGY =      70.3157639026
                                      ------------------
                       TOTAL ENERGY =    -153.2447922983

 ELECTRON-ELECTRON POTENTIAL ENERGY =     122.4004361940
  NUCLEUS-ELECTRON POTENTIAL ENERGY =    -499.2145757270
   NUCLEUS-NUCLEUS POTENTIAL ENERGY =      70.3157639026
                                      ------------------
             TOTAL POTENTIAL ENERGY =    -306.4983756304
               TOTAL KINETIC ENERGY =     153.2535833321
                 VIRIAL RATIO (V/T) =       1.9999426373

          ---------------------------------------
          MULLIKEN AND LOWDIN POPULATION ANALYSES
          ---------------------------------------

     ATOMIC MULLIKEN POPULATION IN EACH MOLECULAR ORBITAL

                      1          2          3          4          5

                  2.000000   2.000000   2.000000   2.000000   2.000000

    1            -0.000028   0.001242   1.995956   0.022035   0.647090
    2             0.002243   2.000573   0.001640   0.524486   0.089032
    3             1.997757  -0.002758   0.000011   1.447958   0.027994
    4             0.000029   0.000898   0.000011  -0.001551   0.000405
    5            -0.000000   0.000040  -0.000137   0.003712   0.587037
    6            -0.000000  -0.000012   0.001367   0.003097   0.633458
    7            -0.000001   0.000017   0.001152   0.000263   0.014983

                      6          7          8          9         10

                  2.000000   2.000000   2.000000   2.000000   2.000000

    1             0.548243   0.525016   0.485913   0.270459   0.068885
    2             0.854773   0.585806   0.543632   0.423307   0.653566
    3             0.192531   0.268085   0.556763   1.172317   1.202301
    4             0.139444   0.282076   0.160692   0.025059   0.001067
    5             0.103351   0.031477   0.006219   0.000218   0.006338
    6             0.087427   0.020933   0.006296   0.001724   0.001968
    7             0.074232   0.286608   0.240486   0.106916   0.065876

                     11         12

                  2.000000   2.000000

    1             0.257249   1.576945
    2             0.069746   0.095866
    3             1.418382   0.024544
    4             0.196900   0.102580
    5             0.001900   0.142943
    6             0.028779   0.055696
    7             0.027044   0.001425

               ----- POPULATIONS IN EACH AO -----
                             MULLIKEN      LOWDIN
              1  C  1  S      1.99642     1.97975
              2  C  1  S      0.68103     0.37863
              3  C  1  X      0.62485     0.55763
              4  C  1  Y      0.93612     0.89478
              5  C  1  Z      0.50216     0.43876
              6  C  1  S      0.64658     0.35690
              7  C  1  X      0.22851     0.35743
              8  C  1  Y      0.62585     0.79676
              9  C  1  Z      0.12102     0.31668
             10  C  1 XX      0.00708     0.16305
             11  C  1 YY      0.00242     0.12325
             12  C  1 ZZ      0.00837     0.18391
             13  C  1 XY      0.01234     0.01354
             14  C  1 XZ      0.00624     0.03153
             15  C  1 YZ      0.00000     0.00889
             16  C  2  S      1.99651     1.97451
             17  C  2  S      0.70376     0.36402
             18  C  2  X      0.73784     0.64242
             19  C  2  Y      0.74566     0.64606
             20  C  2  Z      0.46281     0.41753
             21  C  2  S      0.47673     0.31587
             22  C  2  X      0.11853     0.28685
             23  C  2  Y      0.21970     0.38262
             24  C  2  Z      0.29544     0.33176
             25  C  2 XX      0.00463     0.22099
             26  C  2 YY      0.04246     0.19424
             27  C  2 ZZ      0.02712     0.10450
             28  C  2 XY      0.01014     0.05513
             29  C  2 XZ      0.00333     0.01855
             30  C  2 YZ      0.00000     0.00562
             31  O  3  S      1.99732     1.97778
             32  O  3  S      0.93321     0.72515
             33  O  3  X      1.00217     0.93860
             34  O  3  Y      1.10354     1.05505
             35  O  3  Z      0.74180     0.69032
             36  O  3  S      0.92671     0.46932
             37  O  3  X      0.48781     0.56705
             38  O  3  Y      0.59458     0.65776
             39  O  3  Z      0.49087     0.52938
             40  O  3 XX      0.00222     0.18400
             41  O  3 YY      0.00723     0.17342
             42  O  3 ZZ      0.00715     0.17429
             43  O  3 XY      0.00820     0.01578
             44  O  3 XZ      0.00307     0.01092
             45  O  3 YZ      0.00000     0.00403
             46  H  4  S      0.53595     0.50737
             47  H  4  S      0.37166     0.39686
             48  H  5  S      0.68730     0.56347
             49  H  5  S      0.19580     0.20062
             50  H  6  S      0.71254     0.59654
             51  H  6  S      0.12819     0.19697
             52  H  7  S      0.50621     0.45440
             53  H  7  S      0.31279     0.34875

          ----- MULLIKEN ATOMIC OVERLAP POPULATIONS -----
          (OFF-DIAGONAL ELEMENTS NEED TO BE MULTIPLIED BY 2)

             1           2           3           4           5

    1    5.7000609
    2    0.3729690   4.5887209
    3   -0.0672288   0.5593637   7.8856019
    4   -0.1550697   0.3560116  -0.0744900   0.7725651
    5    0.3305121   0.0140090  -0.0134118   0.0177456   0.9838491
    6   -0.1315605  -0.0176602   0.0137922  -0.0152412  -0.3986705
    7    0.3493210  -0.0287442   0.0022587   0.0060880  -0.0509371

             6           7

    6    1.3568479
    7    0.0332249   0.5077903

          TOTAL MULLIKEN AND LOWDIN ATOMIC POPULATIONS
       ATOM         MULL.POP.    CHARGE          LOW.POP.     CHARGE
    1 C             6.399004   -0.399004         6.601494   -0.601494
    2 C             5.844670    0.155330         5.960671    0.039329
    3 O             8.305886   -0.305886         8.172862   -0.172862
    4 H             0.907609    0.092391         0.904225    0.095775
    5 H             0.883096    0.116904         0.764086    0.235914
    6 H             0.840733    0.159267         0.793517    0.206483
    7 H             0.819002    0.180998         0.803145    0.196855

          MULLIKEN SPHERICAL HARMONIC POPULATIONS
       ATOM           S       P       D      F      G      H      I    TOTAL
    1 C             3.32    3.04    0.04   0.00   0.00   0.00   0.00    6.40
    2 C             3.18    2.58    0.09   0.00   0.00   0.00   0.00    5.84
    3 O             3.86    4.42    0.03   0.00   0.00   0.00   0.00    8.31
    4 H             0.91    0.00    0.00   0.00   0.00   0.00   0.00    0.91
    5 H             0.88    0.00    0.00   0.00   0.00   0.00   0.00    0.88
    6 H             0.84    0.00    0.00   0.00   0.00   0.00   0.00    0.84
    7 H             0.82    0.00    0.00   0.00   0.00   0.00   0.00    0.82

          -------------------------------
          BOND ORDER AND VALENCE ANALYSIS     BOND ORDER THRESHOLD=0.050
          -------------------------------

                   BOND                       BOND                       BOND
  ATOM PAIR DIST  ORDER      ATOM PAIR DIST  ORDER      ATOM PAIR DIST  ORDER
    1   2  1.509  1.095        1   5  1.093  0.615        1   6  1.098  0.336
    1   7  1.098  0.925        2   3  1.211  2.036        2   4  1.115  0.883
    5   6  0.384  0.445

                       TOTAL       BONDED        FREE
      ATOM            VALENCE     VALENCE     VALENCE
    1 C                 2.983       2.983       0.000
    2 C                 4.023       4.023       0.000
    3 O                 2.105       2.105       0.000
    4 H                 0.918       0.918       0.000
    5 H                 1.075       1.075      -0.000
    6 H                 0.795       0.795      -0.000
    7 H                 0.940       0.940      -0.000

          ---------------------
          ELECTROSTATIC MOMENTS
          ---------------------

 POINT   1           X           Y           Z (BOHR)    CHARGE
                -0.000000    0.000000    0.000000        0.00 (A.U.)
         DX          DY          DZ         /D/  (DEBYE)
    -3.006104   -2.174069   -1.223634    3.906471
 ...... END OF PROPERTY EVALUATION ......
 STEP CPU TIME =     0.01 TOTAL CPU TIME =          6.5 (      0.1 MIN)
 TOTAL WALL CLOCK TIME=          6.9 SECONDS, CPU UTILIZATION IS    95.05%
                580000  WORDS OF DYNAMIC MEMORY USED
 EXECUTION OF GAMESS TERMINATED NORMALLY Thu Oct 17 12:46:36 2019
 DDI: 263640 bytes (0.3 MB / 0 MWords) used by master data server.

 ----------------------------------------
 CPU timing information for all processes
 ========================================
 0: 6.390 + 0.147 = 6.538
 ----------------------------------------
 ddikick.x: exited gracefully.
----- accounting info -----
Files used on the master node crcfe01.crc.nd.edu were:
-rw-r--r-- 1 cdrisko campus      490 Oct 17 12:46 /afs/crc.nd.edu/user/c/cdrisko/acetaldehyde.F05
-rw-r--r-- 1 cdrisko campus    45118 Oct 17 12:46 /afs/crc.nd.edu/user/c/cdrisko/acetaldehyde.F07
-rw-r--r-- 1 cdrisko campus 11881056 Oct 17 12:46 /afs/crc.nd.edu/user/c/cdrisko/acetaldehyde.F08
-rw-r--r-- 1 cdrisko campus  1701440 Oct 17 12:46 /afs/crc.nd.edu/user/c/cdrisko/acetaldehyde.F10
Thu Oct 17 12:46:39 EDT 2019
0.394u 0.476s 0:10.59 8.1%	0+0k 0+16io 0pf+0w
