----- GAMESS execution script 'rungms' -----
This job is running on host crcfe02.crc.nd.edu
under operating system Linux at Wed Oct 16 08:13:58 EDT 2019
Available scratch disk space (Kbyte units) at beginning of the job is
Filesystem      1K-blocks  Used  Available Use% Mounted on
AFS            2147483647     0 2147483647   0% /afs
GAMESS temporary binary files will be written to /afs/crc.nd.edu/user/c/cdrisko
GAMESS supplementary output files will be written to /afs/crc.nd.edu/user/c/cdrisko/scr
Copying input file vinylAlcohol_opt.inp to your run's scratch directory...

 Distributed Data Interface kickoff program.
 Initiating 1 compute processes on 1 nodes to run the following command:
 /afs/crc.nd.edu/x86_64_linux/g/gamess/nov-2017/gamess/gamess.00.x vinylAlcohol_opt 

          ******************************************************
          *         GAMESS VERSION = 11 NOV 2017 (R3)         *
          *             FROM IOWA STATE UNIVERSITY             *
          * M.W.SCHMIDT, K.K.BALDRIDGE, J.A.BOATZ, S.T.ELBERT, *
          *   M.S.GORDON, J.H.JENSEN, S.KOSEKI, N.MATSUNAGA,   *
          *          K.A.NGUYEN, S.J.SU, T.L.WINDUS,           *
          *       TOGETHER WITH M.DUPUIS, J.A.MONTGOMERY       *
          *         J.COMPUT.CHEM.  14, 1347-1363(1993)        *
          **************** 64 BIT INTEL VERSION ****************

  SINCE 1993, STUDENTS AND POSTDOCS WORKING AT IOWA STATE UNIVERSITY
  AND ALSO IN THEIR VARIOUS JOBS AFTER LEAVING ISU HAVE MADE IMPORTANT
  CONTRIBUTIONS TO THE CODE:
     IVANA ADAMOVIC, CHRISTINE AIKENS, YURI ALEXEEV, POOJA ARORA,
     ANDREY ASADCHEV, ROB BELL, PRADIPTA BANDYOPADHYAY, JONATHAN BENTZ,
     BRETT BODE, KURT BRORSEN, CALEB CARLIN, GALINA CHABAN, WEI CHEN,
     CHEOL HO CHOI, PAUL DAY, ALBERT DEFUSCO, NUWAN DESILVA, TIM DUDLEY,
     DMITRI FEDOROV, ALEX FINDLATER, GRAHAM FLETCHER, MARK FREITAG,
     KURT GLAESEMANN, ANASTASIA GUININA,
     DAN KEMP, GRANT MERRILL, NORIYUKI MINEZAWA, JONATHAN MULLIN,
     TAKESHI NAGATA, SEAN NEDD, HEATHER NETZLOFF, BOSILJKA NJEGIC, RYAN OLSON,
     MIKE PAK, BUU PHAM,
     SPENCER PRUITT, LUKE ROSKOP, JIM SHOEMAKER, LYUDMILA SLIPCHENKO,
     TONY SMITH, SAROM SOK LEANG, JIE SONG, TETSUYA TAKETSUGU, SIMON WEBB,
     PENG XU, SOOHAENG YOO, FEDERICO ZAHARIEV

  ADDITIONAL CODE HAS BEEN PROVIDED BY COLLABORATORS IN OTHER GROUPS:
     IOWA STATE UNIVERSITY:
          JOE IVANIC, AARON WEST, LAIMUTIS BYTAUTAS, KLAUS RUEDENBERG
     UNIVERSITY OF TOKYO: KIMIHIKO HIRAO, TAKAHITO NAKAJIMA,
          TAKAO TSUNEDA, MUNEAKI KAMIYA, SUSUMU YANAGISAWA,
          KIYOSHI YAGI, MAHITO CHIBA, SEIKEN TOKURA, NAOAKI KAWAKAMI
     UNIVERSITY OF AARHUS: FRANK JENSEN
     UNIVERSITY OF IOWA: VISVALDAS KAIRYS, HUI LI
     NATIONAL INST. OF STANDARDS AND TECHNOLOGY: WALT STEVENS, DAVID GARMER
     UNIVERSITY OF PISA: BENEDETTA MENNUCCI, JACOPO TOMASI
     UNIVERSITY OF MEMPHIS: HENRY KURTZ, PRAKASHAN KORAMBATH
     UNIVERSITY OF ALBERTA: TOBY ZENG, MARIUSZ KLOBUKOWSKI
     UNIVERSITY OF NEW ENGLAND: MARK SPACKMAN
     MIE UNIVERSITY: HIROAKI UMEDA
     NAT. INST. OF ADVANCED INDUSTRIAL SCIENCE AND TECHNOLOGY: KAZUO KITAURA
     MICHIGAN STATE UNIVERSITY:
          KAROL KOWALSKI, MARTA WLOCH, JEFFREY GOUR, JESSE LUTZ,
          WEI LI, PIOTR PIECUCH
     UNIVERSITY OF SILESIA: MONIKA MUSIAL, STANISLAW KUCHARSKI
     FACULTES UNIVERSITAIRES NOTRE-DAME DE LA PAIX:
          OLIVIER QUINET, BENOIT CHAMPAGNE
     UNIVERSITY OF CALIFORNIA - SANTA BARBARA: BERNARD KIRTMAN
     INSTITUTE FOR MOLECULAR SCIENCE:
          KAZUYA ISHIMURA, MICHIO KATOUDA, AND SHIGERU NAGASE
     UNIVERSITY OF NOTRE DAME: ANNA POMOGAEVA, DAN CHIPMAN
     KYUSHU UNIVERSITY:
          HARUYUKI NAKANO,
          FENG LONG GU, JACEK KORCHOWIEC, MARCIN MAKOWSKI, AND YURIKO AOKI,
          HIROTOSHI MORI AND EISAKU MIYOSHI
     PENNSYLVANIA STATE UNIVERSITY:
          TZVETELIN IORDANOV, CHET SWALINA, JONATHAN SKONE,
          SHARON HAMMES-SCHIFFER
     WASEDA UNIVERSITY:
          MASATO KOBAYASHI, TOMOKO AKAMA, TSUGUKI TOUMA,
          TAKESHI YOSHIKAWA, YASUHIRO IKABATA, JUNJI SEINO,
          YUYA NAKAJIMA, HIROMI NAKAI
     NANJING UNIVERSITY: SHUHUA LI
     UNIVERSITY OF NEBRASKA:
          PEIFENG SU, DEJUN SI, NANDUN THELLAMUREGE, YALI WANG, HUI LI
     UNIVERSITY OF ZURICH: ROBERTO PEVERATI, KIM BALDRIDGE
     N. COPERNICUS UNIVERSITY AND JACKSON STATE UNIVERSITY:
          MARIA BARYSZ
     UNIVERSITY OF COPENHAGEN: Jimmy Kromann, CASPER STEINMANN
     TOKYO INSTITUTE OF TECHNOLOGY: HIROYA NAKATA
     NAGOYA UNIVERSITY: YOSHIO NISHIMOTO, STEPHAN IRLE
     MOSCOW STATE UNIVERSITY: VLADIMIR MIRONOV

 EXECUTION OF GAMESS BEGUN Wed Oct 16 08:13:58 2019

            ECHO OF THE FIRST FEW INPUT CARDS -
 INPUT CARD> $CONTRL SCFTYP= RHF RUNTYP=OPTIMIZE DFTTYP=B3LYP                               
 INPUT CARD>       ICHARG=0 MULT=1 COORD=CART $END                                          
 INPUT CARD> $STATPT METHOD=QA OPTTOL=0.0001 HESS=GUESS NSTEP=50 $END                       
 INPUT CARD> $BASIS GBASIS=N31 NGAUSS=6 NDFUNC=1 $END                                       
 INPUT CARD> $DATA                                                                          
 INPUT CARD>Title Geometry Optimization of Vinyl Alcohol                                    
 INPUT CARD>C1 1                                                                            
 INPUT CARD>C 6 0.00000000 0.00000000 0.00000000                                            
 INPUT CARD>C 6 1.30898168 0.00692583 0.00000000                                            
 INPUT CARD>O 8 2.05209806 1.30991395 0.00000000                                            
 INPUT CARD>H 1 1.52229422 2.21645016 0.00000000                                            
 INPUT CARD>H 1 1.85896852 -0.93414509 0.00000000                                           
 INPUT CARD>H 1 -0.53999790 -0.94683803 0.00000000                                          
 INPUT CARD>H 1 -0.54998684 0.94107092 0.00000000                                           
 INPUT CARD> $END                                                                           
    1000000 WORDS OF MEMORY AVAILABLE


                    * * * WARNING * * *
 OLD KEYWORD COORD=CART SELECTED, AUTOMATICALLY CHANGED TO COORD=PRINAXIS.
 YOUR MOLECULE'S COORDINATES WILL BE CHANGED TO PRINCIPAL AXES BY
   A) TRANSLATION TO THE CENTER OF MASS, THEN
   B) ROTATION TO HAVE A DIAGONAL MOMENT OF INERTIA TENSOR.

 HOWEVER, NOTHING ELSE IN YOUR INPUT WILL BE ROTATED IN THE SAME WAY,
 SO IF YOU HAVE A $VEC, $VIB, $GRAD, $HESS, EFP PARTICLE COORDINATES,
 OR ANYTHING ELSE THAT DEPENDS ON THE INITIAL ORIENTATION, THAT DATA
 WILL NOT BE USED CORRECTLY IN THIS RUN.

 THE PURPOSE OF COORD=PRINAXIS IS TO BE USED ONCE, ONLY AT THE VERY
 BEGINNING OF A SERIES OF COMPUTATIONS, PERHAPS TO FIND THE SYMMETRY
 UNIQUE ATOMS FROM AN ARBITRARY INITIAL ORIENTATION.

 AFTER THE FIRST RUN, YOU SHOULD USE ONLY COORD=UNIQUE, TO ENSURE THAT
 THE COORDINATES WHICH YOU READ IN ARE THE COORDINATES THAT ARE USED.


     BASIS OPTIONS
     -------------
     GBASIS=N31          IGAUSS=       6      POLAR=POPN31  
     NDFUNC=       1     NFFUNC=       0     DIFFSP=       F
     NPFUNC=       0      DIFFS=       F     BASNAM=        


     RUN TITLE
     ---------
 Title Geometry Optimization of Vinyl Alcohol                                    

 THE POINT GROUP OF THE MOLECULE IS C1      
 THE ORDER OF THE PRINCIPAL AXIS IS     1

 THE MOMENTS OF INERTIA ARE (AMU-ANGSTROM**2)
 IXX=     9.812   IYY=    49.569   IZZ=    59.381

 ATOM      ATOMIC                      COORDINATES (BOHR)
           CHARGE         X                   Y                   Z
 C           6.0     2.3257785028       -0.5202914618        0.0000000000
 C           6.0     0.3248259103        0.9340604851        0.0000000000
 O           8.0    -2.2649166674       -0.2183838989        0.0000000000
 H           1.0    -2.4726942887       -2.1916874468        0.0000000000
 H           1.0     0.5405188716        2.9825374935        0.0000000000
 H           1.0     4.2076581007        0.3171514544        0.0000000000
 H           1.0     2.1100855415       -2.5687684702        0.0000000000

          INTERNUCLEAR DISTANCES (ANGS.)
          ------------------------------

                1 C          2 C          3 O          4 H          5 H     

   1 C       0.0000000    1.3090000 *  2.4345392 *  2.6888717 *  2.0804786 *
   2 C       1.3090000 *  0.0000000    1.5000000 *  2.2197973 *  1.0900000 *
   3 O       2.4345392 *  1.5000000 *  0.0000000    1.0500000 *  2.2523543 *
   4 H       2.6888717 *  2.2197973 *  1.0500000 *  0.0000000    3.1685328  
   5 H       2.0804786 *  1.0900000 *  2.2523543 *  3.1685328    0.0000000  
   6 H       1.0900000 *  2.0804785 *  3.4368432    3.7761675    2.3990000 *
   7 H       1.0900000 *  2.0804786 *  2.6280965 *  2.4332984 *  3.0527858  

                6 H          7 H     

   1 C       1.0900000 *  1.0900000 *
   2 C       2.0804785 *  2.0804786 *
   3 O       3.4368432    2.6280965 *
   4 H       3.7761675    2.4332984 *
   5 H       2.3990000 *  3.0527858  
   6 H       0.0000000    1.8879354 *
   7 H       1.8879354 *  0.0000000  

  * ... LESS THAN  3.000


     ATOMIC BASIS SET
     ----------------
 THE CONTRACTED PRIMITIVE FUNCTIONS HAVE BEEN UNNORMALIZED
 THE CONTRACTED BASIS FUNCTIONS ARE NOW NORMALIZED TO UNITY

  SHELL TYPE  PRIMITIVE        EXPONENT          CONTRACTION COEFFICIENT(S)

 C         

      1   S       1          3047.5248800    0.001834737132
      1   S       2           457.3695180    0.014037322813
      1   S       3           103.9486850    0.068842622264
      1   S       4            29.2101553    0.232184443216
      1   S       5             9.2866630    0.467941348435
      1   S       6             3.1639270    0.362311985337

      2   L       7             7.8682723   -0.119332419775    0.068999066591
      2   L       8             1.8812885   -0.160854151696    0.316423960957
      2   L       9             0.5442493    1.143456437840    0.744308290898

      3   L      10             0.1687145    1.000000000000    1.000000000000

      4   D      11             0.8000000    1.000000000000

 C         

      5   S      12          3047.5248800    0.001834737132
      5   S      13           457.3695180    0.014037322813
      5   S      14           103.9486850    0.068842622264
      5   S      15            29.2101553    0.232184443216
      5   S      16             9.2866630    0.467941348435
      5   S      17             3.1639270    0.362311985337

      6   L      18             7.8682723   -0.119332419775    0.068999066591
      6   L      19             1.8812885   -0.160854151696    0.316423960957
      6   L      20             0.5442493    1.143456437840    0.744308290898

      7   L      21             0.1687145    1.000000000000    1.000000000000

      8   D      22             0.8000000    1.000000000000

 O         

      9   S      23          5484.6716600    0.001831074430
      9   S      24           825.2349460    0.013950172200
      9   S      25           188.0469580    0.068445078098
      9   S      26            52.9645000    0.232714335992
      9   S      27            16.8975704    0.470192897984
      9   S      28             5.7996353    0.358520852987

     10   L      29            15.5396162   -0.110777549525    0.070874268231
     10   L      30             3.5999336   -0.148026262701    0.339752839147
     10   L      31             1.0137618    1.130767015354    0.727158577316

     11   L      32             0.2700058    1.000000000000    1.000000000000

     12   D      33             0.8000000    1.000000000000

 H         

     13   S      34            18.7311370    0.033494604338
     13   S      35             2.8253944    0.234726953484
     13   S      36             0.6401217    0.813757326146

     14   S      37             0.1612778    1.000000000000

 H         

     15   S      38            18.7311370    0.033494604338
     15   S      39             2.8253944    0.234726953484
     15   S      40             0.6401217    0.813757326146

     16   S      41             0.1612778    1.000000000000

 H         

     17   S      42            18.7311370    0.033494604338
     17   S      43             2.8253944    0.234726953484
     17   S      44             0.6401217    0.813757326146

     18   S      45             0.1612778    1.000000000000

 H         

     19   S      46            18.7311370    0.033494604338
     19   S      47             2.8253944    0.234726953484
     19   S      48             0.6401217    0.813757326146

     20   S      49             0.1612778    1.000000000000

 TOTAL NUMBER OF BASIS SET SHELLS             =   20
 NUMBER OF CARTESIAN GAUSSIAN BASIS FUNCTIONS =   53
 NUMBER OF ELECTRONS                          =   24
 CHARGE OF MOLECULE                           =    0
 SPIN MULTIPLICITY                            =    1
 NUMBER OF OCCUPIED ORBITALS (ALPHA)          =   12
 NUMBER OF OCCUPIED ORBITALS (BETA )          =   12
 TOTAL NUMBER OF ATOMS                        =    7
 THE NUCLEAR REPULSION ENERGY IS       67.8015024989

     LEBEDEV GRID-BASED DFT OPTIONS
     ------------------------------
     DFTTYP=B3LYP   
     NRAD  =      96     NLEB  =     302
     NRAD0 =      24     NLEB0 =     110
     SWOFF =    5.00E-03 (PURE SCF -> DFT)
     SWITCH=    3.00E-04 (COARSE -> TIGHT GRID)
     THRESH=    0.00E+00 GTHRE=    1.00E+00

 GRIMME'S EMPIRICAL DISPERSION CORRECTION= F

     $CONTRL OPTIONS
     ---------------
 SCFTYP=RHF          RUNTYP=OPTIMIZE     EXETYP=RUN     
 MPLEVL=       0     CITYP =NONE         CCTYP =NONE         VBTYP =NONE    
 DFTTYP=B3LYP        TDDFT =NONE    
 MULT  =       1     ICHARG=       0     NZVAR =       0     COORD =PRINAXIS
 PP    =NONE         RELWFN=NONE         LOCAL =NONE         NUMGRD=       F
 ISPHER=      -1     NOSYM =       0     MAXIT =      30     UNITS =ANGS    
 PLTORB=       F     MOLPLT=       F     AIMPAC=       F     FRIEND=        
 NPRINT=       7     IREST =       0     GEOM  =INPUT   
 NORMF =       0     NORMP =       0     ITOL  =      20     ICUT  =       9
 INTTYP=BEST         GRDTYP=BEST         QMTTOL= 1.0E-06

     $SYSTEM OPTIONS
     ---------------
  REPLICATED MEMORY=     1000000 WORDS (ON EVERY NODE).
 DISTRIBUTED MEMDDI=           0 MILLION WORDS IN AGGREGATE,
 MEMDDI DISTRIBUTED OVER   1 PROCESSORS IS           0 WORDS/PROCESSOR.
 TOTAL MEMORY REQUESTED ON EACH PROCESSOR=     1000000 WORDS.
 TIMLIM=      525600.00 MINUTES, OR     365.0 DAYS.
 PARALL= F  BALTYP=  DLB     KDIAG=    0  COREFL= F
 MXSEQ2=     300 MXSEQ3=     150  mem10=         0

          ----------------
          PROPERTIES INPUT
          ----------------

     MOMENTS            FIELD           POTENTIAL          DENSITY
 IEMOM =       1   IEFLD =       0   IEPOT =       0   IEDEN =       0
 WHERE =COMASS     WHERE =NUCLEI     WHERE =NUCLEI     WHERE =NUCLEI  
 OUTPUT=BOTH       OUTPUT=BOTH       OUTPUT=BOTH       OUTPUT=BOTH    
 IEMINT=       0   IEFINT=       0                     IEDINT=       0
                                                       MORB  =       0
          EXTRAPOLATION IN EFFECT
          DIIS IN EFFECT
 ORBITAL PRINTING OPTION: NPREO=     1    53     2     1

     -------------------------------
     INTEGRAL TRANSFORMATION OPTIONS
     -------------------------------
     NWORD  =            0
     CUTOFF = 1.0E-09     MPTRAN =       0
     DIRTRF =       F     AOINTS =DUP     

          ----------------------
          INTEGRAL INPUT OPTIONS
          ----------------------
 NOPK  =       1 NORDER=       0 SCHWRZ=       T

     ------------------------------------------
     THE POINT GROUP IS C1 , NAXIS= 1, ORDER= 1
     ------------------------------------------

     DIMENSIONS OF THE SYMMETRY SUBSPACES ARE
 A   =   53

 ..... DONE SETTING UP THE RUN .....
 STEP CPU TIME =     0.01 TOTAL CPU TIME =          0.0 (      0.0 MIN)
 TOTAL WALL CLOCK TIME=          0.0 SECONDS, CPU UTILIZATION IS    50.00%


          -----------------------------
          STATIONARY POINT LOCATION RUN
          -----------------------------

 OBTAINING INITIAL HESSIAN, HESS=GUESS   
 CARTESIAN COORDINATE OPTIMIZATION USING BADGER'S RULE FORCE CONSTANT GUESS

          PARAMETERS CONTROLLING GEOMETRY SEARCH ARE
          METHOD =QA                  UPHESS =BFGS    
          NNEG   =         0          NFRZ   =         0
          NSTEP  =        50          IFOLOW =         1
          HESS   =GUESS               RESTAR =         F
          IHREP  =         0          HSSEND =         F
          NPRT   =         0          NPUN   =         0
          OPTTOL = 1.000E-04          RMIN   = 1.500E-03
          RMAX   = 1.000E-01          RLIM   = 7.000E-02
          DXMAX  = 3.000E-01          PURIFY =         F
          MOVIE  =         F          TRUPD  =         T
          TRMAX  = 5.000E-01          TRMIN  = 5.000E-02
          ITBMAT =         5          STPT   =         F
          STSTEP = 1.000E-02          PROJCT=          T

 BEGINNING GEOMETRY SEARCH POINT NSERCH=   0 ...

 COORDINATES OF ALL ATOMS ARE (ANGS)
   ATOM   CHARGE       X              Y              Z
 ------------------------------------------------------------
 C           6.0   1.2307490704  -0.2753264046   0.0000000000
 C           6.0   0.1718904817   0.4942835581   0.0000000000
 O           8.0  -1.1985423718  -0.1155637909   0.0000000000
 H           1.0  -1.3084935619  -1.1597911343   0.0000000000
 H           1.0   0.2860302896   1.5782909865   0.0000000000
 H           1.0   2.2265969395   0.1678293342   0.0000000000
 H           1.0   1.1166092625  -1.3593338330   0.0000000000

          ********************
          1 ELECTRON INTEGRALS
          ********************
 ...... END OF ONE-ELECTRON INTEGRALS ......
 STEP CPU TIME =     0.00 TOTAL CPU TIME =          0.0 (      0.0 MIN)
 TOTAL WALL CLOCK TIME=          0.0 SECONDS, CPU UTILIZATION IS    50.00%

          -------------
          GUESS OPTIONS
          -------------
          GUESS =HUCKEL            NORB  =       0          NORDER=       0
          MIX   =       F          PRTMO =       F          PUNMO =       F
          TOLZ  = 1.0E-08          TOLE  = 1.0E-05
          SYMDEN=       F          PURIFY=       F

 INITIAL GUESS ORBITALS GENERATED BY HUCKEL   ROUTINE.
 HUCKEL GUESS REQUIRES     27154 WORDS.

 SYMMETRIES FOR INITIAL GUESS ORBITALS FOLLOW.   BOTH SET(S).
    12 ORBITALS ARE OCCUPIED (    3 CORE ORBITALS).
     4=A        5=A        6=A        7=A        8=A        9=A       10=A   
    11=A       12=A       13=A       14=A       15=A       16=A       17=A   
    18=A       19=A       20=A       21=A       22=A   
 ...... END OF INITIAL ORBITAL SELECTION ......
 STEP CPU TIME =     0.01 TOTAL CPU TIME =          0.0 (      0.0 MIN)
 TOTAL WALL CLOCK TIME=          0.0 SECONDS, CPU UTILIZATION IS    66.67%

                    ----------------------
                    AO INTEGRAL TECHNOLOGY
                    ----------------------
     S,P,L SHELL ROTATED AXIS INTEGRALS, REPROGRAMMED BY
        KAZUYA ISHIMURA (IMS) AND JOSE SIERRA (SYNSTAR).
     S,P,D,L SHELL ROTATED AXIS INTEGRALS PROGRAMMED BY
        KAZUYA ISHIMURA (INSTITUTE FOR MOLECULAR SCIENCE).
     S,P,D,F,G SHELL TO TOTAL QUARTET ANGULAR MOMENTUM SUM 5,
        ERIC PROGRAM BY GRAHAM FLETCHER (ELORET AND NASA ADVANCED
        SUPERCOMPUTING DIVISION, AMES RESEARCH CENTER).
     S,P,D,F,G,L SHELL GENERAL RYS QUADRATURE PROGRAMMED BY
        MICHEL DUPUIS (PACIFIC NORTHWEST NATIONAL LABORATORY).

          --------------------
          2 ELECTRON INTEGRALS
          --------------------

 THE -PK- OPTION IS OFF, THE INTEGRALS ARE NOT IN SUPERMATRIX FORM.
 STORING   15000 INTEGRALS/RECORD ON DISK, USING 12 BYTES/INTEGRAL.
 TWO ELECTRON INTEGRAL EVALUATION REQUIRES   90606 WORDS OF MEMORY.
 SCHWARZ INEQUALITY OVERHEAD:      1430 INTEGRALS, T=        0.00
 II,JST,KST,LST =  1  1  1  1 NREC =         1 INTLOC =    1
 II,JST,KST,LST =  2  1  1  1 NREC =         1 INTLOC =    2
 II,JST,KST,LST =  3  1  1  1 NREC =         1 INTLOC =   34
 II,JST,KST,LST =  4  1  1  1 NREC =         1 INTLOC =  214
 II,JST,KST,LST =  5  1  1  1 NREC =         1 INTLOC = 1189
 II,JST,KST,LST =  6  1  1  1 NREC =         1 INTLOC = 2364
 II,JST,KST,LST =  7  1  1  1 NREC =         1 INTLOC = 9259
 II,JST,KST,LST =  8  1  1  1 NREC =         2 INTLOC = 6298
 II,JST,KST,LST =  9  1  1  1 NREC =         4 INTLOC = 7025
 II,JST,KST,LST = 10  1  1  1 NREC =         4 INTLOC =14030
 II,JST,KST,LST = 11  1  1  1 NREC =         7 INTLOC = 8033
 II,JST,KST,LST = 12  1  1  1 NREC =        11 INTLOC = 3494
 II,JST,KST,LST = 13  1  1  1 NREC =        18 INTLOC =14679
 II,JST,KST,LST = 14  1  1  1 NREC =        20 INTLOC =11294
 II,JST,KST,LST = 15  1  1  1 NREC =        22 INTLOC =10258
 II,JST,KST,LST = 16  1  1  1 NREC =        24 INTLOC =11085
 II,JST,KST,LST = 17  1  1  1 NREC =        26 INTLOC =14363
 II,JST,KST,LST = 18  1  1  1 NREC =        29 INTLOC = 1423
 II,JST,KST,LST = 19  1  1  1 NREC =        31 INTLOC = 9220
 II,JST,KST,LST = 20  1  1  1 NREC =        34 INTLOC = 4084
 SCHWARZ INEQUALITY TEST SKIPPED         755 INTEGRAL BLOCKS.
 TOTAL NUMBER OF NONZERO TWO-ELECTRON INTEGRALS =              542232
         37 INTEGRAL RECORDS WERE STORED ON DISK FILE  8.
  ...... END OF TWO-ELECTRON INTEGRALS .....
 STEP CPU TIME =     0.09 TOTAL CPU TIME =          0.1 (      0.0 MIN)
 TOTAL WALL CLOCK TIME=          0.1 SECONDS, CPU UTILIZATION IS    91.67%

          --------------------------
             R-B3LYP SCF CALCULATION
          --------------------------

     NUCLEAR ENERGY =        67.8015024989
     MAXIT =   30     NPUNCH=    2
     EXTRAP=T  DAMP=F  SHIFT=F  RSTRCT=F  DIIS=T  DEM=F  SOSCF=F
         DENSITY MATRIX CONVERGENCE THRESHOLD=  1.00E-05
     COARSE -> FINE DFT GRID SWITCH THRESHOLD=  3.00E-04 (SWITCH IN $DFT)
                   HF -> DFT SWITCH THRESHOLD=  5.00E-03 (SWOFF IN $DFT)
     MEMORY REQUIRED FOR RHF ITERS=    307447 WORDS.

 DFT CODE IS SWITCHING FROM THE FINE GRID NRAD= 96,  NLEB=  302
                      TO THE COARSE GRID NRAD0= 24, NLEB0=  110

     EXCHANGE FUNCTIONAL   =B88&HFX   
     CORRELATION FUNCTIONAL=LYP88&VWN5
     DFT THRESHOLD         =.197E-07
     GRID CHANGE THRESHOLD =.300E-03
 FOR AN EULER-MACLAURIN QUADRATURE USING  96 RADIAL POINTS:
 SMALLEST GAUSSIAN PRIMITIVE EXPONENT=        0.1612777588 OF TYPE -S-
 ON ATOM NUMBER   4 HAS RADIAL NORMALIZATION=  1.000000
  LARGEST GAUSSIAN PRIMITIVE EXPONENT=     5484.6716600000 OF TYPE -S-
 ON ATOM NUMBER   3 HAS RADIAL NORMALIZATION=  1.000000
 DFT IS SWITCHED OFF, PERFORMING PURE SCF UNTIL SWOFF THRESHOLD IS REACHED.

 ITER EX DEM     TOTAL ENERGY        E CHANGE  DENSITY CHANGE    DIIS ERROR
   1  0  0     -152.4463908810  -152.4463908810   0.231570567   0.685671294
          * * *   INITIATING DIIS PROCEDURE   * * *
   2  1  0     -152.8287000535    -0.3823091725   0.071500305   0.076552029
   3  2  0     -152.8501493459    -0.0214492925   0.025423591   0.022944157
   4  3  0     -152.8528600062    -0.0027106603   0.011153289   0.009386234
   5  4  0     -152.8534188146    -0.0005588084   0.002666205   0.002438748
 CONVERGED TO SWOFF, SO DFT CALCULATION IS NOW SWITCHED ON.
          * * *   INITIATING DIIS PROCEDURE   * * *
   6  5  0     -153.6732557714    -0.8198369568   0.097425445   0.085863329
   7  6  0     -153.6877151558    -0.0144593844   0.035946781   0.024183163
   8  7  0     -153.6878277829    -0.0001126270   0.019289760   0.021827235
   9  8  0     -153.6899454357    -0.0021176529   0.004633642   0.005625498
  10  9  0     -153.6900286546    -0.0000832188   0.000729237   0.000654666
  11 10  0     -153.6900298034    -0.0000011489   0.000370954   0.000257446
  12 11  0     -153.6900300589    -0.0000002555   0.000125948   0.000112780
 DFT CODE IS SWITCHING BACK TO THE FINE GRID
          * * *   INITIATING DIIS PROCEDURE   * * *
  13 12  0     -153.6893440419     0.0006860170   0.001449202   0.001521869
  14 13  0     -153.6893512266    -0.0000071847   0.001194126   0.000568617
  15 14  0     -153.6893504550     0.0000007716   0.000644294   0.000700025
  16 15  0     -153.6893522106    -0.0000017557   0.000097070   0.000037114
  17 16  0     -153.6893522191    -0.0000000084   0.000036088   0.000034038
  18 17  0     -153.6893522227    -0.0000000036   0.000008611   0.000006423
  19 18  0     -153.6893522228    -0.0000000001   0.000001481   0.000001950

          -----------------
          DENSITY CONVERGED
          -----------------
     TIME TO FORM FOCK OPERATORS=       4.8 SECONDS (       0.3 SEC/ITER)
     TIME TO SOLVE SCF EQUATIONS=       0.0 SECONDS (       0.0 SEC/ITER)

 FINAL R-B3LYP ENERGY IS     -153.6893522228 AFTER  19 ITERATIONS
 DFT EXCHANGE + CORRELATION ENERGY =       -16.7551257596
 TOTAL ELECTRON NUMBER             =        23.9999689079

          ------------
          EIGENVECTORS
          ------------

                      1          2          3          4          5
                  -19.1585   -10.2437   -10.1720    -0.9789    -0.7531
                     A          A          A          A          A   
    1  C  1  S    0.000008   0.006991   0.992638  -0.022331  -0.164303
    2  C  1  S    0.000109  -0.000319   0.049604   0.041033   0.313051
    3  C  1  X    0.000030   0.000251  -0.000126  -0.029481  -0.080663
    4  C  1  Y    0.000010  -0.000183   0.000077   0.010076   0.071081
    5  C  1  Z    0.000000   0.000000   0.000000   0.000000   0.000000
    6  C  1  S   -0.000453   0.005361  -0.013534   0.039847   0.236661
    7  C  1  X   -0.000165  -0.001874   0.001147  -0.022487  -0.007262
    8  C  1  Y   -0.000578   0.001709  -0.000641  -0.008184  -0.002410
    9  C  1  Z    0.000000   0.000000   0.000000   0.000000   0.000000
   10  C  1 XX   -0.000058  -0.000204  -0.009371   0.004317   0.004356
   11  C  1 YY   -0.000069  -0.000203  -0.009455  -0.000776   0.003920
   12  C  1 ZZ    0.000037  -0.000236  -0.009893  -0.002642  -0.017329
   13  C  1 XY    0.000022  -0.000105  -0.000172  -0.002056  -0.003506
   14  C  1 XZ    0.000000   0.000000   0.000000   0.000000   0.000000
   15  C  1 YZ    0.000000   0.000000   0.000000   0.000000   0.000000
   16  C  2  S    0.000005   0.992792  -0.007559  -0.069501  -0.143756
   17  C  2  S    0.000022   0.048241  -0.000964   0.135407   0.290765
   18  C  2  X   -0.000295  -0.000608  -0.000325  -0.071773   0.145892
   19  C  2  Y   -0.000135  -0.000146   0.000287  -0.045769  -0.044040
   20  C  2  Z    0.000000   0.000000   0.000000   0.000000   0.000000
   21  C  2  S   -0.001138  -0.012377   0.005190   0.041156   0.192948
   22  C  2  X    0.001419  -0.002004   0.001625   0.003254   0.034255
   23  C  2  Y    0.000428   0.000647  -0.001452   0.029698   0.014634
   24  C  2  Z    0.000000   0.000000   0.000000   0.000000   0.000000
   25  C  2 XX    0.000384  -0.008988  -0.000211   0.010450  -0.003491
   26  C  2 YY    0.000089  -0.009141  -0.000186  -0.001224   0.002561
   27  C  2 ZZ    0.000074  -0.009546  -0.000091  -0.009334  -0.014859
   28  C  2 XY    0.000109  -0.000018   0.000014   0.010392  -0.010888
   29  C  2 XZ    0.000000   0.000000   0.000000   0.000000   0.000000
   30  C  2 YZ    0.000000   0.000000   0.000000   0.000000   0.000000
   31  O  3  S    0.992853  -0.000062  -0.000000  -0.206849   0.056846
   32  O  3  S    0.025905   0.000027  -0.000042   0.457118  -0.133948
   33  O  3  X    0.000709  -0.000017  -0.000014   0.074659   0.056924
   34  O  3  Y   -0.000646   0.000017  -0.000003  -0.052266   0.061763
   35  O  3  Z    0.000000   0.000000   0.000000   0.000000   0.000000
   36  O  3  S    0.011121   0.000909  -0.000152   0.474018  -0.142437
   37  O  3  X    0.000341  -0.000374  -0.000076   0.048513   0.036378
   38  O  3  Y    0.000310  -0.000457   0.000030  -0.031866   0.033665
   39  O  3  Z    0.000000   0.000000   0.000000   0.000000   0.000000
   40  O  3 XX   -0.007890  -0.000662   0.000065   0.006017   0.009761
   41  O  3 YY   -0.007879  -0.000114   0.000005   0.014685  -0.010531
   42  O  3 ZZ   -0.007822   0.000102  -0.000057  -0.012606  -0.000411
   43  O  3 XY   -0.000019  -0.000383  -0.000010   0.007120   0.000615
   44  O  3 XZ    0.000000   0.000000   0.000000   0.000000   0.000000
   45  O  3 YZ    0.000000   0.000000   0.000000   0.000000   0.000000
   46  H  4  S    0.000417  -0.000147  -0.000008   0.112029  -0.060964
   47  H  4  S   -0.001042  -0.000054  -0.000009   0.006305  -0.010450
   48  H  5  S    0.000052  -0.000332  -0.000050   0.019808   0.085157
   49  H  5  S   -0.000097   0.002096   0.000079  -0.012205   0.013210
   50  H  6  S    0.000083  -0.000104  -0.000336   0.006189   0.089541
   51  H  6  S    0.000150  -0.000009   0.002086   0.007433   0.021882
   52  H  7  S   -0.000040  -0.000090  -0.000313   0.008419   0.082867
   53  H  7  S   -0.000149   0.000287   0.002216  -0.002019   0.012362

                      6          7          8          9         10
                   -0.5842    -0.4886    -0.4573    -0.3880    -0.3433
                     A          A          A          A          A   
    1  C  1  S    0.108732  -0.017926  -0.025281  -0.015614   0.000000
    2  C  1  S   -0.213257   0.036931   0.053853   0.031870   0.000000
    3  C  1  X   -0.081039  -0.064770   0.380309   0.049576   0.000000
    4  C  1  Y    0.096203  -0.231329  -0.063227   0.361731   0.000000
    5  C  1  Z    0.000000   0.000000   0.000000   0.000000   0.188789
    6  C  1  S   -0.213971   0.056341   0.068179   0.048127   0.000000
    7  C  1  X   -0.025885  -0.027882   0.153301   0.019924   0.000000
    8  C  1  Y    0.025311  -0.083677  -0.008739   0.134015   0.000000
    9  C  1  Z    0.000000   0.000000   0.000000   0.000000   0.113396
   10  C  1 XX    0.000235  -0.000061   0.004270   0.018073   0.000000
   11  C  1 YY   -0.004945   0.001915   0.005618  -0.023844   0.000000
   12  C  1 ZZ    0.010442  -0.001439  -0.001537  -0.001359   0.000000
   13  C  1 XY   -0.010972   0.004172   0.016639   0.001463   0.000000
   14  C  1 XZ    0.000000   0.000000   0.000000   0.000000  -0.010576
   15  C  1 YZ    0.000000   0.000000   0.000000   0.000000   0.006061
   16  C  2  S   -0.108635   0.019038   0.048103   0.010195   0.000000
   17  C  2  S    0.228178  -0.039441  -0.107845  -0.020158   0.000000
   18  C  2  X   -0.125788  -0.222330  -0.166950   0.071882   0.000000
   19  C  2  Y    0.155398  -0.237697   0.231301  -0.269498   0.000000
   20  C  2  Z    0.000000   0.000000   0.000000   0.000000   0.312767
   21  C  2  S    0.216422  -0.041879  -0.050868  -0.051909   0.000000
   22  C  2  X   -0.022810  -0.073400  -0.050673   0.025685   0.000000
   23  C  2  Y    0.052176  -0.075509   0.049129  -0.068878   0.000000
   24  C  2  Z    0.000000   0.000000   0.000000   0.000000   0.198048
   25  C  2 XX   -0.001322   0.015312   0.014202   0.024436   0.000000
   26  C  2 YY    0.004543  -0.010242  -0.000156  -0.029090   0.000000
   27  C  2 ZZ   -0.011259  -0.000121   0.002203   0.000387   0.000000
   28  C  2 XY    0.009690   0.003492   0.007002   0.000386   0.000000
   29  C  2 XZ    0.000000   0.000000   0.000000   0.000000  -0.005596
   30  C  2 YZ    0.000000   0.000000   0.000000   0.000000  -0.009754
   31  O  3  S    0.012073  -0.001086  -0.038720  -0.026093   0.000000
   32  O  3  S   -0.027080   0.006194   0.090899   0.052942   0.000000
   33  O  3  X    0.135590   0.240051  -0.059879   0.067023   0.000000
   34  O  3  Y    0.232428   0.262442   0.224573   0.128133   0.000000
   35  O  3  Z    0.000000   0.000000   0.000000   0.000000   0.476970
   36  O  3  S   -0.037533   0.000216   0.134967   0.134952   0.000000
   37  O  3  X    0.067361   0.129607  -0.055872   0.044894   0.000000
   38  O  3  Y    0.120414   0.140111   0.130886   0.074839   0.000000
   39  O  3  Z    0.000000   0.000000   0.000000   0.000000   0.337849
   40  O  3 XX    0.012509   0.016449  -0.007245   0.003612   0.000000
   41  O  3 YY   -0.014401  -0.020639  -0.006480  -0.015232   0.000000
   42  O  3 ZZ    0.001667   0.001451   0.003336  -0.002918   0.000000
   43  O  3 XY    0.007709  -0.001383   0.010505   0.000374   0.000000
   44  O  3 XZ    0.000000   0.000000   0.000000   0.000000   0.019667
   45  O  3 YZ    0.000000   0.000000   0.000000   0.000000  -0.010245
   46  H  4  S   -0.131963  -0.161344  -0.095432  -0.084438   0.000000
   47  H  4  S   -0.067165  -0.100186  -0.070051  -0.088929   0.000000
   48  H  5  S    0.160540  -0.159945   0.071459  -0.203631   0.000000
   49  H  5  S    0.074288  -0.107894   0.073076  -0.194594   0.000000
   50  H  6  S   -0.107202  -0.060918   0.217291   0.145356   0.000000
   51  H  6  S   -0.049708  -0.041978   0.151730   0.124476   0.000000
   52  H  7  S   -0.133363   0.141657   0.046235  -0.238588   0.000000
   53  H  7  S   -0.071214   0.088631   0.034735  -0.231665   0.000000

                     11         12         13         14         15
                   -0.3263    -0.2327     0.0371     0.0458     0.1182
                     A          A          A          A          A   
    1  C  1  S    0.027298   0.000000   0.000000   0.017698   0.075248
    2  C  1  S   -0.057257   0.000000   0.000000  -0.038608  -0.106366
    3  C  1  X    0.203550   0.000000   0.000000   0.000195  -0.115545
    4  C  1  Y    0.009654   0.000000   0.000000   0.043485   0.186167
    5  C  1  Z    0.000000  -0.378938  -0.391643   0.000000   0.000000
    6  C  1  S   -0.134498   0.000000   0.000000   0.007080  -1.266007
    7  C  1  X    0.057860   0.000000   0.000000  -0.111611  -0.276775
    8  C  1  Y   -0.025841   0.000000   0.000000   0.137172   0.661531
    9  C  1  Z    0.000000  -0.299426  -0.630249   0.000000   0.000000
   10  C  1 XX    0.011613   0.000000   0.000000   0.012002  -0.006150
   11  C  1 YY   -0.005714   0.000000   0.000000  -0.013549   0.018113
   12  C  1 ZZ    0.001356   0.000000   0.000000   0.003301   0.001971
   13  C  1 XY    0.008327   0.000000   0.000000   0.004093   0.005569
   14  C  1 XZ    0.000000   0.009504  -0.020859   0.000000   0.000000
   15  C  1 YZ    0.000000  -0.008933   0.017023   0.000000   0.000000
   16  C  2  S   -0.010416   0.000000   0.000000  -0.053220   0.082976
   17  C  2  S    0.023877   0.000000   0.000000   0.105715  -0.152689
   18  C  2  X   -0.215436   0.000000   0.000000  -0.197771   0.225900
   19  C  2  Y    0.028900   0.000000   0.000000  -0.043820  -0.050165
   20  C  2  Z    0.000000  -0.280807   0.476875   0.000000   0.000000
   21  C  2  S    0.045552   0.000000   0.000000   0.314190  -1.080755
   22  C  2  X   -0.005170   0.000000   0.000000  -0.369557   0.314565
   23  C  2  Y   -0.024832   0.000000   0.000000   0.106580  -0.307873
   24  C  2  Z    0.000000  -0.157078   0.631348   0.000000   0.000000
   25  C  2 XX   -0.000647   0.000000   0.000000  -0.005482   0.022334
   26  C  2 YY    0.007066   0.000000   0.000000  -0.009978  -0.003811
   27  C  2 ZZ   -0.001812   0.000000   0.000000   0.004679  -0.005839
   28  C  2 XY    0.020554   0.000000   0.000000  -0.014792   0.018291
   29  C  2 XZ    0.000000  -0.028777  -0.009599   0.000000   0.000000
   30  C  2 YZ    0.000000   0.002576   0.021843   0.000000   0.000000
   31  O  3  S    0.057909   0.000000   0.000000   0.100632  -0.030008
   32  O  3  S   -0.117731   0.000000   0.000000  -0.153057   0.068559
   33  O  3  X    0.464483   0.000000   0.000000  -0.136305   0.177578
   34  O  3  Y   -0.288225   0.000000   0.000000   0.249697   0.190739
   35  O  3  Z    0.000000   0.423917  -0.180046   0.000000   0.000000
   36  O  3  S   -0.250720   0.000000   0.000000  -1.030692   0.207123
   37  O  3  X    0.335631   0.000000   0.000000  -0.179164   0.278587
   38  O  3  Y   -0.184706   0.000000   0.000000   0.364933   0.316333
   39  O  3  Z    0.000000   0.338687  -0.203117   0.000000   0.000000
   40  O  3 XX    0.019313   0.000000   0.000000   0.035705   0.000379
   41  O  3 YY    0.015102   0.000000   0.000000   0.028636  -0.014006
   42  O  3 ZZ   -0.001518   0.000000   0.000000   0.039329   0.000286
   43  O  3 XY   -0.016741   0.000000   0.000000   0.013485  -0.013716
   44  O  3 XZ    0.000000   0.005195   0.008040   0.000000   0.000000
   45  O  3 YZ    0.000000  -0.012929   0.015208   0.000000   0.000000
   46  H  4  S    0.121308   0.000000   0.000000   0.187130  -0.023692
   47  H  4  S    0.104906   0.000000   0.000000   1.152202   0.308865
   48  H  5  S    0.032608   0.000000   0.000000  -0.085893   0.032523
   49  H  5  S    0.044549   0.000000   0.000000  -0.375223   0.797291
   50  H  6  S    0.119241   0.000000   0.000000   0.056427   0.005424
   51  H  6  S    0.158719   0.000000   0.000000   0.180496   0.543525
   52  H  7  S   -0.051368   0.000000   0.000000  -0.045207   0.085684
   53  H  7  S   -0.029013   0.000000   0.000000   0.095410   1.353596

                     16         17         18         19         20
                    0.1280     0.1666     0.2647     0.3516     0.4933
                     A          A          A          A          A   
    1  C  1  S    0.013723  -0.113151   0.016471   0.078217  -0.002942
    2  C  1  S   -0.030485   0.168015  -0.041314   0.000518  -0.226232
    3  C  1  X   -0.205333   0.136107   0.172032   0.042853   0.421841
    4  C  1  Y   -0.196711  -0.011904   0.284368  -0.037834  -0.331402
    5  C  1  Z    0.000000   0.000000   0.000000   0.000000   0.000000
    6  C  1  S   -0.110355   1.786194  -0.007490  -3.246216  -0.752232
    7  C  1  X   -0.594554   0.337711   0.948880   2.601390  -0.336141
    8  C  1  Y   -0.434978   0.282625   1.436684  -1.629842   0.239849
    9  C  1  Z    0.000000   0.000000   0.000000   0.000000   0.000000
   10  C  1 XX    0.022643  -0.007588   0.019785   0.009910  -0.015990
   11  C  1 YY   -0.021842  -0.002527  -0.025691  -0.021439  -0.011386
   12  C  1 ZZ   -0.000069  -0.007850   0.003460   0.015047  -0.000126
   13  C  1 XY    0.011112   0.004170   0.003827  -0.035458   0.044590
   14  C  1 XZ    0.000000   0.000000   0.000000   0.000000   0.000000
   15  C  1 YZ    0.000000   0.000000   0.000000   0.000000   0.000000
   16  C  2  S    0.028722   0.103233  -0.031138  -0.076316  -0.044585
   17  C  2  S   -0.037067  -0.176726   0.033821   0.087262  -0.018860
   18  C  2  X   -0.157213   0.077397  -0.248336   0.157281  -0.577461
   19  C  2  Y   -0.303751  -0.088077  -0.265547  -0.276935   0.031164
   20  C  2  Z    0.000000   0.000000   0.000000   0.000000   0.000000
   21  C  2  S   -0.743350  -1.471062  -0.016015   3.425405   0.145047
   22  C  2  X   -0.314432  -0.232529  -1.215949   1.942888   1.603326
   23  C  2  Y   -0.532111  -0.387158  -1.176345  -1.792632  -0.485896
   24  C  2  Z    0.000000   0.000000   0.000000   0.000000   0.000000
   25  C  2 XX   -0.024944   0.026259  -0.003645   0.006955  -0.065921
   26  C  2 YY    0.020674  -0.001531  -0.017027   0.001730  -0.014880
   27  C  2 ZZ    0.007159   0.000192   0.014062  -0.006055   0.028487
   28  C  2 XY   -0.013490   0.003892  -0.008788   0.006432   0.036420
   29  C  2 XZ    0.000000   0.000000   0.000000   0.000000   0.000000
   30  C  2 YZ    0.000000   0.000000   0.000000   0.000000   0.000000
   31  O  3  S    0.020740   0.001890   0.045963   0.005102  -0.009928
   32  O  3  S   -0.056631   0.039847  -0.041128   0.023452  -0.071396
   33  O  3  X   -0.161056   0.182351  -0.204985  -0.020373  -0.229654
   34  O  3  Y   -0.050904   0.179861  -0.204432   0.100378   0.038686
   35  O  3  Z    0.000000   0.000000   0.000000   0.000000   0.000000
   36  O  3  S   -0.159827  -0.212526  -0.728413  -0.127174   0.590122
   37  O  3  X   -0.226411   0.174221  -0.564924  -0.130045   0.161817
   38  O  3  Y   -0.060389   0.289416  -0.370647   0.295633   0.211397
   39  O  3  Z    0.000000   0.000000   0.000000   0.000000   0.000000
   40  O  3 XX    0.003180   0.008719   0.012230   0.020189   0.048465
   41  O  3 YY   -0.004041   0.009523   0.026693  -0.010240  -0.063670
   42  O  3 ZZ   -0.002028   0.015961   0.025673   0.017885  -0.034116
   43  O  3 XY   -0.001308  -0.007333  -0.000467   0.013828   0.036630
   44  O  3 XZ    0.000000   0.000000   0.000000   0.000000   0.000000
   45  O  3 YZ    0.000000   0.000000   0.000000   0.000000   0.000000
   46  H  4  S   -0.020997   0.064680  -0.047292  -0.007064  -0.149434
   47  H  4  S   -0.133680   0.546736  -0.512251   0.338361   0.179136
   48  H  5  S    0.064945   0.059501  -0.072105   0.036336  -0.015585
   49  H  5  S    1.228105   1.197944   1.131459   0.705906   0.144129
   50  H  6  S    0.085750  -0.062970   0.058388  -0.112790   0.015842
   51  H  6  S    1.164172  -1.347018  -1.369059  -0.567923  -0.089555
   52  H  7  S   -0.067238  -0.049526  -0.046571  -0.121679   0.071002
   53  H  7  S   -0.767775  -0.641743   1.623747  -0.307144   0.044291

                     21         22         23         24         25
                    0.5462     0.5858     0.6211     0.6431     0.6968
                     A          A          A          A          A   
    1  C  1  S    0.000000  -0.005674  -0.017179   0.000000  -0.095514
    2  C  1  S    0.000000   0.227286  -0.523198   0.000000  -0.244964
    3  C  1  X    0.000000  -0.318037  -0.033144   0.000000  -0.381819
    4  C  1  Y    0.000000  -0.050900  -0.263611   0.000000   0.420845
    5  C  1  Z    0.745807   0.000000   0.000000   0.767135   0.000000
    6  C  1  S    0.000000   0.148783   0.596489   0.000000   1.164915
    7  C  1  X    0.000000   0.160256   0.624058   0.000000   0.118096
    8  C  1  Y    0.000000   0.293205   0.437791   0.000000  -0.611005
    9  C  1  Z   -0.635006   0.000000   0.000000  -1.177494   0.000000
   10  C  1 XX    0.000000  -0.026278  -0.132762   0.000000  -0.112121
   11  C  1 YY    0.000000   0.059252  -0.021074   0.000000  -0.153847
   12  C  1 ZZ    0.000000  -0.001280   0.038740   0.000000   0.098785
   13  C  1 XY    0.000000  -0.008875  -0.058602   0.000000   0.053641
   14  C  1 XZ   -0.042179   0.000000   0.000000   0.013581   0.000000
   15  C  1 YZ    0.028724   0.000000   0.000000  -0.005231   0.000000
   16  C  2  S    0.000000   0.006102  -0.036443   0.000000   0.065321
   17  C  2  S    0.000000   0.445377  -0.770545   0.000000  -0.161886
   18  C  2  X    0.000000  -0.448138   0.161202   0.000000  -0.533291
   19  C  2  Y    0.000000  -0.419306   0.098479   0.000000   0.284592
   20  C  2  Z    0.689363   0.000000   0.000000  -0.780379   0.000000
   21  C  2  S    0.000000  -0.902376   1.531002   0.000000  -0.430834
   22  C  2  X    0.000000   0.500394  -0.386793   0.000000   0.454659
   23  C  2  Y    0.000000   1.109100  -0.302638   0.000000   0.052293
   24  C  2  Z   -0.688449   0.000000   0.000000   1.246773   0.000000
   25  C  2 XX    0.000000   0.070661  -0.031245   0.000000   0.046799
   26  C  2 YY    0.000000  -0.026336  -0.163330   0.000000   0.055495
   27  C  2 ZZ    0.000000   0.013953   0.037878   0.000000  -0.047706
   28  C  2 XY    0.000000  -0.056324   0.020678   0.000000  -0.105301
   29  C  2 XZ    0.034370   0.000000   0.000000   0.036877   0.000000
   30  C  2 YZ   -0.043777   0.000000   0.000000   0.000864   0.000000
   31  O  3  S    0.000000   0.005858   0.013611   0.000000  -0.005362
   32  O  3  S    0.000000  -0.041638  -0.105328   0.000000   0.096091
   33  O  3  X    0.000000  -0.020720   0.145987   0.000000  -0.114881
   34  O  3  Y    0.000000  -0.008753  -0.105039   0.000000   0.072396
   35  O  3  Z    0.115573   0.000000   0.000000  -0.078245   0.000000
   36  O  3  S    0.000000   0.527293  -0.294181   0.000000   0.127100
   37  O  3  X    0.000000   0.287338  -0.312482   0.000000   0.210895
   38  O  3  Y    0.000000   0.116532  -0.058949   0.000000   0.033117
   39  O  3  Z    0.045139   0.000000   0.000000  -0.114684   0.000000
   40  O  3 XX    0.000000   0.031304  -0.095436   0.000000   0.041208
   41  O  3 YY    0.000000   0.060940  -0.014546   0.000000   0.063745
   42  O  3 ZZ    0.000000  -0.066390   0.012508   0.000000   0.001392
   43  O  3 XY    0.000000   0.104000  -0.026151   0.000000   0.026547
   44  O  3 XZ    0.009921   0.000000   0.000000  -0.031722   0.000000
   45  O  3 YZ    0.007797   0.000000   0.000000   0.003741   0.000000
   46  H  4  S    0.000000   0.445204   0.024514   0.000000   0.081175
   47  H  4  S    0.000000  -0.141110  -0.118485   0.000000  -0.068364
   48  H  5  S    0.000000  -0.281005  -0.569425   0.000000   0.239749
   49  H  5  S    0.000000  -0.173515   0.169691   0.000000  -0.110946
   50  H  6  S    0.000000  -0.204172  -0.502944   0.000000  -0.370409
   51  H  6  S    0.000000  -0.035274  -0.176714   0.000000   0.013876
   52  H  7  S    0.000000   0.303695  -0.066986   0.000000  -0.581113
   53  H  7  S    0.000000   0.107796   0.028816   0.000000  -0.154226

                     26         27         28         29         30
                    0.7953     0.8512     0.8665     0.9202     0.9451
                     A          A          A          A          A   
    1  C  1  S   -0.018334   0.001884  -0.011510   0.023118   0.000000
    2  C  1  S    0.268275  -0.100297  -0.221500  -0.795453   0.000000
    3  C  1  X   -0.385895  -0.543206   0.378232  -0.404191   0.000000
    4  C  1  Y   -0.114502  -0.841711   0.187048   0.437240   0.000000
    5  C  1  Z    0.000000   0.000000   0.000000   0.000000   0.036552
    6  C  1  S   -0.220273   0.125624   1.344585   0.770841   0.000000
    7  C  1  X    0.774699   1.339614  -1.602600   0.989694   0.000000
    8  C  1  Y    0.580029   2.058163  -0.793024  -0.828932   0.000000
    9  C  1  Z    0.000000   0.000000   0.000000   0.000000   0.116714
   10  C  1 XX   -0.026037   0.104124   0.032060  -0.077068   0.000000
   11  C  1 YY    0.021938  -0.115560  -0.049118   0.030671   0.000000
   12  C  1 ZZ    0.020271   0.000308   0.005621  -0.087133   0.000000
   13  C  1 XY    0.020788   0.040567  -0.051286   0.141405   0.000000
   14  C  1 XZ    0.000000   0.000000   0.000000   0.000000  -0.008884
   15  C  1 YZ    0.000000   0.000000   0.000000   0.000000  -0.043932
   16  C  2  S    0.027508   0.003429   0.015045   0.002957   0.000000
   17  C  2  S    0.102258  -0.325414  -0.635159  -0.570470   0.000000
   18  C  2  X   -0.245892   0.093345  -0.004769  -0.230437   0.000000
   19  C  2  Y   -0.007423  -0.124137  -0.973197   0.024300   0.000000
   20  C  2  Z    0.000000   0.000000   0.000000   0.000000   0.118295
   21  C  2  S    0.029624   0.588792   0.684201   1.749140   0.000000
   22  C  2  X   -0.052182  -0.615435   0.105102   0.582043   0.000000
   23  C  2  Y   -0.187798  -0.371541   3.061464  -0.553352   0.000000
   24  C  2  Z    0.000000   0.000000   0.000000   0.000000  -0.485830
   25  C  2 XX    0.050019  -0.106174  -0.117722   0.034412   0.000000
   26  C  2 YY    0.066181   0.102032   0.036367  -0.003917   0.000000
   27  C  2 ZZ   -0.040426  -0.026952  -0.050112  -0.038728   0.000000
   28  C  2 XY   -0.000112   0.000439   0.066667   0.014607   0.000000
   29  C  2 XZ    0.000000   0.000000   0.000000   0.000000  -0.047228
   30  C  2 YZ    0.000000   0.000000   0.000000   0.000000  -0.058048
   31  O  3  S   -0.008496   0.004235  -0.012820   0.000608   0.000000
   32  O  3  S    0.115429   0.030274  -0.035242  -0.334660   0.000000
   33  O  3  X    0.316906   0.039457  -0.020744   0.279858   0.000000
   34  O  3  Y   -0.495874   0.125592  -0.036233   0.147414   0.000000
   35  O  3  Z    0.000000   0.000000   0.000000   0.000000  -0.942567
   36  O  3  S   -0.391326  -0.313823   0.487644   0.527189   0.000000
   37  O  3  X   -0.398423  -0.109178   0.283380  -0.484304   0.000000
   38  O  3  Y    0.236271  -0.169313  -0.147871  -0.198782   0.000000
   39  O  3  Z    0.000000   0.000000   0.000000   0.000000   1.151120
   40  O  3 XX    0.080374  -0.029059   0.038635  -0.102095   0.000000
   41  O  3 YY   -0.125385   0.038660  -0.059339  -0.112235   0.000000
   42  O  3 ZZ    0.068132   0.013975  -0.027660  -0.091990   0.000000
   43  O  3 XY    0.021604  -0.017582  -0.035714   0.005148   0.000000
   44  O  3 XZ    0.000000   0.000000   0.000000   0.000000  -0.012728
   45  O  3 YZ    0.000000   0.000000   0.000000   0.000000  -0.028969
   46  H  4  S   -0.868642   0.220138  -0.123413   0.096865   0.000000
   47  H  4  S    0.987116  -0.282782   0.164738  -0.301498   0.000000
   48  H  5  S    0.086681   0.328994   0.535493   0.185572   0.000000
   49  H  5  S   -0.018082  -0.418357  -2.575945  -0.124942   0.000000
   50  H  6  S   -0.082408   0.440356  -0.223844   0.469134   0.000000
   51  H  6  S   -0.438630  -1.699019   0.961662  -1.020242   0.000000
   52  H  7  S    0.043980  -0.417598  -0.065311   0.644931   0.000000
   53  H  7  S    0.330489   1.762216  -0.540727  -1.245373   0.000000

                     31         32         33         34         35
                    0.9748     1.1017     1.1825     1.2640     1.4098
                     A          A          A          A          A   
    1  C  1  S    0.013876  -0.031739  -0.011109   0.009702   0.000000
    2  C  1  S   -0.577982  -1.575396  -0.194396   0.163394   0.000000
    3  C  1  X   -0.282021   0.153814  -0.182874   0.000890   0.000000
    4  C  1  Y    0.106770  -0.133733  -0.147056   0.093105   0.000000
    5  C  1  Z    0.000000   0.000000   0.000000   0.000000  -0.156373
    6  C  1  S    1.667208   5.869107   1.445353  -1.816305   0.000000
    7  C  1  X    0.139714  -1.641443   1.233685   0.518939   0.000000
    8  C  1  Y   -0.576930   1.047673   2.348937  -0.999193   0.000000
    9  C  1  Z    0.000000   0.000000   0.000000   0.000000   0.037556
   10  C  1 XX    0.012481  -0.041869  -0.125623   0.052131   0.000000
   11  C  1 YY   -0.011235  -0.115724   0.141420   0.023317   0.000000
   12  C  1 ZZ   -0.070093  -0.039826  -0.034398  -0.053041   0.000000
   13  C  1 XY    0.035565  -0.110764  -0.066164   0.050535   0.000000
   14  C  1 XZ    0.000000   0.000000   0.000000   0.000000  -0.250402
   15  C  1 YZ    0.000000   0.000000   0.000000   0.000000   0.378177
   16  C  2  S   -0.016716   0.031316   0.025574  -0.008924   0.000000
   17  C  2  S   -0.168085   1.355901   0.292188  -0.197741   0.000000
   18  C  2  X    0.077312   0.258243   0.176307  -0.027342   0.000000
   19  C  2  Y   -0.089519  -0.118228   0.108098   0.099554   0.000000
   20  C  2  Z    0.000000   0.000000   0.000000   0.000000  -0.053305
   21  C  2  S    0.114033  -5.461259  -1.715804   0.621976   0.000000
   22  C  2  X    0.114096  -1.583677  -1.757579   2.058930   0.000000
   23  C  2  Y    1.003916   1.254457  -1.263618  -0.618907   0.000000
   24  C  2  Z    0.000000   0.000000   0.000000   0.000000  -0.015118
   25  C  2 XX   -0.076319   0.011607  -0.043067  -0.112448   0.000000
   26  C  2 YY   -0.068525   0.107081   0.116953   0.044433   0.000000
   27  C  2 ZZ    0.048507   0.021789  -0.064958  -0.040885   0.000000
   28  C  2 XY   -0.071068   0.123956   0.010514  -0.078637   0.000000
   29  C  2 XZ    0.000000   0.000000   0.000000   0.000000   0.598741
   30  C  2 YZ    0.000000   0.000000   0.000000   0.000000  -0.017964
   31  O  3  S    0.001293  -0.002358  -0.000358  -0.033845   0.000000
   32  O  3  S    0.757631   0.006723  -0.309093  -0.663980   0.000000
   33  O  3  X   -0.539900   0.135383  -0.427787  -0.262054   0.000000
   34  O  3  Y   -0.151682  -0.182154   0.196259  -0.721705   0.000000
   35  O  3  Z    0.000000   0.000000   0.000000   0.000000  -0.046549
   36  O  3  S   -1.314256   0.276147  -0.000493   1.766482   0.000000
   37  O  3  X    0.907040   0.101070   0.371328   0.873206   0.000000
   38  O  3  Y    0.239878   0.299883  -0.467587   1.736398   0.000000
   39  O  3  Z    0.000000   0.000000   0.000000   0.000000   0.162999
   40  O  3 XX    0.205714   0.111375  -0.125327  -0.313720   0.000000
   41  O  3 YY    0.208049   0.018994  -0.153366  -0.058958   0.000000
   42  O  3 ZZ    0.256902  -0.116672   0.050726  -0.218572   0.000000
   43  O  3 XY    0.010421  -0.021183  -0.064567  -0.190876   0.000000
   44  O  3 XZ    0.000000   0.000000   0.000000   0.000000  -0.352150
   45  O  3 YZ    0.000000   0.000000   0.000000   0.000000  -0.268241
   46  H  4  S   -0.331882   0.077001  -0.179796   0.386556   0.000000
   47  H  4  S    0.951563   0.109328  -0.113092   0.363041   0.000000
   48  H  5  S   -0.312011   0.071443   0.556419   0.163682   0.000000
   49  H  5  S   -0.353899   0.288446   0.586880   0.115878   0.000000
   50  H  6  S    0.389445  -0.023982  -0.641138   0.091135   0.000000
   51  H  6  S   -0.669551  -0.433188  -0.888939   0.027006   0.000000
   52  H  7  S    0.170675  -0.138544   0.550221   0.030858   0.000000
   53  H  7  S   -0.911959  -0.452213   0.649083  -0.363708   0.000000

                     36         37         38         39         40
                    1.4796     1.5104     1.7229     1.7751     1.7868
                     A          A          A          A          A   
    1  C  1  S    0.000000  -0.023100   0.000000  -0.011048   0.000000
    2  C  1  S    0.000000  -0.211443   0.000000   0.199380   0.000000
    3  C  1  X    0.000000  -0.095833   0.000000  -0.128230   0.000000
    4  C  1  Y    0.000000   0.066365   0.000000   0.029087   0.000000
    5  C  1  Z    0.094547   0.000000  -0.015404   0.000000  -0.050310
    6  C  1  S    0.000000   2.313510   0.000000  -0.104084   0.000000
    7  C  1  X    0.000000  -1.818414   0.000000   0.497728   0.000000
    8  C  1  Y    0.000000  -1.361886   0.000000   0.092762   0.000000
    9  C  1  Z    0.002396   0.000000   0.036700   0.000000   0.112840
   10  C  1 XX    0.000000   0.133779   0.000000   0.056667   0.000000
   11  C  1 YY    0.000000  -0.000145   0.000000   0.219162   0.000000
   12  C  1 ZZ    0.000000  -0.149585   0.000000  -0.282776   0.000000
   13  C  1 XY    0.000000   0.007621   0.000000   0.144116   0.000000
   14  C  1 XZ    0.520924   0.000000   0.406524   0.000000  -0.170206
   15  C  1 YZ    0.111218   0.000000   0.788195   0.000000   0.150907
   16  C  2  S    0.000000   0.022144   0.000000  -0.015916   0.000000
   17  C  2  S    0.000000   0.442564   0.000000  -0.347239   0.000000
   18  C  2  X    0.000000  -0.022076   0.000000  -0.000754   0.000000
   19  C  2  Y    0.000000  -0.169272   0.000000   0.122041   0.000000
   20  C  2  Z    0.150189   0.000000  -0.063614   0.000000  -0.039452
   21  C  2  S    0.000000  -2.371088   0.000000   1.141589   0.000000
   22  C  2  X    0.000000   1.051805   0.000000  -0.453565   0.000000
   23  C  2  Y    0.000000   3.600891   0.000000   0.066342   0.000000
   24  C  2  Z   -0.077722   0.000000  -0.072579   0.000000  -0.108905
   25  C  2 XX    0.000000   0.052356   0.000000   0.004254   0.000000
   26  C  2 YY    0.000000   0.035032   0.000000   0.378623   0.000000
   27  C  2 ZZ    0.000000  -0.180843   0.000000  -0.376474   0.000000
   28  C  2 XY    0.000000   0.005742   0.000000   0.255797   0.000000
   29  C  2 XZ    0.053564   0.000000  -0.067307   0.000000   0.021603
   30  C  2 YZ    0.680311   0.000000  -0.232886   0.000000  -0.052619
   31  O  3  S    0.000000  -0.097997   0.000000   0.021706   0.000000
   32  O  3  S    0.000000  -1.393308   0.000000   0.212808   0.000000
   33  O  3  X    0.000000  -0.247132   0.000000  -0.074605   0.000000
   34  O  3  Y    0.000000   0.218692   0.000000   0.073000   0.000000
   35  O  3  Z   -0.044381   0.000000  -0.044541   0.000000  -0.016786
   36  O  3  S    0.000000   4.336200   0.000000  -0.805437   0.000000
   37  O  3  X    0.000000   1.305162   0.000000  -0.189857   0.000000
   38  O  3  Y    0.000000  -0.638841   0.000000  -0.262004   0.000000
   39  O  3  Z    0.128089   0.000000   0.049566   0.000000   0.075912
   40  O  3 XX    0.000000  -0.427528   0.000000   0.573621   0.000000
   41  O  3 YY    0.000000  -0.508873   0.000000   0.072103   0.000000
   42  O  3 ZZ    0.000000  -0.223081   0.000000  -0.486190   0.000000
   43  O  3 XY    0.000000  -0.027114   0.000000  -0.445112   0.000000
   44  O  3 XZ   -0.298057   0.000000   0.395433   0.000000  -0.309822
   45  O  3 YZ    0.025789   0.000000   0.070129   0.000000   0.922533
   46  H  4  S    0.000000  -0.521001   0.000000   0.019633   0.000000
   47  H  4  S    0.000000  -0.331373   0.000000   0.000980   0.000000
   48  H  5  S    0.000000  -0.593619   0.000000  -0.436579   0.000000
   49  H  5  S    0.000000  -1.259061   0.000000  -0.126531   0.000000
   50  H  6  S    0.000000   0.295402   0.000000  -0.194596   0.000000
   51  H  6  S    0.000000   0.474872   0.000000  -0.187672   0.000000
   52  H  7  S    0.000000  -0.515832   0.000000  -0.109438   0.000000
   53  H  7  S    0.000000  -0.745721   0.000000   0.106817   0.000000

                     41         42         43         44         45
                    1.8150     1.9783     2.0780     2.2269     2.2381
                     A          A          A          A          A   
    1  C  1  S   -0.001936   0.026369   0.016753   0.000000  -0.040625
    2  C  1  S   -0.034083   0.353944   0.185639   0.000000  -0.266020
    3  C  1  X   -0.017417  -0.320844  -0.101276   0.000000   0.006596
    4  C  1  Y   -0.197393   0.042277   0.191394   0.000000  -0.068089
    5  C  1  Z    0.000000   0.000000   0.000000   0.029281   0.000000
    6  C  1  S   -0.598586  -0.092378   0.020480   0.000000   1.589880
    7  C  1  X    0.308515  -0.376430   0.162349   0.000000  -0.405988
    8  C  1  Y   -0.106525  -0.352260  -0.240480   0.000000   0.092460
    9  C  1  Z    0.000000   0.000000   0.000000   0.212804   0.000000
   10  C  1 XX   -0.214728  -0.582542   0.102689   0.000000  -0.136361
   11  C  1 YY    0.376216   0.114845  -0.005799   0.000000   0.804827
   12  C  1 ZZ   -0.171874   0.588037   0.113510   0.000000  -0.689299
   13  C  1 XY    0.005852  -0.166972   0.605995   0.000000   0.264866
   14  C  1 XZ    0.000000   0.000000   0.000000  -0.497995   0.000000
   15  C  1 YZ    0.000000   0.000000   0.000000   0.082894   0.000000
   16  C  2  S   -0.004516   0.033834   0.022730   0.000000   0.010416
   17  C  2  S   -0.440558   0.204808   0.237271   0.000000   0.472539
   18  C  2  X    0.191751  -0.018143   0.228724   0.000000  -0.245394
   19  C  2  Y    0.021107  -0.157666  -0.029455   0.000000  -0.217391
   20  C  2  Z    0.000000   0.000000   0.000000  -0.091081   0.000000
   21  C  2  S    0.996958  -0.660185  -0.308888   0.000000  -1.166283
   22  C  2  X   -0.166727  -0.044888  -0.235926   0.000000  -0.561350
   23  C  2  Y   -0.953177   0.760961   0.191105   0.000000   0.342936
   24  C  2  Z    0.000000   0.000000   0.000000  -0.383979   0.000000
   25  C  2 XX    0.568234   0.023800  -0.231793   0.000000  -0.068974
   26  C  2 YY   -0.305220  -0.368899   0.263997   0.000000  -0.304234
   27  C  2 ZZ   -0.297909   0.444790   0.136848   0.000000   0.383659
   28  C  2 XY    0.286409   0.268752   0.534950   0.000000  -0.106484
   29  C  2 XZ    0.000000   0.000000   0.000000   0.256750   0.000000
   30  C  2 YZ    0.000000   0.000000   0.000000   0.696127   0.000000
   31  O  3  S    0.043633   0.008399   0.015670   0.000000  -0.007960
   32  O  3  S    0.001861  -0.226143   0.144035   0.000000   0.259800
   33  O  3  X   -0.188216  -0.122462  -0.042276   0.000000   0.155364
   34  O  3  Y   -0.189768   0.025671  -0.108346   0.000000   0.080430
   35  O  3  Z    0.000000   0.000000   0.000000  -0.101170   0.000000
   36  O  3  S   -0.704165   0.477828  -0.407358   0.000000  -0.325296
   37  O  3  X   -0.156199   0.299061   0.076477   0.000000  -0.305284
   38  O  3  Y    0.226041  -0.062320   0.434668   0.000000  -0.236773
   39  O  3  Z    0.000000   0.000000   0.000000   0.307434   0.000000
   40  O  3 XX    0.107887   0.253039   0.028135   0.000000  -0.236770
   41  O  3 YY    0.105909  -0.192595  -0.416800   0.000000   0.055765
   42  O  3 ZZ   -0.059521  -0.066984   0.478023   0.000000   0.193386
   43  O  3 XY    0.492746  -0.380386   0.194413   0.000000  -0.299279
   44  O  3 XZ    0.000000   0.000000   0.000000   0.714771   0.000000
   45  O  3 YZ    0.000000   0.000000   0.000000   0.185494   0.000000
   46  H  4  S    0.068219   0.070795   0.490065   0.000000  -0.010537
   47  H  4  S   -0.004872  -0.025783   0.071753   0.000000  -0.081961
   48  H  5  S    0.354870   0.172505  -0.250721   0.000000   0.299456
   49  H  5  S    0.195976  -0.275695   0.117773   0.000000  -0.079782
   50  H  6  S    0.171434   0.571085  -0.330448   0.000000  -0.197403
   51  H  6  S   -0.085579   0.131161   0.153445   0.000000  -0.000301
   52  H  7  S   -0.358174  -0.149362  -0.073177   0.000000  -0.693982
   53  H  7  S    0.106404   0.005894  -0.048511   0.000000   0.039638

                     46         47         48         49         50
                    2.3575     2.4507     2.6172     2.7923     2.8955
                     A          A          A          A          A   
    1  C  1  S    0.026899   0.000000   0.056135  -0.032033  -0.017837
    2  C  1  S    0.092896   0.000000   0.004446   0.388488   0.078944
    3  C  1  X    0.024770   0.000000   0.308785  -0.614443  -0.102386
    4  C  1  Y   -0.050487   0.000000  -0.165576   0.442291   0.214979
    5  C  1  Z    0.000000  -0.138109   0.000000   0.000000   0.000000
    6  C  1  S   -0.212566   0.000000  -2.316407   1.322008   0.659982
    7  C  1  X    0.436821   0.000000   0.877648  -0.591850  -0.592914
    8  C  1  Y   -0.100355   0.000000  -0.465380   0.648148  -0.411835
    9  C  1  Z    0.000000  -0.206707   0.000000   0.000000   0.000000
   10  C  1 XX   -0.009941   0.000000  -0.800917   0.447483  -0.438209
   11  C  1 YY   -0.152855   0.000000   0.401116   0.005355   0.551101
   12  C  1 ZZ    0.246315   0.000000   0.489016  -0.342973  -0.137959
   13  C  1 XY    0.612043   0.000000   0.115223  -0.802392  -0.365395
   14  C  1 XZ    0.000000   0.616737   0.000000   0.000000   0.000000
   15  C  1 YZ    0.000000  -0.527393   0.000000   0.000000   0.000000
   16  C  2  S    0.032603   0.000000  -0.095255   0.007982   0.096308
   17  C  2  S    0.322452   0.000000   0.172621  -0.158963  -0.379774
   18  C  2  X    0.378400   0.000000  -0.064303  -0.784837   0.176611
   19  C  2  Y   -0.209851   0.000000  -0.325206   0.322441   0.182125
   20  C  2  Z    0.000000   0.105062   0.000000   0.000000   0.000000
   21  C  2  S   -0.275303   0.000000   2.773541  -0.997344  -1.703539
   22  C  2  X    0.095041   0.000000   0.305573  -1.083010   0.771967
   23  C  2  Y    0.289735   0.000000  -1.254169   0.273042   0.851320
   24  C  2  Z    0.000000   0.136807   0.000000   0.000000   0.000000
   25  C  2 XX   -0.001087   0.000000   0.079276  -0.351814  -0.953228
   26  C  2 YY   -0.093868   0.000000   0.604666   0.001378   0.778428
   27  C  2 ZZ    0.302500   0.000000  -0.798415   0.189624   0.578533
   28  C  2 XY   -0.005856   0.000000  -0.053717   1.102818  -0.250509
   29  C  2 XZ    0.000000   0.887861   0.000000   0.000000   0.000000
   30  C  2 YZ    0.000000  -0.323447   0.000000   0.000000   0.000000
   31  O  3  S   -0.031016   0.000000   0.023888   0.015138  -0.057475
   32  O  3  S   -0.464839   0.000000   0.510217   0.218812  -0.564522
   33  O  3  X   -0.047358   0.000000   0.114769   0.014155  -0.014472
   34  O  3  Y    0.100799   0.000000   0.030786   0.044974  -0.048267
   35  O  3  Z    0.000000  -0.028001   0.000000   0.000000   0.000000
   36  O  3  S    1.180734   0.000000  -1.432217  -0.698487   1.964037
   37  O  3  X    0.277565   0.000000  -0.873994  -0.493442   0.996178
   38  O  3  Y   -0.538226   0.000000  -0.188428  -0.415553   0.558665
   39  O  3  Z    0.000000   0.110464   0.000000   0.000000   0.000000
   40  O  3 XX   -0.314610   0.000000  -0.587065  -0.552832   0.319628
   41  O  3 YY    0.768959   0.000000   0.416468   0.497312  -0.140242
   42  O  3 ZZ   -0.678360   0.000000   0.318505   0.091073  -0.442227
   43  O  3 XY    0.166852   0.000000  -0.129059  -0.076426   0.652483
   44  O  3 XZ    0.000000   0.317289   0.000000   0.000000   0.000000
   45  O  3 YZ    0.000000   0.232306   0.000000   0.000000   0.000000
   46  H  4  S   -0.903662   0.000000  -0.091077  -0.301346  -0.056845
   47  H  4  S    0.080343   0.000000   0.002643  -0.023907   0.120557
   48  H  5  S    0.074549   0.000000  -0.365374  -0.083706  -0.290556
   49  H  5  S   -0.085771   0.000000   0.399395   0.032794  -0.024053
   50  H  6  S   -0.246053   0.000000   0.368017   0.040241   0.293047
   51  H  6  S   -0.062134   0.000000  -0.091156   0.020921   0.079444
   52  H  7  S    0.074781   0.000000  -0.109223   0.074453  -0.313125
   53  H  7  S   -0.010854   0.000000   0.146294   0.119291  -0.199935

                     51         52         53
                    3.6962     4.1170     4.2918
                     A          A          A   
    1  C  1  S    0.004896  -0.375040   0.293494
    2  C  1  S    0.067822   2.499370  -1.640768
    3  C  1  X   -0.096977  -0.037515  -0.322180
    4  C  1  Y    0.066693   0.039724   0.246641
    5  C  1  Z    0.000000   0.000000   0.000000
    6  C  1  S    0.166434   1.159468  -1.930178
    7  C  1  X   -0.363664   0.080148   0.223554
    8  C  1  Y   -0.455170  -0.117412  -0.252369
    9  C  1  Z    0.000000   0.000000   0.000000
   10  C  1 XX    0.045368  -1.499257   1.341834
   11  C  1 YY   -0.049099  -1.453008   1.258112
   12  C  1 ZZ    0.057618  -1.449446   1.057066
   13  C  1 XY   -0.024049   0.005783  -0.239443
   14  C  1 XZ    0.000000   0.000000   0.000000
   15  C  1 YZ    0.000000   0.000000   0.000000
   16  C  2  S   -0.052595  -0.266902  -0.373442
   17  C  2  S    0.491878   1.909560   2.258778
   18  C  2  X    0.006166   0.184010  -0.202168
   19  C  2  Y   -0.007720  -0.072864   0.256426
   20  C  2  Z    0.000000   0.000000   0.000000
   21  C  2  S   -0.989695   0.510397   1.891607
   22  C  2  X    0.895196   0.049242   0.453501
   23  C  2  Y    0.961331   0.101450  -0.060412
   24  C  2  Z    0.000000   0.000000   0.000000
   25  C  2 XX   -0.238175  -1.118579  -1.863180
   26  C  2 YY   -0.315344  -1.025664  -1.556514
   27  C  2 ZZ   -0.138009  -1.048236  -1.359546
   28  C  2 XY    0.021875  -0.111386   0.136683
   29  C  2 XZ    0.000000   0.000000   0.000000
   30  C  2 YZ    0.000000   0.000000   0.000000
   31  O  3  S   -0.508763   0.040427   0.044513
   32  O  3  S   -0.060490  -0.046700  -0.130603
   33  O  3  X   -0.151063   0.034688   0.026224
   34  O  3  Y    0.019785  -0.007136  -0.006415
   35  O  3  Z    0.000000   0.000000   0.000000
   36  O  3  S    4.957017  -0.334752  -0.298222
   37  O  3  X    0.830638   0.098380   0.183679
   38  O  3  Y    0.033454   0.135059   0.162597
   39  O  3  Z    0.000000   0.000000   0.000000
   40  O  3 XX   -1.488319   0.290491   0.415258
   41  O  3 YY   -1.700601   0.126297   0.152369
   42  O  3 ZZ   -1.792392   0.101477   0.049762
   43  O  3 XY    0.124370   0.125106   0.172903
   44  O  3 XZ    0.000000   0.000000   0.000000
   45  O  3 YZ    0.000000   0.000000   0.000000
   46  H  4  S    0.059148   0.028177   0.014489
   47  H  4  S   -0.489897   0.083448   0.078561
   48  H  5  S    0.037714   0.102845   0.113624
   49  H  5  S   -0.395102  -0.238261  -0.393819
   50  H  6  S    0.075563   0.149195  -0.070277
   51  H  6  S    0.140357  -0.347451   0.294050
   52  H  7  S   -0.038345   0.133079  -0.091519
   53  H  7  S   -0.197948  -0.390611   0.239292
 ...... END OF RHF CALCULATION ......
 STEP CPU TIME =     4.96 TOTAL CPU TIME =          5.1 (      0.1 MIN)
 TOTAL WALL CLOCK TIME=          5.1 SECONDS, CPU UTILIZATION IS    98.83%

     ---------------------------------------------------------------------
     PROPERTIES FOR THE B3LYP    DFT FUNCTIONAL (RHF  TYPE) DENSITY MATRIX
     ---------------------------------------------------------------------

          -----------------
          ENERGY COMPONENTS
          -----------------

         WAVEFUNCTION NORMALIZATION =       1.0000000000

                ONE ELECTRON ENERGY =    -342.7056985198
                TWO ELECTRON ENERGY =     121.2148437980
           NUCLEAR REPULSION ENERGY =      67.8015024989
                                      ------------------
                       TOTAL ENERGY =    -153.6893522228

 ELECTRON-ELECTRON POTENTIAL ENERGY =     121.2148437980
  NUCLEUS-ELECTRON POTENTIAL ENERGY =    -494.8025055245
   NUCLEUS-NUCLEUS POTENTIAL ENERGY =      67.8015024989
                                      ------------------
             TOTAL POTENTIAL ENERGY =    -305.7861592276
               TOTAL KINETIC ENERGY =     152.0968070048
                 VIRIAL RATIO (V/T) =       2.0104706026

          ---------------------------------------
          MULLIKEN AND LOWDIN POPULATION ANALYSES
          ---------------------------------------

     ATOMIC MULLIKEN POPULATION IN EACH MOLECULAR ORBITAL

                      1          2          3          4          5

                  2.000000   2.000000   2.000000   2.000000   2.000000

    1             0.000000   0.001561   1.997827   0.045110   0.883199
    2            -0.000286   1.998118   0.001361   0.168880   0.754366
    3             2.000406  -0.000081  -0.000001   1.687416   0.154458
    4            -0.000118  -0.000001  -0.000000   0.099414   0.023501
    5            -0.000001   0.000394   0.000003  -0.002153   0.056716
    6             0.000000  -0.000000   0.000391   0.001197   0.072807
    7            -0.000001   0.000011   0.000419   0.000137   0.054952

                      6          7          8          9         10

                  2.000000   2.000000   2.000000   2.000000   2.000000

    1             0.450515   0.338647   0.791838   0.607563   0.239435
    2             0.565668   0.520996   0.357501   0.311278   0.619069
    3             0.399287   0.588304   0.335146   0.096991   1.141496
    4             0.121674   0.160541   0.063075   0.059905   0.000000
    5             0.204379   0.202800   0.050032   0.310851   0.000000
    6             0.097170   0.030830   0.384366   0.150383   0.000000
    7             0.161308   0.157882   0.018043   0.463029   0.000000

                     11         12

                  2.000000   2.000000

    1             0.146966   0.861399
    2             0.149567   0.382365
    3             1.487594   0.756236
    4             0.076400   0.000000
    5             0.008054   0.000000
    6             0.120138   0.000000
    7             0.011281   0.000000

               ----- POPULATIONS IN EACH AO -----
                             MULLIKEN      LOWDIN
              1  C  1  S      1.99165     1.97916
              2  C  1  S      0.69438     0.36502
              3  C  1  X      0.75064     0.66029
              4  C  1  Y      0.73453     0.64758
              5  C  1  Z      0.60587     0.56672
              6  C  1  S      0.57634     0.33513
              7  C  1  X      0.26830     0.39784
              8  C  1  Y      0.24180     0.42363
              9  C  1  Z      0.48963     0.52109
             10  C  1 XX      0.01013     0.18011
             11  C  1 YY      0.01288     0.17601
             12  C  1 ZZ     -0.02622     0.10367
             13  C  1 XY      0.00880     0.01770
             14  C  1 XZ      0.00346     0.00635
             15  C  1 YZ      0.00188     0.00338
             16  C  2  S      1.99170     1.97780
             17  C  2  S      0.71545     0.36428
             18  C  2  X      0.62163     0.54334
             19  C  2  Y      0.74635     0.65139
             20  C  2  Z      0.58694     0.52939
             21  C  2  S      0.46409     0.31043
             22  C  2  X      0.10450     0.27022
             23  C  2  Y      0.17455     0.38278
             24  C  2  Z      0.40000     0.45213
             25  C  2 XX      0.00469     0.17154
             26  C  2 YY      0.01641     0.18571
             27  C  2 ZZ     -0.02605     0.10199
             28  C  2 XY      0.01412     0.02826
             29  C  2 XZ      0.01264     0.02548
             30  C  2 YZ      0.00185     0.00350
             31  O  3  S      1.99254     1.97597
             32  O  3  S      0.90148     0.72050
             33  O  3  X      0.90061     0.85190
             34  O  3  Y      0.83344     0.77063
             35  O  3  Z      1.12726     1.10010
             36  O  3  S      1.00194     0.48030
             37  O  3  X      0.59212     0.62864
             38  O  3  Y      0.51141     0.59662
             39  O  3  Z      0.76715     0.78599
             40  O  3 XX      0.00487     0.17982
             41  O  3 YY      0.02499     0.20206
             42  O  3 ZZ     -0.01513     0.16489
             43  O  3 XY      0.00124     0.00360
             44  O  3 XZ      0.00284     0.00483
             45  O  3 YZ      0.00049     0.00103
             46  H  4  S      0.43882     0.40310
             47  H  4  S      0.16558     0.24585
             48  H  5  S      0.52405     0.47649
             49  H  5  S      0.30703     0.34783
             50  H  6  S      0.52388     0.47523
             51  H  6  S      0.33340     0.35856
             52  H  7  S      0.52612     0.47917
             53  H  7  S      0.34094     0.36494

          ----- MULLIKEN ATOMIC OVERLAP POPULATIONS -----
          (OFF-DIAGONAL ELEMENTS NEED TO BE MULTIPLIED BY 2)

             1           2           3           4           5

    1    5.0884514
    2    0.6586101   4.5982176
    3   -0.0403218   0.2690295   8.2331384
    4   -0.0022602  -0.0196493   0.2194659   0.3986931
    5   -0.0627754   0.3781500  -0.0287799   0.0029962   0.5397111
    6    0.3521999  -0.0196857   0.0031656   0.0000829  -0.0033591
    7    0.3701555  -0.0357909  -0.0084455   0.0050627   0.0051313

             6           7

    6    0.5589371
    7   -0.0340595   0.5650072

          TOTAL MULLIKEN AND LOWDIN ATOMIC POPULATIONS
       ATOM         MULL.POP.    CHARGE          LOW.POP.     CHARGE
    1 C             6.364059   -0.364059         6.383686   -0.383686
    2 C             5.828881    0.171119         5.998245    0.001755
    3 O             8.647252   -0.647252         8.466891   -0.466891
    4 H             0.604391    0.395609         0.648949    0.351051
    5 H             0.831074    0.168926         0.824318    0.175682
    6 H             0.857281    0.142719         0.833798    0.166202
    7 H             0.867061    0.132939         0.844113    0.155887

          -------------------------------
          BOND ORDER AND VALENCE ANALYSIS     BOND ORDER THRESHOLD=0.050
          -------------------------------

                   BOND                       BOND                       BOND
  ATOM PAIR DIST  ORDER      ATOM PAIR DIST  ORDER      ATOM PAIR DIST  ORDER
    1   2  1.309  1.937        1   3  2.435  0.082        1   6  1.090  0.929
    1   7  1.090  0.940        2   3  1.500  0.933        2   5  1.090  0.931
    3   4  1.050  0.779

                       TOTAL       BONDED        FREE
      ATOM            VALENCE     VALENCE     VALENCE
    1 C                 3.874       3.874       0.000
    2 C                 3.814       3.814      -0.000
    3 O                 1.819       1.819       0.000
    4 H                 0.815       0.815      -0.000
    5 H                 0.931       0.931       0.000
    6 H                 0.944       0.944       0.000
    7 H                 0.946       0.946       0.000

          ---------------------
          ELECTROSTATIC MOMENTS
          ---------------------

 POINT   1           X           Y           Z (BOHR)    CHARGE
                 0.000000   -0.000000    0.000000        0.00 (A.U.)
         DX          DY          DZ         /D/  (DEBYE)
     0.899607   -0.846066    0.000000    1.234958
 ...... END OF PROPERTY EVALUATION ......
 STEP CPU TIME =     0.00 TOTAL CPU TIME =          5.1 (      0.1 MIN)
 TOTAL WALL CLOCK TIME=          5.1 SECONDS, CPU UTILIZATION IS    98.64%

 BEGINNING ONE ELECTRON GRADIENT...
 ..... END OF 1-ELECTRON GRADIENT ......
 STEP CPU TIME =     0.02 TOTAL CPU TIME =          5.1 (      0.1 MIN)
 TOTAL WALL CLOCK TIME=          5.2 SECONDS, CPU UTILIZATION IS    98.83%

          ----------------------
          GRADIENT OF THE ENERGY
          ----------------------
 MEMORY FOR GRID POINT CONTRIBUTIONS TO THE DFT GRADIENT=    269593 WORDS.
 STEP CPU TIME =     1.38 TOTAL CPU TIME =          6.5 (      0.1 MIN)
 TOTAL WALL CLOCK TIME=          6.5 SECONDS, CPU UTILIZATION IS    98.93%

 THE MINIMUM MEMORY REQUIRED FOR THIS RUN IS      88877 WORDS.
 USING     991233 WORDS FOR 2E- DERIVATIVE INTEGRAL CONTRIBUTIONS.
 THE COARSE/FINE SCHWARZ SCREENINGS SKIPPED          718/        1605 BLOCKS.
 THE NUMBER OF GRADIENT INTEGRAL BLOCKS COMPUTED WAS     19606
 ...... END OF 2-ELECTRON GRADIENT ......
 STEP CPU TIME =     0.25 TOTAL CPU TIME =          6.7 (      0.1 MIN)
 TOTAL WALL CLOCK TIME=          6.8 SECONDS, CPU UTILIZATION IS    99.12%

          NSERCH=  0     ENERGY=    -153.6893522

                                 -----------------------
                                 GRADIENT (HARTREE/BOHR)
                                 -----------------------
        ATOM     ZNUC       DE/DX         DE/DY         DE/DZ
 --------------------------------------------------------------
    1  C            6.0    -0.0227930     0.0132038     0.0000000
    2  C            6.0     0.0589016     0.0470660     0.0000000
    3  O            8.0    -0.0242424    -0.0074009     0.0000000
    4  H            1.0    -0.0300604    -0.0581083     0.0000000
    5  H            1.0     0.0230258     0.0025389     0.0000000
    6  H            1.0     0.0012753     0.0044366     0.0000000
    7  H            1.0    -0.0061070    -0.0017360     0.0000000

          MAXIMUM GRADIENT = 0.0589016    RMS GRADIENT = 0.0238042

 NSERCH:   0  E=     -153.6893522228  GRAD. MAX=  0.0589016  R.M.S.=  0.0238042

          FORCE CONSTANT MATRIX NOT UPDATED --- TAKING FIRST STEP
          MIN SEARCH, CORRECT HESSIAN, TRYING PURE NR STEP
               NR STEP HAS LENGTH         =   1.040332
          TRIM/QA LAMBDA FOR NON-TS MODES =  -0.14507064
          TRIM/QA STEP HAS LENGTH         =   0.300000
          RADIUS OF STEP TAKEN=   0.30000  CURRENT TRUST RADIUS=   0.30000

 BEGINNING GEOMETRY SEARCH POINT NSERCH=   1 ...

 COORDINATES OF ALL ATOMS ARE (ANGS)
   ATOM   CHARGE       X              Y              Z
 ------------------------------------------------------------
 C           6.0   1.2518274659  -0.2894300805   0.0000000000
 C           6.0   0.1443571831   0.4314555875   0.0000000000
 O           8.0  -1.2111919160  -0.0684102509   0.0000000000
 H           1.0  -1.2488296373  -1.0763201702  -0.0000000000
 H           1.0   0.2176399025   1.5377408562   0.0000000000
 H           1.0   2.2325621489   0.1645482792   0.0000000000
 H           1.0   1.1384749629  -1.3691955050  -0.0000000000

          INTERNUCLEAR DISTANCES (ANGS.)
          ------------------------------

                1 C          2 C          3 O          4 H          5 H     

   1 C       0.0000000    1.3214260 *  2.4729161 *  2.6215419 *  2.0995470 *
   2 C       1.3214260 *  0.0000000    1.4447765 *  2.0528900 *  1.1087098 *
   3 O       2.4729161 *  1.4447765 *  0.0000000    1.0086124 *  2.1497167 *
   4 H       2.6215419 *  2.0528900 *  1.0086124 *  0.0000000    2.9973068 *
   5 H       2.0995470 *  1.1087098 *  2.1497167 *  2.9973068 *  0.0000000  
   6 H       1.0807113 *  2.1051935 *  3.4516245    3.6959225    2.4383539 *
   7 H       1.0856989 *  2.0568458 *  2.6856986 *  2.4052025 *  3.0492977  

                6 H          7 H     

   1 C       1.0807113 *  1.0856989 *
   2 C       2.1051935 *  2.0568458 *
   3 O       3.4516245    2.6856986 *
[...]
    1  C  1  S    0.028843   0.000000   0.000000  -0.034140  -0.009414
    2  C  1  S   -0.058273  -0.000000   0.000000   0.072568   0.022590
    3  C  1  X    0.251532   0.000000   0.000000   0.028699   0.181016
    4  C  1  Y   -0.078663   0.000000   0.000000  -0.080666   0.175838
    5  C  1  Z    0.000000   0.412060   0.378918   0.000000   0.000000
    6  C  1  S   -0.150901   0.000000   0.000000   0.200321   0.165830
    7  C  1  X    0.097474  -0.000000   0.000000   0.292310   0.509046
    8  C  1  Y   -0.058847   0.000000   0.000000  -0.272543   0.351837
    9  C  1  Z    0.000000   0.333358   0.612819   0.000000   0.000000
   10  C  1 XX    0.003237   0.000000   0.000000  -0.010628  -0.018840
   11  C  1 YY    0.004818   0.000000   0.000000   0.010114   0.017812
   12  C  1 ZZ    0.001805   0.000000   0.000000  -0.003094   0.001006
   13  C  1 XY    0.008565   0.000000   0.000000  -0.009919  -0.013739
   14  C  1 XZ    0.000000  -0.010680   0.021724   0.000000   0.000000
   15  C  1 YZ    0.000000   0.008032  -0.017051   0.000000   0.000000
   16  C  2  S   -0.005871   0.000000   0.000000   0.009959  -0.056305
   17  C  2  S    0.011344   0.000000   0.000000  -0.022839   0.097353
   18  C  2  X   -0.223453   0.000000   0.000000   0.093923   0.083167
   19  C  2  Y    0.176119   0.000000   0.000000   0.032504   0.308949
   20  C  2  Z    0.000000   0.294212  -0.488444   0.000000   0.000000
   21  C  2  S    0.040873  -0.000000  -0.000000   0.124446   0.991936
   22  C  2  X    0.015628  -0.000000   0.000000   0.316375   0.186854
   23  C  2  Y    0.017225   0.000000   0.000000  -0.084470   0.684199
   24  C  2  Z    0.000000   0.183594  -0.643226   0.000000   0.000000
   25  C  2 XX   -0.008553   0.000000   0.000000   0.003257   0.018906
   26  C  2 YY    0.015673   0.000000   0.000000   0.003027  -0.023442
   27  C  2 ZZ   -0.003624   0.000000   0.000000  -0.005558  -0.004846
   28  C  2 XY    0.020869   0.000000   0.000000   0.010459   0.007530
   29  C  2 XZ    0.000000   0.029671   0.009403   0.000000   0.000000
   30  C  2 YZ    0.000000  -0.004939  -0.020192   0.000000   0.000000
   31  O  3  S    0.064372   0.000000   0.000000  -0.085722  -0.005263
   32  O  3  S   -0.133751   0.000000   0.000000   0.116945   0.036335
   33  O  3  X    0.366175   0.000000   0.000000   0.052666   0.090612
   34  O  3  Y   -0.304272   0.000000   0.000000  -0.297954   0.018799
   35  O  3  Z    0.000000  -0.359449   0.219184   0.000000   0.000000
   36  O  3  S   -0.277942  -0.000000   0.000000   1.060524  -0.002119
   37  O  3  X    0.255018   0.000000   0.000000   0.092599   0.123531
   38  O  3  Y   -0.182386  -0.000000   0.000000  -0.473895  -0.001964
   39  O  3  Z    0.000000  -0.297328   0.258066   0.000000   0.000000
   40  O  3 XX    0.014527   0.000000   0.000000  -0.035674   0.003821
   41  O  3 YY    0.018454   0.000000   0.000000  -0.022374   0.010310
   42  O  3 ZZ   -0.002284   0.000000   0.000000  -0.041318   0.007975
   43  O  3 XY   -0.016553   0.000000   0.000000  -0.008853   0.009886
   44  O  3 XZ    0.000000  -0.003926  -0.010659   0.000000   0.000000
   45  O  3 YZ    0.000000   0.012365  -0.017691   0.000000   0.000000
   46  H  4  S    0.149533   0.000000   0.000000  -0.141965   0.034764
   47  H  4  S    0.108816   0.000000   0.000000  -1.367914   0.198783
   48  H  5  S    0.132348   0.000000   0.000000   0.051080  -0.088677
   49  H  5  S    0.137136   0.000000   0.000000   0.150287  -1.506686
   50  H  6  S    0.104584   0.000000   0.000000  -0.063958  -0.074227
   51  H  6  S    0.122437   0.000000   0.000000  -0.366512  -1.038241
   52  H  7  S    0.024372   0.000000   0.000000   0.044209   0.063757
   53  H  7  S    0.041604   0.000000   0.000000  -0.356357   0.619912

                     16         17         18         19         20
                    0.1466     0.1894     0.2882     0.3668     0.5077
                     A          A          A          A          A   
    1  C  1  S   -0.113026   0.074503   0.041467   0.071906   0.000018
    2  C  1  S    0.151275  -0.116659  -0.071098   0.013145   0.259704
    3  C  1  X    0.135196  -0.128132   0.177457   0.038126  -0.468364
    4  C  1  Y   -0.197578  -0.186421   0.212535  -0.091243   0.311269
    5  C  1  Z    0.000000   0.000000   0.000000   0.000000   0.000000
    6  C  1  S    1.990314  -1.078305  -0.494332  -3.039019   0.635389
    7  C  1  X    0.265481  -0.392278   1.274814   2.477279   0.412503
    8  C  1  Y   -0.572351  -0.950420   0.963658  -1.765284  -0.243185
    9  C  1  Z    0.000000   0.000000   0.000000   0.000000   0.000000
   10  C  1 XX    0.004227   0.011643   0.028393   0.008719   0.016470
   11  C  1 YY   -0.020046  -0.007714  -0.039180  -0.009507   0.010375
   12  C  1 ZZ   -0.006197   0.006186   0.006527   0.011093   0.002569
   13  C  1 XY    0.001979  -0.005142  -0.001270  -0.037516  -0.039117
   14  C  1 XZ    0.000000   0.000000   0.000000   0.000000   0.000000
   15  C  1 YZ    0.000000   0.000000   0.000000   0.000000   0.000000
   16  C  2  S   -0.021426  -0.118829  -0.077738  -0.057970   0.054169
   17  C  2  S    0.038310   0.190746   0.068464   0.085228   0.021261
   18  C  2  X   -0.157541  -0.107981  -0.198525   0.237206   0.571037
   19  C  2  Y    0.019460   0.099691  -0.282519  -0.231813   0.032727
   20  C  2  Z    0.000000   0.000000   0.000000   0.000000  -0.000000
   21  C  2  S    0.374906   1.875584   1.471811   2.852806   0.023659
   22  C  2  X   -0.491207   0.086607  -1.230703   2.483064  -1.601894
   23  C  2  Y    0.218308   0.587994  -1.353617  -1.494124   0.342244
   24  C  2  Z    0.000000   0.000000   0.000000   0.000000   0.000000
   25  C  2 XX   -0.008498  -0.039046  -0.007024   0.006084   0.110024
   26  C  2 YY    0.008830   0.013929  -0.005746   0.000059   0.018442
   27  C  2 ZZ    0.006684   0.003868   0.015920  -0.005334  -0.039081
   28  C  2 XY   -0.017172  -0.011724  -0.000724   0.009319  -0.035146
   29  C  2 XZ    0.000000   0.000000   0.000000   0.000000   0.000000
   30  C  2 YZ    0.000000   0.000000   0.000000   0.000000   0.000000
   31  O  3  S    0.048664   0.022479   0.069718  -0.013777   0.007982
   32  O  3  S   -0.073428  -0.080849  -0.068337   0.011405   0.094988
   33  O  3  X   -0.079043  -0.216047  -0.244517   0.028201   0.257125
   34  O  3  Y    0.005570  -0.132125  -0.193187   0.171176  -0.023509
   35  O  3  Z    0.000000   0.000000   0.000000   0.000000   0.000000
   36  O  3  S   -0.612412  -0.088899  -1.237477   0.345159  -0.761207
   37  O  3  X   -0.206142  -0.268943  -0.815990   0.093223  -0.157302
   38  O  3  Y   -0.027651  -0.273291  -0.346639   0.493200  -0.131671
   39  O  3  Z    0.000000   0.000000   0.000000   0.000000   0.000000
   40  O  3 XX    0.010144   0.000974   0.014998   0.008137  -0.071923
   41  O  3 YY    0.020386  -0.006246   0.024602  -0.030941   0.075717
   42  O  3 ZZ    0.017210  -0.006697   0.043845  -0.000402   0.037789
   43  O  3 XY    0.007459   0.011033  -0.005302   0.010098  -0.037363
   44  O  3 XZ    0.000000   0.000000   0.000000   0.000000   0.000000
   45  O  3 YZ    0.000000   0.000000   0.000000   0.000000   0.000000
   46  H  4  S    0.064666  -0.039869  -0.065172  -0.010803   0.201303
   47  H  4  S    0.330154  -0.329281  -0.520899   0.574788  -0.171340
   48  H  5  S    0.016902  -0.021488  -0.036839   0.006663   0.063244
   49  H  5  S   -0.313406  -1.459433   0.732184   0.700659  -0.202063
   50  H  6  S   -0.009668   0.061011   0.071058  -0.136922  -0.019090
   51  H  6  S   -0.837301   1.474875  -1.228599  -0.411691   0.086463
   52  H  7  S   -0.107616  -0.008075  -0.094621  -0.077692  -0.064650
   53  H  7  S   -1.685996  -0.511428   1.286888  -0.677843  -0.079491

                     21         22
                    0.5489     0.6158
                     A          A   
    1  C  1  S    0.000000  -0.000630
    2  C  1  S   -0.000000  -0.530738
    3  C  1  X    0.000000   0.234326
    4  C  1  Y    0.000000  -0.226614
    5  C  1  Z   -0.707944   0.000000
    6  C  1  S    0.000000   0.348752
    7  C  1  X    0.000000   0.260060
    8  C  1  Y    0.000000   0.244845
    9  C  1  Z    0.559156   0.000000
   10  C  1 XX    0.000000  -0.085589
   11  C  1 YY    0.000000  -0.033975
   12  C  1 ZZ    0.000000   0.019212
   13  C  1 XY    0.000000  -0.039481
   14  C  1 XZ    0.040858   0.000000
   15  C  1 YZ   -0.025189   0.000000
   16  C  2  S    0.000000  -0.026541
   17  C  2  S    0.000000  -0.924214
   18  C  2  X    0.000000   0.482121
   19  C  2  Y    0.000000   0.339804
   20  C  2  Z   -0.732718   0.000000
   21  C  2  S    0.000000   1.772983
   22  C  2  X    0.000000  -0.659257
   23  C  2  Y    0.000000  -0.827650
   24  C  2  Z    0.770782   0.000000
   25  C  2 XX    0.000000  -0.038047
   26  C  2 YY    0.000000  -0.127168
   27  C  2 ZZ    0.000000   0.015845
   28  C  2 XY    0.000000   0.079218
   29  C  2 XZ   -0.026333   0.000000
   30  C  2 YZ    0.041564   0.000000
   31  O  3  S    0.000000  -0.003134
   32  O  3  S    0.000000   0.001062
   33  O  3  X    0.000000   0.157741
   34  O  3  Y    0.000000  -0.011738
   35  O  3  Z   -0.118827   0.000000
   36  O  3  S    0.000000  -0.566537
   37  O  3  X    0.000000  -0.274062
   38  O  3  Y    0.000000  -0.037216
   39  O  3  Z   -0.050426   0.000000
   40  O  3 XX    0.000000  -0.108858
   41  O  3 YY    0.000000  -0.013267
   42  O  3 ZZ    0.000000   0.067410
   43  O  3 XY    0.000000  -0.087643
   44  O  3 XZ   -0.025932   0.000000
   45  O  3 YZ   -0.012902   0.000000
   46  H  4  S    0.000000  -0.047176
   47  H  4  S    0.000000  -0.302573
   48  H  5  S    0.000000  -0.305975
   49  H  5  S    0.000000   0.193756
   50  H  6  S    0.000000  -0.239037
   51  H  6  S    0.000000  -0.063854
   52  H  7  S    0.000000  -0.148015
   53  H  7  S    0.000000  -0.039922

     ---------------------------------------------------------------------
     PROPERTIES FOR THE B3LYP    DFT FUNCTIONAL (RHF  TYPE) DENSITY MATRIX
     ---------------------------------------------------------------------

          -----------------
          ENERGY COMPONENTS
          -----------------

         WAVEFUNCTION NORMALIZATION =       1.0000000000

                ONE ELECTRON ENERGY =    -346.9840940266
                TWO ELECTRON ENERGY =     123.1639593512
           NUCLEAR REPULSION ENERGY =      70.1029928234
                                      ------------------
                       TOTAL ENERGY =    -153.7171418519

 ELECTRON-ELECTRON POTENTIAL ENERGY =     123.1639593512
  NUCLEUS-ELECTRON POTENTIAL ENERGY =    -499.3744810064
   NUCLEUS-NUCLEUS POTENTIAL ENERGY =      70.1029928234
                                      ------------------
             TOTAL POTENTIAL ENERGY =    -306.1075288318
               TOTAL KINETIC ENERGY =     152.3903869798
                 VIRIAL RATIO (V/T) =       2.0087062898

          ---------------------------------------
          MULLIKEN AND LOWDIN POPULATION ANALYSES
          ---------------------------------------

     ATOMIC MULLIKEN POPULATION IN EACH MOLECULAR ORBITAL

                      1          2          3          4          5

                  2.000000   2.000000   2.000000   2.000000   2.000000

    1            -0.000005   0.001309   1.997934   0.026840   0.866078
    2            -0.000469   1.998778   0.001244   0.235863   0.735802
    3             2.000601  -0.000511  -0.000002   1.624836   0.179339
    4            -0.000126   0.000004   0.000001   0.110807   0.029861
    5            -0.000000   0.000409   0.000004   0.001074   0.055100
    6             0.000000  -0.000003   0.000399   0.000800   0.077090
    7            -0.000001   0.000014   0.000420  -0.000220   0.056729

                      6          7          8          9         10

                  2.000000   2.000000   2.000000   2.000000   2.000000

    1             0.326776   0.529314   0.584303   0.118997   0.632077
    2             0.486821   0.483542   0.432828   0.536619   0.229757
    3             0.687352   0.416209   0.547586   1.344384   0.134652
    4             0.203606   0.117048   0.006274   0.000000   0.028315
    5             0.132303   0.154846   0.124117   0.000000   0.254861
    6             0.064776   0.023608   0.304844   0.000000   0.286618
    7             0.098367   0.275434   0.000047   0.000000   0.433720

                     11         12

                  2.000000   2.000000

    1             0.273875   1.041809
    2             0.257606   0.449393
    3             1.134503   0.508798
    4             0.100850   0.000000
    5             0.126314   0.000000
    6             0.096726   0.000000
    7             0.010128   0.000000

               ----- POPULATIONS IN EACH AO -----
                             MULLIKEN      LOWDIN
              1  C  1  S      1.99160     1.97919
              2  C  1  S      0.68790     0.36266
              3  C  1  X      0.74183     0.65374
              4  C  1  Y      0.72352     0.63622
              5  C  1  Z      0.62810     0.59153
              6  C  1  S      0.57604     0.33663
              7  C  1  X      0.27285     0.39884
              8  C  1  Y      0.23903     0.43066
              9  C  1  Z      0.52801     0.55697
             10  C  1 XX      0.01049     0.18018
             11  C  1 YY      0.01316     0.17367
             12  C  1 ZZ     -0.02634     0.10307
             13  C  1 XY      0.00843     0.01692
             14  C  1 XZ      0.00329     0.00589
             15  C  1 YZ      0.00141     0.00257
             16  C  2  S      1.99171     1.97711
             17  C  2  S      0.71551     0.36107
             18  C  2  X      0.66897     0.58229
             19  C  2  Y      0.75569     0.66235
             20  C  2  Z      0.57456     0.51499
             21  C  2  S      0.42940     0.29705
             22  C  2  X      0.08492     0.26070
             23  C  2  Y      0.20152     0.38053
             24  C  2  Z      0.39197     0.44445
             25  C  2 XX      0.01076     0.19131
             26  C  2 YY      0.01489     0.17987
             27  C  2 ZZ     -0.02752     0.09912
             28  C  2 XY      0.01592     0.03357
             29  C  2 XZ      0.01754     0.03880
             30  C  2 YZ      0.00194     0.00335
             31  O  3  S      1.99237     1.97596
             32  O  3  S      0.90781     0.71421
             33  O  3  X      0.93109     0.87200
             34  O  3  Y      0.88459     0.81818
             35  O  3  Z      1.11251     1.08083
             36  O  3  S      0.95343     0.45135
             37  O  3  X      0.54587     0.59279
             38  O  3  Y      0.48317     0.56461
             39  O  3  Z      0.73514     0.75058
             40  O  3 XX      0.00480     0.17916
             41  O  3 YY      0.02922     0.19927
             42  O  3 ZZ     -0.01113     0.15929
             43  O  3 XY      0.00335     0.00795
             44  O  3 XZ      0.00506     0.00886
             45  O  3 YZ      0.00047     0.00119
             46  H  4  S      0.47437     0.43361
             47  H  4  S      0.12227     0.21362
             48  H  5  S      0.53407     0.49197
             49  H  5  S      0.31496     0.35029
             50  H  6  S      0.52493     0.47521
             51  H  6  S      0.32993     0.35493
             52  H  7  S      0.52628     0.47934
             53  H  7  S      0.34835     0.36951

          ----- MULLIKEN ATOMIC OVERLAP POPULATIONS -----
          (OFF-DIAGONAL ELEMENTS NEED TO BE MULTIPLIED BY 2)

             1           2           3           4           5

    1    5.1411589
    2    0.6462241   4.5737135
    3   -0.0492365   0.3265178   8.1133961
    4   -0.0061014  -0.0329952   0.2385709   0.3830333
    5   -0.0595606   0.3841390  -0.0479799   0.0073964   0.5637231
    6    0.3603865  -0.0133019   0.0029208  -0.0000440  -0.0035180
    7    0.3664360  -0.0365130  -0.0064432   0.0067804   0.0048261

             6           7

    6    0.5448249
    7   -0.0364089   0.5759596

          TOTAL MULLIKEN AND LOWDIN ATOMIC POPULATIONS
       ATOM         MULL.POP.    CHARGE          LOW.POP.     CHARGE
    1 C             6.399307   -0.399307         6.428728   -0.428728
    2 C             5.847784    0.152216         6.026551   -0.026551
    3 O             8.577746   -0.577746         8.376245   -0.376245
    4 H             0.596640    0.403360         0.647234    0.352766
    5 H             0.849026    0.150974         0.842258    0.157742
    6 H             0.854859    0.145141         0.830139    0.169861
    7 H             0.874637    0.125363         0.848846    0.151154

          -------------------------------
          BOND ORDER AND VALENCE ANALYSIS     BOND ORDER THRESHOLD=0.050
          -------------------------------

                   BOND                       BOND                       BOND
  ATOM PAIR DIST  ORDER      ATOM PAIR DIST  ORDER      ATOM PAIR DIST  ORDER
    1   2  1.334  1.891        1   3  2.417  0.099        1   6  1.084  0.934
    1   7  1.088  0.938        2   3  1.363  1.056        2   5  1.087  0.936
    3   4  0.972  0.779

                       TOTAL       BONDED        FREE
      ATOM            VALENCE     VALENCE     VALENCE
    1 C                 3.851       3.851       0.000
    2 C                 3.888       3.888      -0.000
    3 O                 1.940       1.940       0.000
    4 H                 0.806       0.806       0.000
    5 H                 0.934       0.934       0.000
    6 H                 0.946       0.946       0.000
    7 H                 0.945       0.945       0.000

          ---------------------
          ELECTROSTATIC MOMENTS
          ---------------------

 POINT   1           X           Y           Z (BOHR)    CHARGE
                -0.014490    0.003666    0.000000        0.00 (A.U.)
         DX          DY          DZ         /D/  (DEBYE)
     0.363210   -0.932282   -0.000000    1.000536
 ...... END OF PROPERTY EVALUATION ......
 STEP CPU TIME =     0.02 TOTAL CPU TIME =         63.8 (      1.1 MIN)
 TOTAL WALL CLOCK TIME=         64.5 SECONDS, CPU UTILIZATION IS    98.87%
  $VIB   
          IVIB=   0 IATOM=   0 ICOORD=   0 E=     -153.7171418519
  4.404788695E-05-5.988615814E-06 0.000000000E+00-6.585841346E-05-2.487618199E-05
  0.000000000E+00 6.202708695E-05 3.575304451E-05 0.000000000E+00-2.725036400E-05
 -7.542105643E-06 0.000000000E+00-1.739769052E-06 1.294667926E-05 0.000000000E+00
 -4.538124709E-05-1.990021815E-05 0.000000000E+00 3.415481970E-05 9.607397823E-06
  0.000000000E+00
  3.632095687E-01-9.322824996E-01-3.048963581E-12
 ......END OF GEOMETRY SEARCH......
 STEP CPU TIME =     0.00 TOTAL CPU TIME =         63.8 (      1.1 MIN)
 TOTAL WALL CLOCK TIME=         64.5 SECONDS, CPU UTILIZATION IS    98.85%
                991401  WORDS OF DYNAMIC MEMORY USED
 EXECUTION OF GAMESS TERMINATED NORMALLY Wed Oct 16 08:15:02 2019
 DDI: 263640 bytes (0.3 MB / 0 MWords) used by master data server.

 ----------------------------------------
 CPU timing information for all processes
 ========================================
 0: 63.111 + 0.685 = 63.796
 ----------------------------------------
 ddikick.x: exited gracefully.
----- accounting info -----
Files used on the master node crcfe02.crc.nd.edu were:
-rw-r--r-- 1 cdrisko campus     517 Oct 16 08:13 /afs/crc.nd.edu/user/c/cdrisko/vinylAlcohol_opt.F05
-rw-r--r-- 1 cdrisko campus  210463 Oct 16 08:15 /afs/crc.nd.edu/user/c/cdrisko/vinylAlcohol_opt.F07
-rw-r--r-- 1 cdrisko campus 6660592 Oct 16 08:14 /afs/crc.nd.edu/user/c/cdrisko/vinylAlcohol_opt.F08
-rw-r--r-- 1 cdrisko campus 1701440 Oct 16 08:15 /afs/crc.nd.edu/user/c/cdrisko/vinylAlcohol_opt.F10
-rw-r--r-- 1 cdrisko campus 2039576 Oct 16 08:14 /afs/crc.nd.edu/user/c/cdrisko/vinylAlcohol_opt.F22
Wed Oct 16 08:15:05 EDT 2019
0.440u 0.254s 1:08.20 1.0%	0+0k 0+32io 0pf+0w
