----- GAMESS execution script 'rungms' -----
This job is running on host crcfe01.crc.nd.edu
under operating system Linux at Wed Oct 16 18:03:17 EDT 2019
Available scratch disk space (Kbyte units) at beginning of the job is
Filesystem      1K-blocks  Used  Available Use% Mounted on
AFS            2147483647     0 2147483647   0% /afs
GAMESS temporary binary files will be written to /afs/crc.nd.edu/user/c/cdrisko
GAMESS supplementary output files will be written to /afs/crc.nd.edu/user/c/cdrisko/scr
Copying input file vinylAlcohol_vib.inp to your run's scratch directory...

 Distributed Data Interface kickoff program.
 Initiating 1 compute processes on 1 nodes to run the following command:
 /afs/crc.nd.edu/x86_64_linux/g/gamess/nov-2017/gamess/gamess.00.x vinylAlcohol_vib 

          ******************************************************
          *         GAMESS VERSION = 11 NOV 2017 (R3)         *
          *             FROM IOWA STATE UNIVERSITY             *
          * M.W.SCHMIDT, K.K.BALDRIDGE, J.A.BOATZ, S.T.ELBERT, *
          *   M.S.GORDON, J.H.JENSEN, S.KOSEKI, N.MATSUNAGA,   *
          *          K.A.NGUYEN, S.J.SU, T.L.WINDUS,           *
          *       TOGETHER WITH M.DUPUIS, J.A.MONTGOMERY       *
          *         J.COMPUT.CHEM.  14, 1347-1363(1993)        *
          **************** 64 BIT INTEL VERSION ****************

  SINCE 1993, STUDENTS AND POSTDOCS WORKING AT IOWA STATE UNIVERSITY
  AND ALSO IN THEIR VARIOUS JOBS AFTER LEAVING ISU HAVE MADE IMPORTANT
  CONTRIBUTIONS TO THE CODE:
     IVANA ADAMOVIC, CHRISTINE AIKENS, YURI ALEXEEV, POOJA ARORA,
     ANDREY ASADCHEV, ROB BELL, PRADIPTA BANDYOPADHYAY, JONATHAN BENTZ,
     BRETT BODE, KURT BRORSEN, CALEB CARLIN, GALINA CHABAN, WEI CHEN,
     CHEOL HO CHOI, PAUL DAY, ALBERT DEFUSCO, NUWAN DESILVA, TIM DUDLEY,
     DMITRI FEDOROV, ALEX FINDLATER, GRAHAM FLETCHER, MARK FREITAG,
     KURT GLAESEMANN, ANASTASIA GUININA,
     DAN KEMP, GRANT MERRILL, NORIYUKI MINEZAWA, JONATHAN MULLIN,
     TAKESHI NAGATA, SEAN NEDD, HEATHER NETZLOFF, BOSILJKA NJEGIC, RYAN OLSON,
     MIKE PAK, BUU PHAM,
     SPENCER PRUITT, LUKE ROSKOP, JIM SHOEMAKER, LYUDMILA SLIPCHENKO,
     TONY SMITH, SAROM SOK LEANG, JIE SONG, TETSUYA TAKETSUGU, SIMON WEBB,
     PENG XU, SOOHAENG YOO, FEDERICO ZAHARIEV

  ADDITIONAL CODE HAS BEEN PROVIDED BY COLLABORATORS IN OTHER GROUPS:
     IOWA STATE UNIVERSITY:
          JOE IVANIC, AARON WEST, LAIMUTIS BYTAUTAS, KLAUS RUEDENBERG
     UNIVERSITY OF TOKYO: KIMIHIKO HIRAO, TAKAHITO NAKAJIMA,
          TAKAO TSUNEDA, MUNEAKI KAMIYA, SUSUMU YANAGISAWA,
          KIYOSHI YAGI, MAHITO CHIBA, SEIKEN TOKURA, NAOAKI KAWAKAMI
     UNIVERSITY OF AARHUS: FRANK JENSEN
     UNIVERSITY OF IOWA: VISVALDAS KAIRYS, HUI LI
     NATIONAL INST. OF STANDARDS AND TECHNOLOGY: WALT STEVENS, DAVID GARMER
     UNIVERSITY OF PISA: BENEDETTA MENNUCCI, JACOPO TOMASI
     UNIVERSITY OF MEMPHIS: HENRY KURTZ, PRAKASHAN KORAMBATH
     UNIVERSITY OF ALBERTA: TOBY ZENG, MARIUSZ KLOBUKOWSKI
     UNIVERSITY OF NEW ENGLAND: MARK SPACKMAN
     MIE UNIVERSITY: HIROAKI UMEDA
     NAT. INST. OF ADVANCED INDUSTRIAL SCIENCE AND TECHNOLOGY: KAZUO KITAURA
     MICHIGAN STATE UNIVERSITY:
          KAROL KOWALSKI, MARTA WLOCH, JEFFREY GOUR, JESSE LUTZ,
          WEI LI, PIOTR PIECUCH
     UNIVERSITY OF SILESIA: MONIKA MUSIAL, STANISLAW KUCHARSKI
     FACULTES UNIVERSITAIRES NOTRE-DAME DE LA PAIX:
          OLIVIER QUINET, BENOIT CHAMPAGNE
     UNIVERSITY OF CALIFORNIA - SANTA BARBARA: BERNARD KIRTMAN
     INSTITUTE FOR MOLECULAR SCIENCE:
          KAZUYA ISHIMURA, MICHIO KATOUDA, AND SHIGERU NAGASE
     UNIVERSITY OF NOTRE DAME: ANNA POMOGAEVA, DAN CHIPMAN
     KYUSHU UNIVERSITY:
          HARUYUKI NAKANO,
          FENG LONG GU, JACEK KORCHOWIEC, MARCIN MAKOWSKI, AND YURIKO AOKI,
          HIROTOSHI MORI AND EISAKU MIYOSHI
     PENNSYLVANIA STATE UNIVERSITY:
          TZVETELIN IORDANOV, CHET SWALINA, JONATHAN SKONE,
          SHARON HAMMES-SCHIFFER
     WASEDA UNIVERSITY:
          MASATO KOBAYASHI, TOMOKO AKAMA, TSUGUKI TOUMA,
          TAKESHI YOSHIKAWA, YASUHIRO IKABATA, JUNJI SEINO,
          YUYA NAKAJIMA, HIROMI NAKAI
     NANJING UNIVERSITY: SHUHUA LI
     UNIVERSITY OF NEBRASKA:
          PEIFENG SU, DEJUN SI, NANDUN THELLAMUREGE, YALI WANG, HUI LI
     UNIVERSITY OF ZURICH: ROBERTO PEVERATI, KIM BALDRIDGE
     N. COPERNICUS UNIVERSITY AND JACKSON STATE UNIVERSITY:
          MARIA BARYSZ
     UNIVERSITY OF COPENHAGEN: Jimmy Kromann, CASPER STEINMANN
     TOKYO INSTITUTE OF TECHNOLOGY: HIROYA NAKATA
     NAGOYA UNIVERSITY: YOSHIO NISHIMOTO, STEPHAN IRLE
     MOSCOW STATE UNIVERSITY: VLADIMIR MIRONOV

 EXECUTION OF GAMESS BEGUN Wed Oct 16 18:03:17 2019

            ECHO OF THE FIRST FEW INPUT CARDS -
 INPUT CARD> $CONTRL SCFTYP=RHF RUNTYP=HESSIAN DFTTYP=B3LYP                                 
 INPUT CARD>       ISPHER=1 COORD=CART $END                                                 
 INPUT CARD> $BASIS GBASIS=N31 NGAUSS=6 NDFUNC=1 $END                                       
 INPUT CARD> $FORCE METHOD=SEMINUM $END                                                     
 INPUT CARD> $DATA                                                                          
 INPUT CARD>Title Vibrational Spectrum Calculation for Vinyl Alcohol                        
 INPUT CARD>C1                                                                              
 INPUT CARD>C 6 0.00000000 0.00000000 0.00000000                                            
 INPUT CARD>C 6 1.17335161 -0.63571529 0.00004703                                           
 INPUT CARD>O 8 2.41548533 -0.07379898 0.00008756                                           
 INPUT CARD>H 1 2.31876422 0.89322338 -0.00009738                                           
 INPUT CARD>H 1 1.25409326 -1.71942119 0.00003008                                           
 INPUT CARD>H 1 -0.92547757 -0.56396200 -0.00001886                                         
 INPUT CARD>H 1 -0.07390279 1.08567115 0.00003125                                           
 INPUT CARD> $END                                                                           
    1000000 WORDS OF MEMORY AVAILABLE


                    * * * WARNING * * *
 OLD KEYWORD COORD=CART SELECTED, AUTOMATICALLY CHANGED TO COORD=PRINAXIS.
 YOUR MOLECULE'S COORDINATES WILL BE CHANGED TO PRINCIPAL AXES BY
   A) TRANSLATION TO THE CENTER OF MASS, THEN
   B) ROTATION TO HAVE A DIAGONAL MOMENT OF INERTIA TENSOR.

 HOWEVER, NOTHING ELSE IN YOUR INPUT WILL BE ROTATED IN THE SAME WAY,
 SO IF YOU HAVE A $VEC, $VIB, $GRAD, $HESS, EFP PARTICLE COORDINATES,
 OR ANYTHING ELSE THAT DEPENDS ON THE INITIAL ORIENTATION, THAT DATA
 WILL NOT BE USED CORRECTLY IN THIS RUN.

 THE PURPOSE OF COORD=PRINAXIS IS TO BE USED ONCE, ONLY AT THE VERY
 BEGINNING OF A SERIES OF COMPUTATIONS, PERHAPS TO FIND THE SYMMETRY
 UNIQUE ATOMS FROM AN ARBITRARY INITIAL ORIENTATION.

 AFTER THE FIRST RUN, YOU SHOULD USE ONLY COORD=UNIQUE, TO ENSURE THAT
 THE COORDINATES WHICH YOU READ IN ARE THE COORDINATES THAT ARE USED.


     BASIS OPTIONS
     -------------
     GBASIS=N31          IGAUSS=       6      POLAR=POPN31  
     NDFUNC=       1     NFFUNC=       0     DIFFSP=       F
     NPFUNC=       0      DIFFS=       F     BASNAM=        


     RUN TITLE
     ---------
 Title Vibrational Spectrum Calculation for Vinyl Alcohol                        

 THE POINT GROUP OF THE MOLECULE IS C1      
 THE ORDER OF THE PRINCIPAL AXIS IS     0

 THE MOMENTS OF INERTIA ARE (AMU-ANGSTROM**2)
 IXX=     8.341   IYY=    48.233   IZZ=    56.574

 ATOM      ATOMIC                      COORDINATES (BOHR)
           CHARGE         X                   Y                   Z
 C           6.0    -2.3739374261        0.3918235503       -0.0000019113
 C           6.0    -0.1569005748       -0.8100137659       -0.0000040287
 O           8.0     2.1906358029        0.2513145407        0.0000215322
 H           1.0     2.0082794267        2.0787637939       -0.0002869054
 H           1.0    -0.0047916916       -2.8579559830       -0.0000804662
 H           1.0    -4.1230813513       -0.6735080893       -0.0000048601
 H           1.0    -2.5131218837        2.4434765804        0.0001012270

          INTERNUCLEAR DISTANCES (ANGS.)
          ------------------------------

                1 C          2 C          3 O          4 H          5 H     

   1 C       0.0000000    1.3344991 *  2.4166124 *  2.4848572 *  2.1281821 *
   2 C       1.3344991 *  0.0000000    1.3633217 *  1.9103988 *  1.0867096 *
   3 O       2.4166124 *  1.3633217 *  0.0000000    0.9718473 *  2.0141758 *
   4 H       2.4848572 *  1.9103988 *  0.9718473 *  0.0000000    2.8212472 *
   5 H       2.1281821 *  1.0867096 *  2.0141758 *  2.8212472 *  0.0000000  
   6 H       1.0837721 *  2.1000553 *  3.3767281    3.5564721    2.4669039 *
   7 H       1.0881836 *  2.1257504 *  2.7461654 *  2.4003940 *  3.1035651  

                6 H          7 H     

   1 C       1.0837721 *  1.0881836 *
   2 C       2.1000553 *  2.1257504 *
   3 O       3.3767281    2.7461654 *
   4 H       3.5564721    2.4003940 *
   5 H       2.4669039 *  3.1035651  
   6 H       0.0000000    1.8564668 *
   7 H       1.8564668 *  0.0000000  

  * ... LESS THAN  3.000


     ATOMIC BASIS SET
     ----------------
 THE CONTRACTED PRIMITIVE FUNCTIONS HAVE BEEN UNNORMALIZED
 THE CONTRACTED BASIS FUNCTIONS ARE NOW NORMALIZED TO UNITY

  SHELL TYPE  PRIMITIVE        EXPONENT          CONTRACTION COEFFICIENT(S)

 C         

      1   S       1          3047.5248800    0.001834737132
      1   S       2           457.3695180    0.014037322813
      1   S       3           103.9486850    0.068842622264
      1   S       4            29.2101553    0.232184443216
      1   S       5             9.2866630    0.467941348435
      1   S       6             3.1639270    0.362311985337

      2   L       7             7.8682723   -0.119332419775    0.068999066591
      2   L       8             1.8812885   -0.160854151696    0.316423960957
      2   L       9             0.5442493    1.143456437840    0.744308290898

      3   L      10             0.1687145    1.000000000000    1.000000000000

      4   D      11             0.8000000    1.000000000000

 C         

      5   S      12          3047.5248800    0.001834737132
      5   S      13           457.3695180    0.014037322813
      5   S      14           103.9486850    0.068842622264
      5   S      15            29.2101553    0.232184443216
      5   S      16             9.2866630    0.467941348435
      5   S      17             3.1639270    0.362311985337

      6   L      18             7.8682723   -0.119332419775    0.068999066591
      6   L      19             1.8812885   -0.160854151696    0.316423960957
      6   L      20             0.5442493    1.143456437840    0.744308290898

      7   L      21             0.1687145    1.000000000000    1.000000000000

      8   D      22             0.8000000    1.000000000000

 O         

      9   S      23          5484.6716600    0.001831074430
      9   S      24           825.2349460    0.013950172200
      9   S      25           188.0469580    0.068445078098
      9   S      26            52.9645000    0.232714335992
      9   S      27            16.8975704    0.470192897984
      9   S      28             5.7996353    0.358520852987

     10   L      29            15.5396162   -0.110777549525    0.070874268231
     10   L      30             3.5999336   -0.148026262701    0.339752839147
     10   L      31             1.0137618    1.130767015354    0.727158577316

     11   L      32             0.2700058    1.000000000000    1.000000000000

     12   D      33             0.8000000    1.000000000000

 H         

     13   S      34            18.7311370    0.033494604338
     13   S      35             2.8253944    0.234726953484
     13   S      36             0.6401217    0.813757326146

     14   S      37             0.1612778    1.000000000000

 H         

     15   S      38            18.7311370    0.033494604338
     15   S      39             2.8253944    0.234726953484
     15   S      40             0.6401217    0.813757326146

     16   S      41             0.1612778    1.000000000000

 H         

     17   S      42            18.7311370    0.033494604338
     17   S      43             2.8253944    0.234726953484
     17   S      44             0.6401217    0.813757326146

     18   S      45             0.1612778    1.000000000000

 H         

     19   S      46            18.7311370    0.033494604338
     19   S      47             2.8253944    0.234726953484
     19   S      48             0.6401217    0.813757326146

     20   S      49             0.1612778    1.000000000000

 TOTAL NUMBER OF BASIS SET SHELLS             =   20
 NUMBER OF CARTESIAN GAUSSIAN BASIS FUNCTIONS =   53
 NOTE: THIS RUN WILL RESTRICT THE MO VARIATION SPACE TO SPHERICAL HARMONICS.
 THE NUMBER OF ORBITALS KEPT IN THE VARIATIONAL SPACE WILL BE PRINTED LATER.
 NUMBER OF ELECTRONS                          =   24
 CHARGE OF MOLECULE                           =    0
 SPIN MULTIPLICITY                            =    1
 NUMBER OF OCCUPIED ORBITALS (ALPHA)          =   12
 NUMBER OF OCCUPIED ORBITALS (BETA )          =   12
 TOTAL NUMBER OF ATOMS                        =    7
 THE NUCLEAR REPULSION ENERGY IS       70.1037652838

     LEBEDEV GRID-BASED DFT OPTIONS
     ------------------------------
     DFTTYP=B3LYP   
     NRAD  =      96     NLEB  =     302
     NRAD0 =      96     NLEB0 =     302
     SWOFF =    5.00E-03 (PURE SCF -> DFT)
     SWITCH=    3.00E-04 (COARSE -> TIGHT GRID)
     THRESH=    0.00E+00 GTHRE=    1.00E+00

 GRIMME'S EMPIRICAL DISPERSION CORRECTION= F

     $CONTRL OPTIONS
     ---------------
 SCFTYP=RHF          RUNTYP=HESSIAN      EXETYP=RUN     
 MPLEVL=       0     CITYP =NONE         CCTYP =NONE         VBTYP =NONE    
 DFTTYP=B3LYP        TDDFT =NONE    
 MULT  =       1     ICHARG=       0     NZVAR =       0     COORD =PRINAXIS
 PP    =NONE         RELWFN=NONE         LOCAL =NONE         NUMGRD=       F
 ISPHER=       1     NOSYM =       0     MAXIT =      30     UNITS =ANGS    
 PLTORB=       F     MOLPLT=       F     AIMPAC=       F     FRIEND=        
 NPRINT=       7     IREST =       0     GEOM  =INPUT   
 NORMF =       0     NORMP =       0     ITOL  =      20     ICUT  =       9
 INTTYP=BEST         GRDTYP=BEST         QMTTOL= 1.0E-06

     $SYSTEM OPTIONS
     ---------------
  REPLICATED MEMORY=     1000000 WORDS (ON EVERY NODE).
 DISTRIBUTED MEMDDI=           0 MILLION WORDS IN AGGREGATE,
 MEMDDI DISTRIBUTED OVER   1 PROCESSORS IS           0 WORDS/PROCESSOR.
 TOTAL MEMORY REQUESTED ON EACH PROCESSOR=     1000000 WORDS.
 TIMLIM=      525600.00 MINUTES, OR     365.0 DAYS.
 PARALL= F  BALTYP=  DLB     KDIAG=    0  COREFL= F
 MXSEQ2=     300 MXSEQ3=     150  mem10=         0

          ----------------
          PROPERTIES INPUT
          ----------------

     MOMENTS            FIELD           POTENTIAL          DENSITY
 IEMOM =       1   IEFLD =       0   IEPOT =       0   IEDEN =       0
 WHERE =COMASS     WHERE =NUCLEI     WHERE =NUCLEI     WHERE =NUCLEI  
 OUTPUT=BOTH       OUTPUT=BOTH       OUTPUT=BOTH       OUTPUT=BOTH    
 IEMINT=       0   IEFINT=       0                     IEDINT=       0
                                                       MORB  =       0
          EXTRAPOLATION IN EFFECT
          DIIS IN EFFECT
 ORBITAL PRINTING OPTION: NPREO=     1    53     2     1

     -------------------------------
     INTEGRAL TRANSFORMATION OPTIONS
     -------------------------------
     NWORD  =            0
     CUTOFF = 1.0E-09     MPTRAN =       0
     DIRTRF =       F     AOINTS =DUP     

          ----------------------
          INTEGRAL INPUT OPTIONS
          ----------------------
 NOPK  =       1 NORDER=       0 SCHWRZ=       T

     ------------------------------------------
     THE POINT GROUP IS C1 , NAXIS= 0, ORDER= 1
     ------------------------------------------

 -- VARIATIONAL SPACE WILL BE RESTRICTED TO PURE SPHERICAL HARMONICS ONLY --
 AFTER EXCLUDING CONTAMINANT COMBINATIONS FROM THE CARTESIAN GAUSSIAN BASIS
 SET, THE NUMBER OF SPHERICAL HARMONICS KEPT IN THE VARIATION SPACE IS   50

     DIMENSIONS OF THE SYMMETRY SUBSPACES ARE
 A   =   50

 ..... DONE SETTING UP THE RUN .....
 STEP CPU TIME =     0.01 TOTAL CPU TIME =          0.0 (      0.0 MIN)
 TOTAL WALL CLOCK TIME=          0.0 SECONDS, CPU UTILIZATION IS    50.00%

     ---------------------------------
     HESSIAN MATRIX CONTROL PARAMETERS
     ---------------------------------
     METHOD=SEMINUM    NVIB  =       2   VIBSIZ= 0.01000
     RDHESS=       F   PURIFY=       F   PRTIFC=       F
     VIBANL=       T   DECOMP=       F   PROJCT=       F
     SCLFAC= 1.00000   PRTSCN=       F   NPRT  =       0
     PULCOR=       F   NPUN  =       0   REDOVB=       T
     HSSTYP=GENERAL 
     THERMOCHEMISTRY WILL BE PRINTED FOR    1 TEMPERATURES:
      298.15000

               * * * EFFICIENCY NOTE * * *
 THIS CALCULATION CAN BE RUN WITH DIFFERENTIATION METHOD=ANALYTIC
 THIS MIGHT BE MORE ACCURATE AND/OR FASTER THAN YOUR CHOICE,
 BUT THE REQUESTED CALCULATION METHOD=SEMINUM  IS PROCEEDING.

1   ATOM  0
                                        -------------------
   COORD  0                             NUCLEAR COORDINATES
                                        -------------------
     VIB  0

                       ATOM             X              Y              Z

                 1  C               -2.373937       0.391824      -0.000002
                 2  C               -0.156901      -0.810014      -0.000004
                 3  O                2.190636       0.251315       0.000022
                 4  H                2.008279       2.078764      -0.000287
                 5  H               -0.004792      -2.857956      -0.000080
                 6  H               -4.123081      -0.673508      -0.000005
                 7  H               -2.513122       2.443477       0.000101

          ********************
          1 ELECTRON INTEGRALS
          ********************
 ...... END OF ONE-ELECTRON INTEGRALS ......
 STEP CPU TIME =     0.00 TOTAL CPU TIME =          0.0 (      0.0 MIN)
 TOTAL WALL CLOCK TIME=          0.0 SECONDS, CPU UTILIZATION IS    50.00%

          -------------
          GUESS OPTIONS
          -------------
          GUESS =HUCKEL            NORB  =       0          NORDER=       0
          MIX   =       F          PRTMO =       F          PUNMO =       F
          TOLZ  = 1.0E-08          TOLE  = 1.0E-05
          SYMDEN=       F          PURIFY=       F

 INITIAL GUESS ORBITALS GENERATED BY HUCKEL   ROUTINE.
 HUCKEL GUESS REQUIRES     27154 WORDS.

 STATISTICS FOR GENERATION OF SYMMETRY ORBITAL -Q- MATRIX
 NUMBER OF CARTESIAN ATOMIC ORBITALS=         53
 NUMBER OF SPHERICAL CONTAMINANTS DROPPED=     3
 NUMBER OF LINEARLY DEPENDENT MOS DROPPED=     0
 TOTAL NUMBER OF MOS IN VARIATION SPACE=      50

 SYMMETRIES FOR INITIAL GUESS ORBITALS FOLLOW.   BOTH SET(S).
    12 ORBITALS ARE OCCUPIED (    3 CORE ORBITALS).
     4=A        5=A        6=A        7=A        8=A        9=A       10=A   
    11=A       12=A       13=A       14=A       15=A       16=A       17=A   
    18=A       19=A       20=A       21=A       22=A   
 ...... END OF INITIAL ORBITAL SELECTION ......
 STEP CPU TIME =     0.00 TOTAL CPU TIME =          0.0 (      0.0 MIN)
 TOTAL WALL CLOCK TIME=          0.0 SECONDS, CPU UTILIZATION IS    33.33%

                    ----------------------
                    AO INTEGRAL TECHNOLOGY
                    ----------------------
     S,P,L SHELL ROTATED AXIS INTEGRALS, REPROGRAMMED BY
        KAZUYA ISHIMURA (IMS) AND JOSE SIERRA (SYNSTAR).
     S,P,D,L SHELL ROTATED AXIS INTEGRALS PROGRAMMED BY
        KAZUYA ISHIMURA (INSTITUTE FOR MOLECULAR SCIENCE).
     S,P,D,F,G SHELL TO TOTAL QUARTET ANGULAR MOMENTUM SUM 5,
        ERIC PROGRAM BY GRAHAM FLETCHER (ELORET AND NASA ADVANCED
        SUPERCOMPUTING DIVISION, AMES RESEARCH CENTER).
     S,P,D,F,G,L SHELL GENERAL RYS QUADRATURE PROGRAMMED BY
        MICHEL DUPUIS (PACIFIC NORTHWEST NATIONAL LABORATORY).

          --------------------
          2 ELECTRON INTEGRALS
          --------------------

 THE -PK- OPTION IS OFF, THE INTEGRALS ARE NOT IN SUPERMATRIX FORM.
 STORING   15000 INTEGRALS/RECORD ON DISK, USING 12 BYTES/INTEGRAL.
 TWO ELECTRON INTEGRAL EVALUATION REQUIRES   90606 WORDS OF MEMORY.
 SCHWARZ INEQUALITY OVERHEAD:      1430 INTEGRALS, T=        0.00
 II,JST,KST,LST =  1  1  1  1 NREC =         1 INTLOC =    1
 II,JST,KST,LST =  2  1  1  1 NREC =         1 INTLOC =    2
 II,JST,KST,LST =  3  1  1  1 NREC =         1 INTLOC =   34
 II,JST,KST,LST =  4  1  1  1 NREC =         1 INTLOC =  214
 II,JST,KST,LST =  5  1  1  1 NREC =         1 INTLOC = 1189
 II,JST,KST,LST =  6  1  1  1 NREC =         1 INTLOC = 3033
 II,JST,KST,LST =  7  1  1  1 NREC =         2 INTLOC =   36
 II,JST,KST,LST =  8  1  1  1 NREC =         3 INTLOC = 5893
 II,JST,KST,LST =  9  1  1  1 NREC =         7 INTLOC =   89
 II,JST,KST,LST = 10  1  1  1 NREC =         7 INTLOC = 9868
 II,JST,KST,LST = 11  1  1  1 NREC =        11 INTLOC = 9499
 II,JST,KST,LST = 12  1  1  1 NREC =        17 INTLOC =13917
 II,JST,KST,LST = 13  1  1  1 NREC =        30 INTLOC = 6161
 II,JST,KST,LST = 14  1  1  1 NREC =        33 INTLOC = 5460
 II,JST,KST,LST = 15  1  1  1 NREC =        36 INTLOC = 9882
 II,JST,KST,LST = 16  1  1  1 NREC =        39 INTLOC =14744
 II,JST,KST,LST = 17  1  1  1 NREC =        43 INTLOC =10430
 II,JST,KST,LST = 18  1  1  1 NREC =        46 INTLOC = 8534
 II,JST,KST,LST = 19  1  1  1 NREC =        50 INTLOC = 4938
 II,JST,KST,LST = 20  1  1  1 NREC =        54 INTLOC = 2918
 SCHWARZ INEQUALITY TEST SKIPPED         652 INTEGRAL BLOCKS.
 TOTAL NUMBER OF NONZERO TWO-ELECTRON INTEGRALS =              866916
         58 INTEGRAL RECORDS WERE STORED ON DISK FILE  8.
  ...... END OF TWO-ELECTRON INTEGRALS .....
 STEP CPU TIME =     0.09 TOTAL CPU TIME =          0.1 (      0.0 MIN)
 TOTAL WALL CLOCK TIME=          0.1 SECONDS, CPU UTILIZATION IS    83.33%

          --------------------------
             R-B3LYP SCF CALCULATION
          --------------------------

     NUCLEAR ENERGY =        70.1037652838
     MAXIT =   30     NPUNCH=    2
     EXTRAP=T  DAMP=F  SHIFT=F  RSTRCT=F  DIIS=T  DEM=F  SOSCF=F
         DENSITY MATRIX CONVERGENCE THRESHOLD=  1.00E-05
     COARSE -> FINE DFT GRID SWITCH THRESHOLD=  3.00E-04 (SWITCH IN $DFT)
                   HF -> DFT SWITCH THRESHOLD=  5.00E-03 (SWOFF IN $DFT)
     MEMORY REQUIRED FOR RHF ITERS=    307447 WORDS.

     EXCHANGE FUNCTIONAL   =B88&HFX   
     CORRELATION FUNCTIONAL=LYP88&VWN5
     DFT THRESHOLD         =.493E-08
 FOR AN EULER-MACLAURIN QUADRATURE USING  96 RADIAL POINTS:
 SMALLEST GAUSSIAN PRIMITIVE EXPONENT=        0.1612777588 OF TYPE -S-
 ON ATOM NUMBER   4 HAS RADIAL NORMALIZATION=  1.000000
  LARGEST GAUSSIAN PRIMITIVE EXPONENT=     5484.6716600000 OF TYPE -S-
 ON ATOM NUMBER   3 HAS RADIAL NORMALIZATION=  1.000000
 DFT IS SWITCHED OFF, PERFORMING PURE SCF UNTIL SWOFF THRESHOLD IS REACHED.

 ITER EX DEM     TOTAL ENERGY        E CHANGE  DENSITY CHANGE    DIIS ERROR
          * * *   INITIATING DIIS PROCEDURE   * * *
   1  0  0     -152.4561060933  -152.4561060933   0.242305370   0.411590502
   2  1  0     -152.8565477211    -0.4004416278   0.099866110   0.083186906
   3  2  0     -152.8809617294    -0.0244140083   0.028232667   0.028836620
   4  3  0     -152.8857900227    -0.0048282933   0.012077567   0.007494358
   5  4  0     -152.8862704371    -0.0004804144   0.002683331   0.002319458
 CONVERGED TO SWOFF, SO DFT CALCULATION IS NOW SWITCHED ON.
          * * *   INITIATING DIIS PROCEDURE   * * *
   6  5  0     -153.7001442878    -0.8138738507   0.071654257   0.056985066
   7  6  0     -153.7120465881    -0.0119023003   0.036279928   0.021263539
   8  7  0     -153.7126365715    -0.0005899834   0.018239988   0.018345989
   9  8  0     -153.7142198443    -0.0015832728   0.003453252   0.003971082
  10  9  0     -153.7142689063    -0.0000490621   0.000457996   0.000286011
  11 10  0     -153.7142693919    -0.0000004856   0.000275695   0.000137111
  12 11  0     -153.7142694789    -0.0000000869   0.000119046   0.000096038
  13 12  0     -153.7142695215    -0.0000000426   0.000003655   0.000005237
  14 13  0     -153.7142695216    -0.0000000001   0.000000840   0.000000756
  15 14  0     -153.7142695216     0.0000000000   0.000000096   0.000000112

          -----------------
          DENSITY CONVERGED
          -----------------
     TIME TO FORM FOCK OPERATORS=       6.3 SECONDS (       0.4 SEC/ITER)
     TIME TO SOLVE SCF EQUATIONS=       0.0 SECONDS (       0.0 SEC/ITER)

 FINAL R-B3LYP ENERGY IS     -153.7142695216 AFTER  15 ITERATIONS
 DFT EXCHANGE + CORRELATION ENERGY =       -16.8380875019
 TOTAL ELECTRON NUMBER             =        23.9999844467

          ------------
          EIGENVECTORS
          ------------

                      1          2          3          4          5
                  -19.1682   -10.2333   -10.1587    -1.0515    -0.7409
                     A          A          A          A          A   
    1  C  1  S    0.000037   0.004940   0.995034  -0.015864  -0.161711
    2  C  1  S    0.000090  -0.002012   0.035386   0.029222   0.305641
    3  C  1  X   -0.000225  -0.001656   0.000805   0.024312   0.082428
    4  C  1  Y    0.000241   0.001029  -0.000399  -0.005230  -0.054009
    5  C  1  Z   -0.000000   0.000000   0.000000   0.000000   0.000002
    6  C  1  S   -0.002079   0.007816  -0.025440   0.022327   0.234444
    7  C  1  X   -0.002747   0.002420  -0.001487   0.018555   0.008649
    8  C  1  Y   -0.003253  -0.003504   0.000585   0.013779   0.006088
    9  C  1  Z   -0.000000  -0.000000  -0.000000  -0.000000   0.000001
   10  C  1 XX   -0.000299  -0.000828   0.000675   0.004375   0.007982
   11  C  1 YY    0.000296   0.000174   0.000042  -0.001867   0.006161
   12  C  1 ZZ    0.000003   0.000654  -0.000717  -0.002508  -0.014143
   13  C  1 XY   -0.000055   0.000979  -0.000614  -0.001324  -0.003007
   14  C  1 XZ   -0.000000  -0.000000  -0.000000  -0.000000  -0.000000
   15  C  1 YZ   -0.000000  -0.000000   0.000000   0.000000   0.000001
   16  C  2  S    0.000018   0.994981  -0.005164  -0.078872  -0.141372
   17  C  2  S   -0.000063   0.035262  -0.002521   0.149091   0.280592
   18  C  2  X    0.000501   0.001200   0.001619   0.102957  -0.140602
   19  C  2  Y    0.000123   0.001060  -0.000982   0.056386   0.024277
   20  C  2  Z   -0.000000  -0.000000  -0.000000  -0.000000  -0.000000
   21  C  2  S    0.008249  -0.018783   0.008248   0.033973   0.189581
   22  C  2  X    0.004857   0.005525  -0.002938  -0.011076  -0.033915
   23  C  2  Y    0.005845   0.001695   0.002052  -0.021393  -0.013182
   24  C  2  Z    0.000000   0.000000   0.000000  -0.000001  -0.000001
   25  C  2 XX   -0.000151   0.001706  -0.000985   0.014677   0.003327
   26  C  2 YY    0.000386  -0.000302   0.000239  -0.002003   0.005725
   27  C  2 ZZ   -0.000235  -0.001403   0.000746  -0.012674  -0.009052
   28  C  2 XY   -0.000114   0.000164   0.000996   0.015230  -0.012910
   29  C  2 XZ   -0.000000   0.000000  -0.000000   0.000000   0.000000
   30  C  2 YZ    0.000000   0.000000   0.000000  -0.000000   0.000000
   31  O  3  S    0.995132   0.000139  -0.000003  -0.204324   0.054479
   32  O  3  S    0.029634   0.001070  -0.000117   0.449044  -0.129083
   33  O  3  X   -0.001716   0.000465   0.000081  -0.109088  -0.070488
   34  O  3  Y    0.000610   0.000144   0.000015   0.048633  -0.090535
   35  O  3  Z   -0.000000   0.000000   0.000000  -0.000016   0.000011
   36  O  3  S   -0.019826  -0.004216  -0.000266   0.452166  -0.138433
   37  O  3  X    0.005433   0.003328   0.000089  -0.056328  -0.043586
   38  O  3  Y   -0.000112   0.001999  -0.000212   0.025977  -0.046531
   39  O  3  Z    0.000000   0.000000  -0.000000  -0.000008   0.000006
   40  O  3 XX   -0.000440  -0.001668   0.000040   0.002976   0.012139
   41  O  3 YY   -0.000016   0.000352   0.000123   0.011690  -0.011737
   42  O  3 ZZ    0.000456   0.001316  -0.000163  -0.014666  -0.000402
   43  O  3 XY   -0.000246  -0.001640   0.000056  -0.000009   0.003737
   44  O  3 XZ   -0.000000  -0.000000   0.000000   0.000002   0.000000
   45  O  3 YZ    0.000000  -0.000000  -0.000000  -0.000005   0.000002
   46  H  4  S    0.000653  -0.000038  -0.000075   0.124085  -0.073164
   47  H  4  S    0.002195   0.000058   0.000159  -0.004494  -0.010386
   48  H  5  S   -0.000180  -0.001142  -0.000226   0.022842   0.082438
   49  H  5  S    0.001611   0.005029   0.000261  -0.006569   0.017159
   50  H  6  S   -0.000340  -0.000482  -0.001132   0.004220   0.090528
   51  H  6  S   -0.001308  -0.000254   0.004824   0.008001   0.025409
   52  H  7  S    0.000424  -0.000124  -0.001109   0.004157   0.084204
   53  H  7  S    0.001447   0.001180   0.004945  -0.003249   0.014385

                      6          7          8          9         10
                   -0.6134    -0.4886    -0.4727    -0.3802    -0.3795
                     A          A          A          A          A   
    1  C  1  S   -0.100525   0.046340   0.028378  -0.000059   0.010220
    2  C  1  S    0.193133  -0.095572  -0.061032   0.000123  -0.021873
    3  C  1  X   -0.042960   0.157147   0.303119  -0.000328   0.100566
    4  C  1  Y    0.044847  -0.244453   0.078259  -0.001718   0.353649
    5  C  1  Z    0.000002  -0.000015   0.000000   0.130055   0.000629
    6  C  1  S    0.183798  -0.111896  -0.079719   0.000119  -0.011629
    7  C  1  X   -0.008362   0.056901   0.122592  -0.000166   0.048435
    8  C  1  Y    0.016083  -0.076945   0.049743  -0.000621   0.123472
    9  C  1  Z   -0.000000  -0.000005   0.000000   0.071072   0.000341
   10  C  1 XX    0.001302   0.003292   0.002415   0.000094  -0.019768
   11  C  1 YY    0.007393  -0.008223  -0.005938  -0.000097   0.020211
   12  C  1 ZZ   -0.008695   0.004931   0.003523   0.000003  -0.000443
   13  C  1 XY    0.005237  -0.010718  -0.010291   0.000054  -0.012716
   14  C  1 XZ   -0.000000  -0.000001   0.000000   0.009520   0.000045
   15  C  1 YZ    0.000001  -0.000001  -0.000000  -0.003592  -0.000016
   16  C  2  S    0.088442  -0.060774  -0.041625   0.000049  -0.010111
   17  C  2  S   -0.185486   0.125123   0.087775  -0.000101   0.020927
   18  C  2  X   -0.198143  -0.245323  -0.027166  -0.000162   0.001323
   19  C  2  Y    0.124149  -0.161338   0.295764   0.001169  -0.233816
   20  C  2  Z   -0.000004  -0.000026   0.000002   0.291335   0.001373
   21  C  2  S   -0.164894   0.110965   0.042687  -0.000177   0.033693
   22  C  2  X   -0.036403  -0.070528  -0.027762  -0.000136   0.029842
   23  C  2  Y    0.037907  -0.071918   0.087600   0.000354  -0.074614
   24  C  2  Z   -0.000001  -0.000011  -0.000002   0.170296   0.000806
   25  C  2 XX   -0.007988  -0.019016  -0.001522   0.000119  -0.024501
   26  C  2 YY   -0.001129   0.016863   0.001335  -0.000122   0.024524
   27  C  2 ZZ    0.009118   0.002153   0.000188   0.000003  -0.000022
   28  C  2 XY   -0.004060  -0.006805   0.003678   0.000062  -0.014966
   29  C  2 XZ   -0.000001  -0.000002   0.000000   0.014249   0.000066
   30  C  2 YZ   -0.000001  -0.000001  -0.000001   0.010914   0.000053
   31  O  3  S   -0.011281   0.018958   0.049110  -0.000077   0.008284
   32  O  3  S    0.022833  -0.053542  -0.116024   0.000184  -0.020658
   33  O  3  X    0.147096   0.139907  -0.274186  -0.000639   0.180583
   34  O  3  Y    0.336680   0.283176   0.102447  -0.000362   0.062341
   35  O  3  Z   -0.000031  -0.000056  -0.000006   0.522265   0.002458
   36  O  3  S    0.043447  -0.043934  -0.163211   0.000433  -0.060880
   37  O  3  X    0.062957   0.057209  -0.178596  -0.000409   0.117389
   38  O  3  Y    0.163814   0.151162   0.059896  -0.000175   0.030874
   39  O  3  Z   -0.000015  -0.000033  -0.000003   0.360697   0.001701
   40  O  3 XX   -0.014237  -0.010781   0.018199   0.000049  -0.011167
   41  O  3 YY    0.017958   0.016040  -0.010534  -0.000048   0.010695
   42  O  3 ZZ   -0.003721  -0.005259  -0.007665  -0.000001   0.000472
   43  O  3 XY   -0.015065  -0.005079  -0.015437  -0.000019   0.005481
   44  O  3 XZ    0.000001   0.000002   0.000002  -0.027403  -0.000130
   45  O  3 YZ   -0.000005  -0.000005  -0.000000   0.010965   0.000051
   46  H  4  S    0.177830   0.141725   0.032134  -0.000295   0.045300
   47  H  4  S    0.079156   0.086527   0.015820  -0.000378   0.069187
   48  H  5  S   -0.128478   0.141993  -0.118034  -0.000924   0.183298
   49  H  5  S   -0.054307   0.084164  -0.091717  -0.000865   0.171009
   50  H  6  S    0.085328  -0.053712  -0.194434   0.000867  -0.196250
   51  H  6  S    0.040099  -0.028465  -0.120765   0.000762  -0.174866
   52  H  7  S    0.102523  -0.183068  -0.002380  -0.001126   0.233463
   53  H  7  S    0.049611  -0.122353  -0.002291  -0.001100   0.228502

                     11         12         13         14         15
                   -0.3613    -0.2247     0.0452     0.0761     0.1311
                     A          A          A          A          A   
    1  C  1  S   -0.027992   0.000000  -0.000001   0.034678   0.008805
    2  C  1  S    0.053806   0.000000  -0.000003  -0.072554  -0.021406
    3  C  1  X    0.257635   0.000008   0.000002   0.037862   0.163112
    4  C  1  Y   -0.054300  -0.000017   0.000000  -0.078570   0.192800
    5  C  1  Z   -0.000080   0.411934  -0.378734   0.000076  -0.000002
    6  C  1  S    0.145676   0.000010   0.000052  -0.214293  -0.157066
    7  C  1  X    0.098146   0.000005   0.000046   0.337067   0.467361
    8  C  1  Y   -0.056382  -0.000014   0.000005  -0.221375   0.395857
    9  C  1  Z   -0.000045   0.333446  -0.613051   0.000111  -0.000004
   10  C  1 XX    0.001125  -0.000000   0.000001   0.008469   0.016385
   11  C  1 YY   -0.002627  -0.000000  -0.000001  -0.010040  -0.015228
   12  C  1 ZZ    0.001502   0.000000   0.000000   0.001571  -0.001157
   13  C  1 XY   -0.008358  -0.000000   0.000002   0.012407   0.017014
   14  C  1 XZ   -0.000005   0.011368   0.023268  -0.000005   0.000002
   15  C  1 YZ    0.000002  -0.006979  -0.014938   0.000002  -0.000001
   16  C  2  S    0.006148  -0.000002  -0.000004  -0.009559   0.055498
   17  C  2  S   -0.013737   0.000007   0.000010   0.023551  -0.093613
   18  C  2  X   -0.238627  -0.000005   0.000020   0.088530   0.053883
   19  C  2  Y    0.153829   0.000004  -0.000010   0.041149   0.315567
   20  C  2  Z   -0.000160   0.294187   0.488340  -0.000089   0.000022
   21  C  2  S   -0.026801  -0.000002  -0.000010  -0.175555  -0.977414
   22  C  2  X    0.025531   0.000005   0.000042   0.276999   0.131194
   23  C  2  Y    0.027992  -0.000012  -0.000069  -0.083153   0.705448
   24  C  2  Z   -0.000097   0.183511   0.643324  -0.000123   0.000044
   25  C  2 XX    0.012482   0.000003   0.000001  -0.000388  -0.020949
   26  C  2 YY   -0.017347  -0.000002  -0.000001  -0.005231   0.018916
   27  C  2 ZZ    0.004865  -0.000000   0.000001   0.005618   0.002033
   28  C  2 XY   -0.017697  -0.000001  -0.000003  -0.009653  -0.012226
   29  C  2 XZ   -0.000007  -0.030009   0.011296  -0.000001  -0.000001
   30  C  2 YZ   -0.000006   0.002086  -0.019249   0.000003  -0.000000
   31  O  3  S   -0.061365   0.000003   0.000017   0.075953   0.007284
   32  O  3  S    0.141361  -0.000006  -0.000034  -0.144209  -0.030229
   33  O  3  X    0.393143   0.000008   0.000017   0.081023   0.088384
   34  O  3  Y   -0.267934  -0.000037  -0.000072  -0.292423   0.028407
   35  O  3  Z   -0.000254  -0.359508  -0.219134   0.000090  -0.000015
   36  O  3  S    0.230199  -0.000011  -0.000181  -0.898382  -0.032158
   37  O  3  X    0.280031   0.000007   0.000016   0.108863   0.128996
   38  O  3  Y   -0.156782  -0.000028  -0.000108  -0.466336   0.011588
   39  O  3  Z   -0.000182  -0.297486  -0.258124   0.000134  -0.000024
   40  O  3 XX   -0.007547  -0.000001  -0.000001   0.001932   0.005265
   41  O  3 YY   -0.005342  -0.000002  -0.000002  -0.009428  -0.004545
   42  O  3 ZZ    0.012890   0.000003   0.000003   0.007496  -0.000719
   43  O  3 XY    0.016440   0.000002   0.000004   0.010366  -0.008715
   44  O  3 XZ    0.000011   0.005084  -0.008918  -0.000001  -0.000000
   45  O  3 YZ   -0.000003  -0.011949  -0.018633   0.000007   0.000000
   46  H  4  S   -0.149311   0.000012   0.000048   0.141270  -0.034808
   47  H  4  S   -0.102516   0.000005   0.000278   1.348356  -0.197653
   48  H  5  S   -0.132638  -0.000012  -0.000018  -0.049884   0.088687
   49  H  5  S   -0.134466  -0.000022  -0.000076  -0.153328   1.508113
   50  H  6  S   -0.105200   0.000000   0.000004   0.065252   0.073768
   51  H  6  S   -0.124522  -0.000003   0.000026   0.390218   1.029515
   52  H  7  S   -0.024022   0.000001  -0.000016  -0.044213  -0.063730
   53  H  7  S   -0.037239  -0.000006  -0.000000   0.352900  -0.625433

                     16         17         18         19         20
                    0.1471     0.1896     0.2892     0.3670     0.5091
                     A          A          A          A          A   
    1  C  1  S   -0.110821   0.074013   0.041759  -0.071004  -0.002712
    2  C  1  S    0.141295  -0.113128  -0.072949  -0.017187   0.263602
    3  C  1  X   -0.152782   0.110204  -0.157985   0.045756   0.494709
    4  C  1  Y    0.182775   0.197488  -0.229081  -0.087677  -0.266092
    5  C  1  Z    0.000029  -0.000002  -0.000020  -0.000026  -0.000013
    6  C  1  S    1.972331  -1.074071  -0.501340   3.032243   0.652950
    7  C  1  X   -0.308003   0.301908  -1.173637   2.633148  -0.435082
    8  C  1  Y    0.558432   0.976803  -1.061036  -1.521059   0.213710
    9  C  1  Z    0.000074   0.000019  -0.000041  -0.000012   0.000017
   10  C  1 XX    0.012075   0.007940   0.030486  -0.010811   0.015041
   11  C  1 YY   -0.012503  -0.011466  -0.037912   0.018799  -0.006700
   12  C  1 ZZ    0.000428   0.003525   0.007425  -0.007989  -0.008341
   13  C  1 XY    0.004139  -0.002075   0.006159   0.034869  -0.041465
   14  C  1 XZ   -0.000002  -0.000000   0.000001   0.000000  -0.000002
   15  C  1 YZ    0.000000  -0.000000  -0.000001   0.000003   0.000000
   16  C  2  S   -0.022596  -0.116954  -0.078406   0.057849   0.046449
   17  C  2  S    0.042522   0.181858   0.070820  -0.084716   0.042150
   18  C  2  X    0.159527   0.116269   0.171507   0.258672  -0.573210
   19  C  2  Y   -0.006805  -0.088187   0.300110  -0.207268  -0.090475
   20  C  2  Z   -0.000018  -0.000006   0.000010  -0.000019  -0.000021
   21  C  2  S    0.366377   1.867328   1.446287  -2.859310   0.068942
   22  C  2  X    0.486845  -0.022321   1.059684   2.605316   1.614152
   23  C  2  Y   -0.192459  -0.588080   1.444540  -1.255714  -0.200776
   24  C  2  Z   -0.000044  -0.000023   0.000046   0.000010   0.000009
   25  C  2 XX   -0.008496  -0.028567  -0.007582  -0.004393   0.083743
   26  C  2 YY    0.003395   0.018482  -0.007448  -0.001418  -0.017391
   27  C  2 ZZ    0.005101   0.010085   0.015030   0.005811  -0.066352
   28  C  2 XY   -0.017695  -0.017719  -0.000018  -0.009266  -0.024206
   29  C  2 XZ   -0.000001  -0.000001  -0.000001   0.000000   0.000003
   30  C  2 YZ    0.000001  -0.000000  -0.000000  -0.000001   0.000001
   31  O  3  S    0.044716   0.023519   0.062444   0.011861   0.004099
   32  O  3  S   -0.088666  -0.076259  -0.094935  -0.019258   0.077583
   33  O  3  X    0.080130   0.201978   0.225711   0.012333  -0.260358
   34  O  3  Y   -0.000724   0.152662   0.213841   0.173219  -0.001694
   35  O  3  Z    0.000030  -0.000009  -0.000022  -0.000020   0.000012
   36  O  3  S   -0.541826  -0.107710  -1.109091  -0.310046  -0.696131
   37  O  3  X    0.189141   0.246209   0.759681   0.041743   0.130830
   38  O  3  Y    0.041538   0.299777   0.418651   0.499739   0.142802
   39  O  3  Z    0.000037  -0.000015  -0.000028  -0.000016   0.000008
   40  O  3 XX   -0.006226   0.002200  -0.011109  -0.013748  -0.076083
   41  O  3 YY    0.005408  -0.000089  -0.004501   0.021142   0.053227
   42  O  3 ZZ    0.000818  -0.002111   0.015610  -0.007394   0.022856
   43  O  3 XY    0.006831   0.010771  -0.005914  -0.014175  -0.051498
   44  O  3 XZ   -0.000001  -0.000001  -0.000002   0.000001   0.000001
   45  O  3 YZ   -0.000000  -0.000001   0.000002  -0.000000  -0.000005
   46  H  4  S    0.065814  -0.040371  -0.064597   0.010901   0.203988
   47  H  4  S    0.334512  -0.329962  -0.530198  -0.579375  -0.185345
   48  H  5  S    0.016492  -0.021751  -0.036694  -0.006847   0.059250
   49  H  5  S   -0.331245  -1.453617   0.726370  -0.700397  -0.218076
   50  H  6  S   -0.009292   0.060915   0.071609   0.137114  -0.022660
   51  H  6  S   -0.823653   1.475075  -1.224193   0.412039   0.084108
   52  H  7  S   -0.108237  -0.007586  -0.095590   0.078120  -0.065838
   53  H  7  S   -1.687623  -0.505441   1.278076   0.678061  -0.090560

                     21         22         23         24         25
                    0.5493     0.6200     0.6289     0.6410     0.6828
                     A          A          A          A          A   
    1  C  1  S   -0.000000   0.010366   0.004156   0.000001   0.076294
    2  C  1  S    0.000001  -0.563734   0.110258   0.000015   0.370641
    3  C  1  X   -0.000014  -0.306175  -0.244188   0.000004  -0.451269
    4  C  1  Y    0.000033   0.193139  -0.307238   0.000048   0.282268
    5  C  1  Z   -0.707660   0.000023  -0.000031  -0.805840   0.000019
    6  C  1  S   -0.000065   0.197858  -0.693175  -0.000023  -0.677132
    7  C  1  X   -0.000059  -0.178508   0.416892  -0.000039   0.693445
    8  C  1  Y    0.000035  -0.221994   0.941890  -0.000095  -0.486275
    9  C  1  Z    0.558621  -0.000020   0.000049   1.209158  -0.000061
   10  C  1 XX    0.000002  -0.042254   0.065798  -0.000001   0.075310
   11  C  1 YY   -0.000003  -0.008772  -0.042542   0.000003   0.082348
   12  C  1 ZZ    0.000001   0.051026  -0.023256  -0.000001  -0.157658
   13  C  1 XY   -0.000001  -0.033894   0.066990  -0.000004  -0.040959
   14  C  1 XZ   -0.043071   0.000001   0.000003   0.005959   0.000000
   15  C  1 YZ    0.021216  -0.000002  -0.000005   0.000892   0.000008
   16  C  2  S   -0.000000  -0.013565   0.023739  -0.000002  -0.043390
   17  C  2  S   -0.000011  -0.977168   0.148969  -0.000003   0.292742
   18  C  2  X   -0.000002  -0.467035  -0.180314  -0.000020  -0.582225
   19  C  2  Y    0.000021  -0.424796  -0.359702  -0.000016   0.244266
   20  C  2  Z   -0.732989  -0.000003   0.000020   0.724662  -0.000015
   21  C  2  S    0.000071   1.708595  -0.482057   0.000044  -0.283337
   22  C  2  X   -0.000102   0.535124  -0.635022   0.000050   0.678373
   23  C  2  Y    0.000006   1.014208   0.674552   0.000057  -0.282569
   24  C  2  Z    0.771283   0.000007  -0.000016  -1.205611   0.000045
   25  C  2 XX   -0.000000  -0.008276  -0.046239   0.000000  -0.039420
   26  C  2 YY    0.000001  -0.053210   0.104723  -0.000003   0.008384
   27  C  2 ZZ   -0.000001   0.061487  -0.058484   0.000003   0.031035
   28  C  2 XY    0.000003   0.093925  -0.009782   0.000003   0.094334
   29  C  2 XZ    0.030163  -0.000003  -0.000003   0.043558   0.000001
   30  C  2 YZ   -0.038921  -0.000001   0.000006   0.006720  -0.000002
   31  O  3  S    0.000001  -0.002009  -0.042487   0.000001   0.005117
   32  O  3  S   -0.000011   0.039945   0.149524  -0.000001  -0.030773
   33  O  3  X   -0.000006  -0.143598   0.138996  -0.000012  -0.095118
   34  O  3  Y   -0.000032  -0.012510  -0.115591   0.000004   0.002663
   35  O  3  Z   -0.118914  -0.000026  -0.000032   0.086413  -0.000004
   36  O  3  S    0.000013  -0.637174   0.354604  -0.000037  -0.194010
   37  O  3  X   -0.000002   0.269596  -0.313640   0.000021   0.075252
   38  O  3  Y   -0.000006   0.054726  -0.138810   0.000001   0.055379
   39  O  3  Z   -0.050475   0.000002   0.000003   0.111243  -0.000009
   40  O  3 XX   -0.000001  -0.077961   0.028238  -0.000002   0.002270
   41  O  3 YY    0.000001  -0.013702  -0.033331  -0.000000  -0.032651
   42  O  3 ZZ   -0.000000   0.091663   0.005093   0.000003   0.030381
   43  O  3 XY   -0.000001  -0.106267  -0.042424  -0.000000  -0.042756
   44  O  3 XZ    0.024595   0.000002  -0.000001  -0.044601   0.000001
   45  O  3 YZ    0.015312   0.000005   0.000009  -0.002699   0.000000
   46  H  4  S   -0.000000  -0.079179  -0.184884  -0.000000  -0.091692
   47  H  4  S    0.000060  -0.287966  -0.020799  -0.000003   0.116271
   48  H  5  S   -0.000002  -0.257217   0.594535  -0.000017  -0.087060
   49  H  5  S    0.000022   0.252760   0.144995   0.000007  -0.104949
   50  H  6  S   -0.000012  -0.194067   0.415819  -0.000005   0.448254
   51  H  6  S   -0.000011  -0.029117   0.249994  -0.000024   0.158699
   52  H  7  S   -0.000013  -0.169532  -0.273122   0.000021   0.580619
   53  H  7  S   -0.000042  -0.025349  -0.207311   0.000012   0.067638

                     26         27         28         29         30
                    0.7917     0.8638     0.8768     0.9384     0.9425
                     A          A          A          A          A   
    1  C  1  S    0.016127  -0.005290   0.008261   0.042036  -0.000003
    2  C  1  S   -0.080255  -0.148539   0.282411  -0.903050   0.000091
    3  C  1  X   -0.216630  -0.496797   0.141997   0.552362  -0.000067
    4  C  1  Y   -0.108967  -0.968979  -0.155555  -0.305401   0.000006
    5  C  1  Z   -0.000004  -0.000039  -0.000002  -0.000016   0.017043
    6  C  1  S   -0.200733   0.738080  -1.423171   0.832366  -0.000084
    7  C  1  X    0.257613   1.499153  -0.898009  -1.291475   0.000120
    8  C  1  Y    0.382040   2.418775   0.050458   0.601277  -0.000071
    9  C  1  Z    0.000017   0.000093  -0.000006   0.000029   0.167891
   10  C  1 XX    0.011820  -0.076411  -0.073460  -0.049804  -0.000005
   11  C  1 YY    0.007399   0.067417   0.091314   0.107658  -0.000003
   12  C  1 ZZ   -0.019219   0.008994  -0.017854  -0.057854   0.000008
   13  C  1 XY   -0.020396  -0.078357  -0.001083   0.131408  -0.000016
   14  C  1 XZ   -0.000003  -0.000004   0.000001   0.000000  -0.004804
   15  C  1 YZ    0.000005  -0.000003   0.000008   0.000012   0.040379
   16  C  2  S   -0.042348   0.004981  -0.021928   0.002827   0.000003
   17  C  2  S    0.185224  -0.079780   0.784513  -0.655166  -0.000021
   18  C  2  X   -0.076503   0.040828   0.200917   0.214079   0.000003
   19  C  2  Y   -0.136915   0.305827  -0.879593  -0.028434   0.000087
   20  C  2  Z   -0.000014   0.000012  -0.000018   0.000006   0.137671
   21  C  2  S   -0.603466  -0.075531  -0.717308   1.990785   0.000148
   22  C  2  X   -0.360630  -0.207240  -0.682119  -0.561303   0.000177
   23  C  2  Y    0.257328  -1.649908   2.540162   0.445819  -0.000133
   24  C  2  Z   -0.000010  -0.000039   0.000040  -0.000013  -0.590561
   25  C  2 XX   -0.018934   0.045482   0.107542   0.031049   0.000016
   26  C  2 YY   -0.058268  -0.062214  -0.118254  -0.016947  -0.000002
   27  C  2 ZZ    0.077202   0.016733   0.010712  -0.014102  -0.000014
   28  C  2 XY   -0.075618   0.048727   0.002147   0.001884   0.000005
   29  C  2 XZ    0.000013  -0.000002  -0.000003   0.000005   0.004396
   30  C  2 YZ   -0.000004  -0.000007  -0.000001   0.000001   0.041043
   31  O  3  S    0.010668  -0.000237   0.010894   0.011789   0.000013
   32  O  3  S   -0.105121  -0.041088  -0.024385  -0.088188  -0.000083
   33  O  3  X    0.504983   0.004970  -0.143619  -0.075090  -0.000022
   34  O  3  Y   -0.327142   0.078833   0.176143  -0.229177  -0.000169
   35  O  3  Z    0.000079   0.000025  -0.000093  -0.000015  -0.941714
   36  O  3  S    0.445363   0.375490  -0.159706  -0.061269  -0.000009
   37  O  3  X   -0.636683  -0.101089   0.418784   0.263476   0.000092
   38  O  3  Y   -0.138650   0.079944  -0.289894   0.291426   0.000220
   39  O  3  Z   -0.000023  -0.000033   0.000087   0.000016   1.214051
   40  O  3 XX   -0.050642   0.041396  -0.010604  -0.025663  -0.000010
   41  O  3 YY    0.142422  -0.033893  -0.008886   0.004779   0.000027
   42  O  3 ZZ   -0.091780  -0.007503   0.019490   0.020884  -0.000018
   43  O  3 XY   -0.007524  -0.004453   0.065089  -0.004574  -0.000003
   44  O  3 XZ    0.000005  -0.000001   0.000000  -0.000000   0.020754
   45  O  3 YZ   -0.000042   0.000007   0.000020  -0.000007   0.040019
   46  H  4  S    0.884150  -0.159206  -0.185459   0.063303   0.000110
   47  H  4  S   -0.773130   0.170887   0.086524  -0.207186  -0.000134
   48  H  5  S   -0.319609  -0.049500  -0.590638   0.093534   0.000078
   49  H  5  S    0.638523  -0.761244   2.414668  -0.111836  -0.000199
   50  H  6  S    0.032519  -0.474191   0.035708   0.590881  -0.000104
   51  H  6  S    0.239041   1.846546  -0.127178  -1.257190   0.000168
   52  H  7  S    0.063505   0.375348   0.239684   0.647906   0.000003
   53  H  7  S   -0.195194  -1.894654  -0.231835  -1.216582   0.000080

                     31         32         33         34         35
                    1.0257     1.0831     1.1455     1.2454     1.3905
                     A          A          A          A          A   
    1  C  1  S    0.004737  -0.009159   0.015402  -0.016015  -0.000002
    2  C  1  S   -0.274864  -1.661588   0.459056  -0.464834  -0.000038
    3  C  1  X    0.258082  -0.116640  -0.110651  -0.025817  -0.000005
    4  C  1  Y   -0.041243   0.066936  -0.176329   0.078021   0.000010
    5  C  1  Z   -0.000016  -0.000008  -0.000005  -0.000009   0.164418
    6  C  1  S    1.296075   5.067317  -2.138095   3.371924   0.000386
    7  C  1  X   -0.064337   1.507920   0.566172   1.536229   0.000149
    8  C  1  Y    0.464275  -0.230997   2.672463  -0.488042  -0.000182
    9  C  1  Z    0.000075   0.000061   0.000098  -0.000024  -0.042906
   10  C  1 XX    0.038070   0.065714   0.112302   0.025358  -0.000002
   11  C  1 YY    0.005564  -0.082528  -0.103961  -0.072935  -0.000029
   12  C  1 ZZ   -0.043634   0.016814  -0.008341   0.047577   0.000031
   13  C  1 XY    0.010605  -0.060972   0.124603  -0.054848  -0.000010
   14  C  1 XZ   -0.000011  -0.000010  -0.000023   0.000039  -0.355352
   15  C  1 YZ   -0.000002  -0.000006  -0.000025  -0.000046   0.286936
   16  C  2  S   -0.007610   0.011861  -0.024215   0.019229   0.000003
   17  C  2  S   -0.118859   1.162432  -0.563735   0.536195   0.000057
   18  C  2  X   -0.134796  -0.232314   0.150228  -0.193304  -0.000025
   19  C  2  Y    0.059575   0.126790   0.195074   0.088073  -0.000004
   20  C  2  Z    0.000013   0.000005   0.000018   0.000009   0.008041
   21  C  2  S   -0.807331  -4.376923   2.512811  -2.084618  -0.000162
   22  C  2  X   -0.207245   1.044364  -1.841900   2.463021   0.000465
   23  C  2  Y   -1.267430  -1.212096  -1.632290  -1.716145  -0.000038
   24  C  2  Z   -0.000103  -0.000066  -0.000125   0.000021   0.045998
   25  C  2 XX   -0.063264  -0.077044   0.059681   0.101096   0.000010
   26  C  2 YY   -0.029751   0.081214  -0.119489  -0.139931  -0.000029
   27  C  2 ZZ    0.093014  -0.004170   0.059808   0.038835   0.000019
   28  C  2 XY   -0.093328   0.092927  -0.008123   0.062337   0.000013
   29  C  2 XZ   -0.000009   0.000010   0.000007  -0.000081   0.575604
   30  C  2 YZ   -0.000012   0.000001  -0.000025   0.000002  -0.074330
   31  O  3  S   -0.063817  -0.003394  -0.012454  -0.025954  -0.000008
   32  O  3  S    0.495894   0.019671   0.148211   0.362404   0.000190
   33  O  3  X    0.557970  -0.187240  -0.304962   0.007110  -0.000013
   34  O  3  Y    0.455091   0.250267   0.129685  -0.673297  -0.000080
   35  O  3  Z   -0.000173  -0.000061  -0.000043   0.000065  -0.019150
   36  O  3  S   -0.131547   0.392912   0.428462  -0.539441  -0.000377
   37  O  3  X   -1.271030  -0.079129   0.241950   0.054567   0.000103
   38  O  3  Y   -0.601329  -0.518449  -0.258756   1.917093   0.000274
   39  O  3  Z    0.000235   0.000115   0.000100  -0.000145  -0.122835
   40  O  3 XX   -0.013122   0.103102  -0.010519  -0.022311   0.000009
   41  O  3 YY   -0.059568   0.042922   0.085095  -0.055232  -0.000055
   42  O  3 ZZ    0.072690  -0.146025  -0.074577   0.077543   0.000045
   43  O  3 XY    0.044040  -0.030499   0.061299   0.234749   0.000072
   44  O  3 XZ    0.000007   0.000004   0.000010   0.000007  -0.306388
   45  O  3 YZ    0.000042  -0.000015  -0.000019   0.000112  -0.302889
   46  H  4  S   -0.512459   0.179064   0.169356  -0.471578  -0.000090
   47  H  4  S    1.199086   0.229537   0.080161  -0.505732  -0.000046
   48  H  5  S   -0.314043  -0.006597  -0.586151  -0.311027  -0.000002
   49  H  5  S   -0.341975   0.058009  -0.823446  -0.409796   0.000007
   50  H  6  S    0.204004   0.138596   0.675590   0.036102  -0.000021
   51  H  6  S   -0.392413  -0.443740   0.859302   0.134202   0.000008
   52  H  7  S    0.035198  -0.200287  -0.541446  -0.254620  -0.000015
   53  H  7  S   -0.635846  -0.640886  -0.638072   0.094651   0.000065

                     36         37         38         39         40
                    1.4780     1.6803     1.7171     1.7645     1.7847
                     A          A          A          A          A   
    1  C  1  S    0.000002  -0.021519  -0.000013  -0.000010   0.020903
    2  C  1  S   -0.000000  -0.218040  -0.000169   0.000208  -0.201752
    3  C  1  X   -0.000019   0.021492  -0.000009   0.000147  -0.234747
    4  C  1  Y   -0.000007  -0.123596  -0.000096  -0.000017   0.057194
    5  C  1  Z   -0.049954   0.000036  -0.016399   0.058438   0.000050
    6  C  1  S   -0.000150   1.560622   0.001061   0.000256  -1.058883
    7  C  1  X    0.000001   1.189273   0.000873  -0.000246  -0.218641
    8  C  1  Y    0.000162   1.255766   0.000853  -0.000136  -0.161572
    9  C  1  Z   -0.035208  -0.000008   0.025904  -0.130412  -0.000147
   10  C  1 XX    0.000006   0.114218   0.000090   0.000017   0.050482
   11  C  1 YY   -0.000016  -0.009856  -0.000106   0.000165  -0.263331
   12  C  1 ZZ    0.000010  -0.104362   0.000016  -0.000182   0.212850
   13  C  1 XY   -0.000002   0.077913   0.000047   0.000092  -0.118099
   14  C  1 XZ    0.406558  -0.000292   0.399547  -0.134640  -0.000210
   15  C  1 YZ    0.227891  -0.000287   0.703116   0.505984   0.000339
   16  C  2  S   -0.000003   0.019684   0.000017  -0.000020   0.010197
   17  C  2  S   -0.000043   0.296113   0.000259  -0.000278   0.111783
   18  C  2  X    0.000003  -0.087615  -0.000064   0.000044  -0.015963
   19  C  2  Y    0.000023   0.055451   0.000049  -0.000099   0.065108
   20  C  2  Z   -0.156225   0.000001   0.048974   0.106300   0.000094
   21  C  2  S    0.000183  -2.447316  -0.001757   0.001170  -0.276751
   22  C  2  X   -0.000157  -0.906003  -0.000605   0.000900  -1.079168
   23  C  2  Y   -0.000039  -2.424994  -0.001569  -0.000400   1.213601
   24  C  2  Z    0.107265  -0.000017  -0.000707   0.143423   0.000171
   25  C  2 XX    0.000009  -0.062298  -0.000059   0.000001   0.011820
   26  C  2 YY   -0.000042   0.162934   0.000057   0.000388  -0.390121
   27  C  2 ZZ    0.000034  -0.100635   0.000002  -0.000389   0.378301
   28  C  2 XY   -0.000016  -0.036920  -0.000043   0.000214  -0.363104
   29  C  2 XZ    0.074675   0.000074  -0.038191   0.002747  -0.000029
   30  C  2 YZ    0.684919   0.000047  -0.142316  -0.222869  -0.000216
   31  O  3  S   -0.000002   0.024136   0.000010   0.000002  -0.010143
   32  O  3  S    0.000050  -1.550519  -0.000914   0.000335  -0.042590
   33  O  3  X   -0.000014   0.177240   0.000076   0.000109  -0.201947
   34  O  3  Y    0.000035  -0.017064  -0.000001  -0.000132   0.149437
   35  O  3  Z    0.008488  -0.000007   0.040131   0.048264   0.000039
   36  O  3  S   -0.000047   3.621020   0.002265  -0.001036   0.409635
   37  O  3  X    0.000009  -1.265422  -0.000787   0.000217   0.080391
   38  O  3  Y   -0.000096   0.143917   0.000039   0.000544  -0.651009
   39  O  3  Z   -0.127782  -0.000088  -0.016049  -0.115714  -0.000088
   40  O  3 XX   -0.000012  -0.220488  -0.000201   0.000472  -0.492008
   41  O  3 YY    0.000033  -0.158528  -0.000201   0.000175   0.141573
   42  O  3 ZZ   -0.000022   0.379017   0.000402  -0.000648   0.350435
   43  O  3 XY    0.000020  -0.016759   0.000080  -0.000459   0.421862
   44  O  3 XZ   -0.374337  -0.000343   0.438113  -0.075339  -0.000117
   45  O  3 YZ    0.104913   0.000432  -0.361849   0.825062   0.000835
   46  H  4  S    0.000026  -0.318928  -0.000188  -0.000089   0.107141
   47  H  4  S    0.000064  -0.211519  -0.000090  -0.000037   0.087253
   48  H  5  S   -0.000011  -0.345914  -0.000173  -0.000503   0.600552
   49  H  5  S   -0.000044  -0.649864  -0.000390  -0.000334   0.554137
   50  H  6  S    0.000032   0.124394   0.000096  -0.000139   0.076174
   51  H  6  S    0.000049   0.428812   0.000337  -0.000121  -0.018044
   52  H  7  S   -0.000009  -0.346912  -0.000202  -0.000120   0.295908
   53  H  7  S   -0.000075  -0.604312  -0.000431   0.000092   0.051200

                     41         42         43         44         45
                    1.9152     1.9640     2.1586     2.2438     2.3201
                     A          A          A          A          A   
    1  C  1  S   -0.009356   0.001502   0.014409  -0.000004  -0.051507
    2  C  1  S   -0.410682   0.060962  -0.082377  -0.000050  -0.403326
    3  C  1  X   -0.291390   0.111046  -0.003792  -0.000004   0.026296
    4  C  1  Y    0.160179   0.193282   0.058839  -0.000002   0.007396
    5  C  1  Z   -0.000001   0.000011   0.000003  -0.045089   0.000010
    6  C  1  S   -0.194473  -0.374803  -0.210483   0.000163   2.195402
    7  C  1  X   -0.450534  -0.003805   0.536929   0.000139   0.979785
    8  C  1  Y   -0.336716   0.375848   0.129916  -0.000049  -0.108781
    9  C  1  Z    0.000016  -0.000017   0.000031  -0.267440   0.000035
   10  C  1 XX    0.305637  -0.501063   0.073951   0.000098   0.219798
   11  C  1 YY    0.285829   0.485098  -0.414208  -0.000051   0.499045
   12  C  1 ZZ   -0.591466   0.015965   0.340258  -0.000047  -0.718843
   13  C  1 XY    0.029434  -0.278123  -0.746287  -0.000096  -0.308999
   14  C  1 XZ    0.000057  -0.000042   0.000089  -0.669831   0.000057
   15  C  1 YZ   -0.000013   0.000110  -0.000064   0.149848   0.000027
   16  C  2  S   -0.026680  -0.000243  -0.005080  -0.000001   0.032094
   17  C  2  S   -0.519895  -0.115024  -0.488727  -0.000081   0.250481
   18  C  2  X   -0.026402  -0.026380   0.175383   0.000069   0.458277
   19  C  2  Y   -0.082565   0.168182  -0.143473  -0.000047   0.021237
   20  C  2  Z   -0.000014   0.000026  -0.000024   0.155552  -0.000001
   21  C  2  S    1.169281   0.205470   0.101056  -0.000022  -1.615455
   22  C  2  X   -0.120972  -0.155273  -0.352658   0.000079   0.640016
   23  C  2  Y    0.961495   0.356026  -0.540028  -0.000074  -0.900409
   24  C  2  Z   -0.000006   0.000037  -0.000047   0.422291  -0.000044
   25  C  2 XX    0.378648   0.434851   0.262200   0.000035  -0.063143
   26  C  2 YY    0.181885  -0.480070  -0.021331   0.000009  -0.338221
   27  C  2 ZZ   -0.560533   0.045219  -0.240869  -0.000044   0.401364
   28  C  2 XY   -0.142901   0.424804  -0.294276  -0.000038  -0.338568
   29  C  2 XZ    0.000016   0.000002   0.000034  -0.018017   0.000022
   30  C  2 YZ   -0.000000  -0.000028  -0.000038   0.743869  -0.000066
   31  O  3  S    0.007568   0.032285  -0.002193   0.000001  -0.012485
   32  O  3  S    0.014757  -0.253644  -0.389942   0.000040   0.214523
   33  O  3  X    0.024446   0.236022   0.079275  -0.000003  -0.159060
   34  O  3  Y    0.098377   0.176525  -0.036563  -0.000011  -0.137030
   35  O  3  Z    0.000005   0.000014  -0.000002   0.085829  -0.000002
   36  O  3  S   -0.380816   0.029700   0.919353  -0.000094  -0.044616
   37  O  3  X    0.251532  -0.043000  -0.342708   0.000034   0.117512
   38  O  3  Y   -0.003133  -0.324626   0.376396   0.000028   0.401746
   39  O  3  Z   -0.000024  -0.000011  -0.000034  -0.309971   0.000013
   40  O  3 XX   -0.180946   0.017818   0.226074   0.000055   0.090943
   41  O  3 YY    0.387014  -0.064933   0.101965  -0.000124  -0.295680
   42  O  3 ZZ   -0.206068   0.047115  -0.328039   0.000070   0.204736
   43  O  3 XY    0.377985   0.156566  -0.255086  -0.000025  -0.499175
   44  O  3 XZ    0.000034   0.000016  -0.000012   0.632284  -0.000034
   45  O  3 YZ   -0.000161   0.000142  -0.000170   0.066767   0.000014
   46  H  4  S   -0.197336   0.203752  -0.418059   0.000072   0.077094
   47  H  4  S   -0.100871  -0.069467  -0.079441  -0.000038  -0.137288
   48  H  5  S    0.021248   0.523362  -0.119286  -0.000058   0.133472
   49  H  5  S    0.208653  -0.017161  -0.279083  -0.000025  -0.304931
   50  H  6  S   -0.310571   0.469161   0.571464   0.000018  -0.077707
   51  H  6  S   -0.233512  -0.003219   0.063837   0.000013   0.061513
   52  H  7  S   -0.117934  -0.510128   0.222032   0.000017  -0.492532
   53  H  7  S    0.097061   0.048363  -0.046301   0.000008  -0.045727

                     46         47         48         49         50
                    2.4375     2.5322     2.6566     2.8065     2.9654
                     A          A          A          A          A   
    1  C  1  S    0.013896  -0.000004   0.036646  -0.044154  -0.024640
    2  C  1  S   -0.008784   0.000023   0.045094   0.337013   0.164959
    3  C  1  X   -0.106740   0.000045  -0.239965   0.576027   0.252368
    4  C  1  Y    0.086632  -0.000033   0.079722  -0.288613  -0.243619
    5  C  1  Z    0.000027   0.119237   0.000003  -0.000003  -0.000003
    6  C  1  S    0.038388  -0.000047  -1.612144   1.498602   0.440132
    7  C  1  X   -0.112405  -0.000005  -0.635429   0.717235   0.398350
    8  C  1  Y    0.355363  -0.000145   0.249069  -0.604720   0.349124
    9  C  1  Z    0.000009   0.112443   0.000001  -0.000022   0.000022
   10  C  1 XX   -0.461039   0.000143  -0.743185   0.590381  -0.207222
   11  C  1 YY    0.335364  -0.000107   0.444646  -0.227585   0.391737
   12  C  1 ZZ    0.125675  -0.000036   0.298539  -0.362796  -0.184515
   13  C  1 XY    0.321179  -0.000079  -0.202135  -0.566162  -0.600679
   14  C  1 XZ    0.000086   0.495570   0.000003  -0.000020  -0.000002
   15  C  1 YZ   -0.000085  -0.379723   0.000001   0.000004   0.000019
   16  C  2  S    0.011789  -0.000002  -0.062060   0.038410   0.055101
   17  C  2  S    0.401464  -0.000113   0.363099   0.077331  -0.537370
   18  C  2  X   -0.353901   0.000097   0.374095   0.810132  -0.320270
   19  C  2  Y    0.197806  -0.000061   0.345121  -0.106873  -0.320012
   20  C  2  Z    0.000011  -0.005949   0.000005   0.000005  -0.000007
   21  C  2  S   -0.623806   0.000169   2.357222  -1.228772  -1.655240
   22  C  2  X   -0.338058   0.000105  -0.120165   1.186018  -0.722533
   23  C  2  Y   -0.654489   0.000259   0.976923  -0.235104  -0.536578
   24  C  2  Z    0.000070   0.023190   0.000009   0.000029  -0.000023
   25  C  2 XX   -0.096459   0.000005   0.059189  -0.397764  -1.187132
   26  C  2 YY   -0.184708   0.000039   0.581769   0.107345   0.682677
   27  C  2 ZZ    0.281167  -0.000044  -0.640958   0.290419   0.504455
   28  C  2 XY   -0.366762   0.000128  -0.121832   1.010280  -0.266213
   29  C  2 XZ    0.000288   0.983618   0.000022  -0.000008  -0.000016
   30  C  2 YZ    0.000106  -0.007510   0.000019   0.000026  -0.000000
   31  O  3  S   -0.027971   0.000009   0.015864   0.013091  -0.046103
   32  O  3  S   -0.540108   0.000146   0.755131   0.138082  -0.421780
   33  O  3  X   -0.031130   0.000011  -0.128690   0.064087  -0.150336
   34  O  3  Y   -0.099152   0.000031  -0.039373  -0.033891  -0.020733
   35  O  3  Z    0.000025   0.023783   0.000002   0.000008  -0.000009
   36  O  3  S    1.657675  -0.000479  -1.915626  -0.618575   1.823912
   37  O  3  X   -0.548472   0.000168   1.130132   0.432776  -0.998270
   38  O  3  Y    0.692902  -0.000213   0.192181   0.524829  -0.782625
   39  O  3  Z   -0.000244  -0.248688   0.000014  -0.000059   0.000024
   40  O  3 XX   -0.171954   0.000030  -0.683748  -0.700276   0.494131
   41  O  3 YY    0.834480  -0.000213   0.174569   0.683204  -0.147628
   42  O  3 ZZ   -0.662526   0.000184   0.509178   0.017072  -0.346503
   43  O  3 XY   -0.216308   0.000071  -0.243998  -0.179423   0.790921
   44  O  3 XZ    0.000297   0.565787  -0.000004   0.000013   0.000010
   45  O  3 YZ   -0.000184   0.340898   0.000037  -0.000098   0.000040
   46  H  4  S   -1.135363   0.000341   0.140439  -0.474498   0.148910
   47  H  4  S    0.052397  -0.000030  -0.056571  -0.029063   0.149932
   48  H  5  S    0.079577   0.000005  -0.384810   0.041776  -0.243699
   49  H  5  S   -0.180700   0.000081   0.344348  -0.013854   0.126721
   50  H  6  S    0.008404  -0.000020   0.364123  -0.021452   0.283898
   51  H  6  S   -0.001787  -0.000011  -0.077262   0.022871   0.027275
   52  H  7  S   -0.238480   0.000099  -0.185623   0.073227  -0.276846
   53  H  7  S   -0.061240   0.000031   0.135905   0.124584  -0.127084
 ...... END OF RHF CALCULATION ......
 STEP CPU TIME =     6.44 TOTAL CPU TIME =          6.5 (      0.1 MIN)
 TOTAL WALL CLOCK TIME=          7.4 SECONDS, CPU UTILIZATION IS    88.50%

     ---------------------------------------------------------------------
     PROPERTIES FOR THE B3LYP    DFT FUNCTIONAL (RHF  TYPE) DENSITY MATRIX
     ---------------------------------------------------------------------

          -----------------
          ENERGY COMPONENTS
          -----------------

         WAVEFUNCTION NORMALIZATION =       1.0000000000

                ONE ELECTRON ENERGY =    -347.0103592104
                TWO ELECTRON ENERGY =     123.1923244051
           NUCLEAR REPULSION ENERGY =      70.1037652838
                                      ------------------
                       TOTAL ENERGY =    -153.7142695216

 ELECTRON-ELECTRON POTENTIAL ENERGY =     123.1923244051
  NUCLEUS-ELECTRON POTENTIAL ENERGY =    -499.8466966205
   NUCLEUS-NUCLEUS POTENTIAL ENERGY =      70.1037652838
                                      ------------------
             TOTAL POTENTIAL ENERGY =    -306.5506069317
               TOTAL KINETIC ENERGY =     152.8363374101
                 VIRIAL RATIO (V/T) =       2.0057442630

          ---------------------------------------
          MULLIKEN AND LOWDIN POPULATION ANALYSES
          ---------------------------------------

     ATOMIC MULLIKEN POPULATION IN EACH MOLECULAR ORBITAL

                      1          2          3          4          5

                  2.000000   2.000000   2.000000   2.000000   2.000000

    1            -0.000098   0.001796   1.996459   0.028174   0.865753
    2             0.001947   1.998912   0.001741   0.225008   0.733835
    3             1.997736  -0.001663  -0.000002   1.637235   0.177694
    4             0.000369   0.000003   0.000002   0.108363   0.029820
    5             0.000041   0.000923   0.000008   0.000781   0.057073
    6            -0.000001  -0.000009   0.000884   0.000886   0.077443
    7             0.000005   0.000039   0.000907  -0.000448   0.058382

                      6          7          8          9         10

                  2.000000   2.000000   2.000000   2.000000   2.000000

    1             0.326038   0.526754   0.588960   0.119135   0.634719
    2             0.488854   0.484730   0.430579   0.536915   0.229303
    3             0.684804   0.417687   0.547233   1.343927   0.135198
    4             0.202834   0.116551   0.006139   0.000001   0.027852
    5             0.133516   0.156616   0.122276   0.000006   0.254215
    6             0.065535   0.022775   0.304742   0.000006   0.285644
    7             0.098418   0.274887   0.000071   0.000010   0.433070

                     11         12

                  2.000000   2.000000

    1             0.272532   1.041612
    2             0.258056   0.449191
    3             1.137530   0.509197
    4             0.099550   0.000000
    5             0.125263   0.000000
    6             0.097746   0.000000
    7             0.009322   0.000000

               ----- POPULATIONS IN EACH AO -----
                             MULLIKEN      LOWDIN
              1  C  1  S      1.99634     1.98057
              2  C  1  S      0.67286     0.36008
              3  C  1  X      0.74210     0.65491
              4  C  1  Y      0.72120     0.63469
              5  C  1  Z      0.62789     0.59137
              6  C  1  S      0.56631     0.33538
              7  C  1  X      0.26651     0.39044
              8  C  1  Y      0.25258     0.43850
              9  C  1  Z      0.52815     0.55705
             10  C  1 XX      0.00401     0.18161
             11  C  1 YY      0.01057     0.17342
             12  C  1 ZZ      0.00861     0.10392
             13  C  1 XY      0.00367     0.01819
             14  C  1 XZ      0.00103     0.00659
             15  C  1 YZ      0.00000     0.00187
             16  C  2  S      1.99610     1.97834
             17  C  2  S      0.69206     0.35706
             18  C  2  X      0.68358     0.59411
             19  C  2  Y      0.74018     0.65088
             20  C  2  Z      0.57466     0.51507
             21  C  2  S      0.41130     0.29517
             22  C  2  X      0.08496     0.26590
             23  C  2  Y      0.19733     0.37491
             24  C  2  Z      0.39198     0.44449
             25  C  2 XX      0.00510     0.19353
             26  C  2 YY      0.02510     0.18042
             27  C  2 ZZ      0.01725     0.10070
             28  C  2 XY      0.01746     0.03564
             29  C  2 XZ      0.00202     0.03858
             30  C  2 YZ      0.00000     0.00356
             31  O  3  S      1.99717     1.97727
             32  O  3  S      0.90929     0.71405
             33  O  3  X      0.94476     0.88809
             34  O  3  Y      0.86985     0.80221
             35  O  3  Z      1.11217     1.08054
             36  O  3  S      0.95348     0.44979
             37  O  3  X      0.57075     0.60711
             38  O  3  Y      0.46529     0.55018
             39  O  3  Z      0.73544     0.75084
             40  O  3 XX      0.00467     0.17680
             41  O  3 YY      0.01388     0.19997
             42  O  3 ZZ      0.00429     0.15935
             43  O  3 XY      0.00508     0.00889
             44  O  3 XZ      0.00046     0.00853
             45  O  3 YZ      0.00000     0.00152
             46  H  4  S      0.47413     0.43386
             47  H  4  S      0.11735     0.21284
             48  H  5  S      0.53414     0.49199
             49  H  5  S      0.31657     0.35039
             50  H  6  S      0.52490     0.47483
             51  H  6  S      0.33075     0.35502
             52  H  7  S      0.52623     0.47952
             53  H  7  S      0.34843     0.36945

          ----- MULLIKEN ATOMIC OVERLAP POPULATIONS -----
          (OFF-DIAGONAL ELEMENTS NEED TO BE MULTIPLIED BY 2)

             1           2           3           4           5

    1    5.1356669
    2    0.6511479   4.5641564
    3   -0.0512638   0.3287676   8.1084369
    4   -0.0045714  -0.0400219   0.2484157   0.3743311
    5   -0.0584026   0.3838773  -0.0446247   0.0070789   0.5616583
    6    0.3600290  -0.0125315   0.0030290  -0.0000282  -0.0035199
    7    0.3692282  -0.0363236  -0.0061827   0.0062795   0.0046520

             6           7

    6    0.5450333
    7   -0.0363609   0.5733694

          TOTAL MULLIKEN AND LOWDIN ATOMIC POPULATIONS
       ATOM         MULL.POP.    CHARGE          LOW.POP.     CHARGE
    1 C             6.401834   -0.401834         6.428599   -0.428599
    2 C             5.839072    0.160928         6.028366   -0.028366
    3 O             8.586578   -0.586578         8.375135   -0.375135
    4 H             0.591484    0.408516         0.646697    0.353303
    5 H             0.850719    0.149281         0.842380    0.157620
    6 H             0.855651    0.144349         0.829854    0.170146
    7 H             0.874662    0.125338         0.848969    0.151031

          MULLIKEN SPHERICAL HARMONIC POPULATIONS
       ATOM           S       P       D      F      G      H      I    TOTAL
    1 C             3.24    3.14    0.03   0.00   0.00   0.00   0.00    6.40
    2 C             3.10    2.67    0.07   0.00   0.00   0.00   0.00    5.84
    3 O             3.86    4.70    0.03   0.00   0.00   0.00   0.00    8.59
    4 H             0.59    0.00    0.00   0.00   0.00   0.00   0.00    0.59
    5 H             0.85    0.00    0.00   0.00   0.00   0.00   0.00    0.85
    6 H             0.86    0.00    0.00   0.00   0.00   0.00   0.00    0.86
    7 H             0.87    0.00    0.00   0.00   0.00   0.00   0.00    0.87

          -------------------------------
          BOND ORDER AND VALENCE ANALYSIS     BOND ORDER THRESHOLD=0.050
          -------------------------------

                   BOND                       BOND                       BOND
  ATOM PAIR DIST  ORDER      ATOM PAIR DIST  ORDER      ATOM PAIR DIST  ORDER
    1   2  1.334  1.893        1   3  2.417  0.101        1   6  1.084  0.934
    1   7  1.088  0.940        2   3  1.363  1.051        2   5  1.087  0.937
    3   4  0.972  0.777

                       TOTAL       BONDED        FREE
      ATOM            VALENCE     VALENCE     VALENCE
    1 C                 3.860       3.860       0.000
    2 C                 3.884       3.884      -0.000
    3 O                 1.938       1.938       0.000
    4 H                 0.802       0.802       0.000
    5 H                 0.937       0.937       0.000
    6 H                 0.947       0.947       0.000
    7 H                 0.947       0.947       0.000

          ---------------------
          ELECTROSTATIC MOMENTS
          ---------------------

 POINT   1           X           Y           Z (BOHR)    CHARGE
                -0.000000    0.000000   -0.000000        0.00 (A.U.)
         DX          DY          DZ         /D/  (DEBYE)
    -0.439272    0.893532   -0.000265    0.995670
 ...... END OF PROPERTY EVALUATION ......
 STEP CPU TIME =     0.01 TOTAL CPU TIME =          6.6 (      0.1 MIN)
 TOTAL WALL CLOCK TIME=          7.4 SECONDS, CPU UTILIZATION IS    88.51%

 BEGINNING ONE ELECTRON GRADIENT...
 ..... END OF 1-ELECTRON GRADIENT ......
 STEP CPU TIME =     0.00 TOTAL CPU TIME =          6.6 (      0.1 MIN)
 TOTAL WALL CLOCK TIME=          7.4 SECONDS, CPU UTILIZATION IS    88.39%

          ----------------------
          GRADIENT OF THE ENERGY
          ----------------------
 MEMORY FOR GRID POINT CONTRIBUTIONS TO THE DFT GRADIENT=    269593 WORDS.
 STEP CPU TIME =     1.14 TOTAL CPU TIME =          7.7 (      0.1 MIN)
 TOTAL WALL CLOCK TIME=          8.5 SECONDS, CPU UTILIZATION IS    89.94%

 THE MINIMUM MEMORY REQUIRED FOR THIS RUN IS      88877 WORDS.
 USING     991233 WORDS FOR 2E- DERIVATIVE INTEGRAL CONTRIBUTIONS.
 THE COARSE/FINE SCHWARZ SCREENINGS SKIPPED          652/        1446 BLOCKS.
 THE NUMBER OF GRADIENT INTEGRAL BLOCKS COMPUTED WAS     19868
 ...... END OF 2-ELECTRON GRADIENT ......
 STEP CPU TIME =     0.19 TOTAL CPU TIME =          7.9 (      0.1 MIN)
 TOTAL WALL CLOCK TIME=          8.7 SECONDS, CPU UTILIZATION IS    90.16%
 THE VIB 0 GRADIENT RMS = 2.01197822E-04

 THE VIB 0 GEOMETRY GRADIENT IS

 UNITS ARE HARTREE/BOHR    E'X               E'Y               E'Z 
    1 C                0.000325299      -0.000126070      -0.000002267
    2 C               -0.000703629       0.000045959       0.000002187
    3 O                0.000413731       0.000181114       0.000002989
    4 H               -0.000110551      -0.000091369      -0.000002705
    5 H               -0.000014598       0.000031361      -0.000002056
    6 H                0.000061172      -0.000020942       0.000000911
    7 H                0.000028576      -0.000020052       0.000000940
  $VIB   
          IVIB=   0 IATOM=   0 ICOORD=   0 E=     -153.7142695216
  3.252985210E-04-1.260699278E-04-2.266824420E-06-7.036289057E-04 4.595879680E-05
  2.187374689E-06 4.137307601E-04 1.811136596E-04 2.989043474E-06-1.105509545E-04
 -9.136931143E-05-2.704635544E-06-1.459780399E-05 3.136143343E-05-2.055562862E-06
  6.117239402E-05-2.094220333E-05 9.110702056E-07 2.857598904E-05-2.005244722E-05
  9.395344582E-07
 -4.392719223E-01 8.935321975E-01-2.652332112E-04
1   ATOM  1
                                        -------------------
   COORD  1                             NUCLEAR COORDINATES
                                        -------------------
     VIB  1

                       ATOM             X              Y              Z

                 1  C               -2.363937       0.391824      -0.000002
                 2  C               -0.156901      -0.810014      -0.000004
                 3  O                2.190636       0.251315       0.000022
                 4  H                2.008279       2.078764      -0.000287
                 5  H               -0.004792      -2.857956      -0.000080
                 6  H               -4.123081      -0.673508      -0.000005
                 7  H               -2.513122       2.443477       0.000101
 ...... END OF ONE-ELECTRON INTEGRALS ......
 STEP CPU TIME =     0.01 TOTAL CPU TIME =          7.9 (      0.1 MIN)
 TOTAL WALL CLOCK TIME=          8.8 SECONDS, CPU UTILIZATION IS    90.17%
 TOTAL NUMBER OF NONZERO TWO-ELECTRON INTEGRALS =              867690
         58 INTEGRAL RECORDS WERE STORED ON DISK FILE  8.
  ...... END OF TWO-ELECTRON INTEGRALS .....
 STEP CPU TIME =     0.08 TOTAL CPU TIME =          8.0 (      0.1 MIN)
 TOTAL WALL CLOCK TIME=          8.8 SECONDS, CPU UTILIZATION IS    90.16%

          --------------------------
             R-B3LYP SCF CALCULATION
          --------------------------
         DENSITY MATRIX CONVERGENCE THRESHOLD=  1.00E-05
     COARSE -> FINE DFT GRID SWITCH THRESHOLD=  3.00E-04 (SWITCH IN $DFT)
                   HF -> DFT SWITCH THRESHOLD=  5.00E-03 (SWOFF IN $DFT)

 ITER EX DEM     TOTAL ENERGY        E CHANGE  DENSITY CHANGE    DIIS ERROR
          * * *   INITIATING DIIS PROCEDURE   * * *
   1  0  0     -153.7142132401  -153.7142132401   0.001585214   0.000948217
   2  1  0     -153.7142238713    -0.0000106312   0.001091032   0.000662976
   3  2  0     -153.7142240635    -0.0000001922   0.000672970   0.000582492
   4  3  0     -153.7142250533    -0.0000009898   0.000160258   0.000113985
   5  4  0     -153.7142250869    -0.0000000336   0.000043930   0.000038100
   6  5  0     -153.7142250940    -0.0000000071   0.000010263   0.000009790
   7  6  0     -153.7142250944    -0.0000000004   0.000001677   0.000001390
   8  7  0     -153.7142250944    -0.0000000000   0.000000113   0.000000203

          -----------------
          DENSITY CONVERGED
          -----------------
     TIME TO FORM FOCK OPERATORS=       5.0 SECONDS (       0.6 SEC/ITER)
     TIME TO SOLVE SCF EQUATIONS=       0.0 SECONDS (       0.0 SEC/ITER)

 FINAL R-B3LYP ENERGY IS     -153.7142250944 AFTER   8 ITERATIONS
 DFT EXCHANGE + CORRELATION ENERGY =       -16.8392101010
 TOTAL ELECTRON NUMBER             =        23.9999809509
 ...... END OF RHF CALCULATION ......
 STEP CPU TIME =     5.08 TOTAL CPU TIME =         13.1 (      0.2 MIN)
 TOTAL WALL CLOCK TIME=         14.0 SECONDS, CPU UTILIZATION IS    93.55%
 ..... END OF 1-ELECTRON GRADIENT ......
 STEP CPU TIME =     0.01 TOTAL CPU TIME =         13.1 (      0.2 MIN)
 TOTAL WALL CLOCK TIME=         14.0 SECONDS, CPU UTILIZATION IS    93.55%
 MEMORY FOR GRID POINT CONTRIBUTIONS TO THE DFT GRADIENT=    269593 WORDS.
 STEP CPU TIME =     1.15 TOTAL CPU TIME =         14.2 (      0.2 MIN)
 TOTAL WALL CLOCK TIME=         15.1 SECONDS, CPU UTILIZATION IS    93.98%
 ...... END OF 2-ELECTRON GRADIENT ......
 STEP CPU TIME =     0.18 TOTAL CPU TIME =         14.4 (      0.2 MIN)
 TOTAL WALL CLOCK TIME=         15.3 SECONDS, CPU UTILIZATION IS    94.05%

 UNITS ARE HARTREE/BOHR    E'X               E'Y               E'Z 
    1 C                0.008571014      -0.001012657      -0.000002296
    2 C               -0.005168207       0.001972222       0.000002201
    3 O               -0.000168252       0.000235846       0.000002971
[...]
  7   H            X 0.053323-0.022191-0.000001
                   Y-0.022191 0.357402 0.000016
                   Z-0.000001 0.000016 0.018573

          ------------------------          ----------------
          DIPOLE DERIVATIVE TENSOR          (DEBYE/ANGSTROM)
          ------------------------          ----------------

        ATOM                 MU-X           MU-Y           MU-Z
     C          D/DX    -1.967288933    0.185603860    0.000039208
                D/DY     1.095115854   -0.063894957    0.000084082
                D/DZ    -0.000174050    0.000129791   -2.168088978
     C          D/DX     6.261872131    0.240994412   -0.000073089
                D/DY     1.378170184    1.812449852    0.000077346
                D/DZ     0.000152505    0.000048107    0.218072861
     O          D/DX    -5.902552608   -0.620485843    0.000116012
                D/DY    -2.446873981   -1.396964676   -0.000201174
                D/DZ    -0.000109236   -0.000130536   -1.939903487
     H          D/DX     1.385551311    0.491298097   -0.000104479
                D/DY     0.338282983    0.586045886    0.000126580
                D/DZ     0.000063471    0.000079334    1.704935665
     H          D/DX     0.151704825    0.111436773    0.000019715
                D/DY     0.006943205   -0.404731903   -0.000009925
                D/DZ     0.000075258   -0.000094066    0.630466658
     H          D/DX    -0.121239543   -0.218133763    0.000001102
                D/DY    -0.336108816    0.031003901   -0.000027616
                D/DZ     0.000033277   -0.000030199    0.750289248
     H          D/DX     0.190611729   -0.190439284    0.000000233
                D/DY    -0.035759800   -0.564373395   -0.000046755
                D/DZ     0.000093594   -0.000063380    0.805137623

          --------------------------------------------------------
          NORMAL COORDINATE ANALYSIS IN THE HARMONIC APPROXIMATION
          --------------------------------------------------------

     *******************************************************
     * THIS IS NOT A STATIONARY POINT ON THE MOLECULAR PES *
     *     THE VIBRATIONAL ANALYSIS IS NOT VALID !!!       *
     *******************************************************

          ATOMIC WEIGHTS (AMU)

    1     C                12.00000
    2     C                12.00000
    3     O                15.99491
    4     H                 1.00782
    5     H                 1.00782
    6     H                 1.00782
    7     H                 1.00782

 MODES    1 TO    6 ARE TAKEN AS ROTATIONS AND TRANSLATIONS.

 ANALYZING SYMMETRY OF NORMAL MODES...

     FREQUENCIES IN CM**-1, IR INTENSITIES IN DEBYE**2/AMU-ANGSTROM**2,
     REDUCED MASSES IN AMU.

     *******************************************************
     * THIS IS NOT A STATIONARY POINT ON THE MOLECULAR PES *
     *     THE VIBRATIONAL ANALYSIS IS NOT VALID !!!       *
     *******************************************************

                            1           2           3           4           5
       FREQUENCY:        20.22       10.41        0.01        0.02        0.05  
        SYMMETRY:         A           A           A           A           A   
    REDUCED MASS:      1.89581     3.49407     6.28772     6.29327     6.29942
    IR INTENSITY:      0.08593     0.01723     0.00000     0.00000     0.00000

  1   C            X -0.00000109 -0.02850348 -0.04789023 -0.00000542  0.14275401
                   Y -0.00000542 -0.16718458  0.14288735 -0.00515805  0.04702147
                   Z  0.15832449 -0.00000625  0.00489127  0.15047056  0.00164661
  2   C            X  0.00000183  0.05627581 -0.04792616 -0.00000925  0.14318135
                   Y  0.00000000 -0.01086605  0.14281659 -0.00516526  0.04781892
                   Z -0.11826821  0.00000303  0.00490400  0.15087243  0.00165103
  3   O            X  0.00000009 -0.01821944 -0.04789487 -0.00000621  0.14280447
                   Y  0.00000163  0.15375586  0.14274151 -0.00517300  0.04865849
                   Z -0.05107985  0.00000537  0.00489365  0.15057122  0.00164792
  4   H            X -0.00001529 -0.14658486 -0.04783855 -0.00000016  0.14215455
                   Y  0.00004780  0.14097244  0.14274884 -0.00517252  0.04859399
                   Z  0.23691617 -0.00000235  0.00487562  0.15002372  0.00164272
  5   H            X  0.00000405  0.19943481 -0.04799460 -0.00001630  0.14391717
                   Y  0.00001121 -0.00025035  0.14281331 -0.00516575  0.04787381
                   Z -0.44050481  0.00001006  0.00492398  0.15148277  0.00165758
  6   H            X -0.00000023  0.04720470 -0.04792302 -0.00000915  0.14313953
                   Y -0.00000643 -0.29161363  0.14294242 -0.00515225  0.04639195
                   Z  0.06626518 -0.00000728  0.00490104  0.15076235  0.00164988
  7   H            X -0.00000056 -0.17433610 -0.04782309  0.00000106  0.14201124
                   Y -0.00002108 -0.17715333  0.14289316 -0.00515746  0.04696947
                   Z  0.48088704 -0.00001238  0.00487085  0.14984740  0.00164053

 TRANS. SAYVETZ    X -0.00000188 -0.03301299 -2.10894929 -0.00030012  6.29106135
                   Y -0.00000723 -0.00790821  6.28745383 -0.22743088  2.10768760
                   Z  0.00990979  0.00003521  0.21554139  6.63131674  0.07257238
               TOTAL  0.00990980  0.03394699  6.63522425  6.63521564  6.63513878

   ROT. SAYVETZ    X  4.59307396 -0.00009664 -0.00029807 -0.00908586 -0.00009461
                   Y  7.08903576 -0.00041723 -0.00003881 -0.00222694 -0.00003146
                   Z  0.00045581 14.21348249 -0.00642730 -0.00065975  0.07243231
               TOTAL  8.44693770 14.21348250  0.00643433  0.00937802  0.07243238

                            6           7           8           9          10
       FREQUENCY:        10.51      481.58      490.32      714.64      813.71  
        SYMMETRY:         A           A           A           A           A   
    REDUCED MASS:      2.79899     1.11589     2.06264     1.53179     1.37593
    IR INTENSITY:      0.01352     2.87013     0.31312     0.00096     1.52913

  1   C            X  0.00000082 -0.00004492 -0.10528327 -0.00000005 -0.00000136
                   Y  0.00000345 -0.00001000 -0.02409907 -0.00000442  0.00000569
                   Z -0.11339334 -0.02542950  0.00001374  0.02473543 -0.14595327
  2   C            X -0.00000072  0.00000162 -0.00730146 -0.00000200  0.00000036
                   Y  0.00000007  0.00006272  0.13311829 -0.00000218  0.00000193
                   Z -0.08996000  0.04124479 -0.00002075 -0.15339108  0.05485254
  3   O            X -0.00000154  0.00003881  0.09210483 -0.00000425  0.00000009
                   Y -0.00000401 -0.00004148 -0.06361456  0.00000492 -0.00000211
                   Z  0.16532610 -0.06884655  0.00003039  0.07153971 -0.00445235
  4   H            X  0.00001521  0.00006902  0.32228878  0.00005370 -0.00001077
                   Y  0.00002600  0.00012298 -0.03983298 -0.00001244 -0.00000306
                   Z  0.33589426  0.88506674 -0.00037909 -0.06951431 -0.00481098
  5   H            X -0.00000061 -0.00000749 -0.06377397  0.00000782  0.00000164
                   Y  0.00000668  0.00006108  0.12740022 -0.00001103  0.00000409
                   Z -0.28310051  0.10730393 -0.00004572  0.13876408 -0.02187776
  6   H            X -0.00000146  0.00003455  0.07225621 -0.00000911  0.00001550
                   Y  0.00000838 -0.00014353 -0.32380132  0.00000771 -0.00002721
                   Z -0.33094308  0.16845667 -0.00006419  0.68614297  0.55027632
  7   H            X -0.00000021 -0.00019984 -0.45199216  0.00003985  0.00000063
                   Y -0.00000607 -0.00001028 -0.05222285  0.00001706 -0.00003155
                   Z  0.08058163 -0.25655616  0.00009237 -0.35873647  0.63178044

 TRANS. SAYVETZ    X -0.00001041 -0.00000333  0.00002195  0.00000041 -0.00000339
                   Y  0.00001342 -0.00000027  0.00000750  0.00000083 -0.00000048
                   Z  0.00502226 -0.00006380  0.00000214  0.00016345 -0.00001495
               TOTAL  0.00502229  0.00006389  0.00002329  0.00016345  0.00001534

   ROT. SAYVETZ    X  2.94803961  0.00181392  0.00002735  0.00037997 -0.00208759
                   Y-11.04480812  0.02489700 -0.00007797 -0.00691903 -0.00213969
                   Z -0.00024420  0.00000483 -0.03952763  0.00000552 -0.00000688
               TOTAL 11.43147952  0.02496299  0.03952771  0.00692946  0.00298938

                           11          12          13          14          15
       FREQUENCY:       967.83      998.78     1136.84     1342.02     1374.56  
        SYMMETRY:         A           A           A           A           A   
    REDUCED MASS:      1.69150     1.13802     2.12910     1.40359     1.32295
    IR INTENSITY:      0.20290     0.61171     4.31570     0.16365     0.03704

  1   C            X  0.12363979 -0.00000179 -0.03698170 -0.00953910  0.04566489
                   Y  0.06587560 -0.00000196  0.06483187  0.09073489 -0.01564419
                   Z  0.00000537  0.01340730  0.00000138  0.00000100 -0.00000138
  2   C            X  0.03999666  0.00000272 -0.05168536 -0.03383886 -0.09552873
                   Y  0.01251605  0.00000913 -0.11268442 -0.12323958 -0.05828180
                   Z -0.00000984 -0.10111943 -0.00001431  0.00000496  0.00000634
  3   O            X -0.10154752 -0.00000591  0.13380018 -0.01338587  0.01051201
                   Y -0.03120378 -0.00000485  0.04334714  0.02346224  0.06992646
                   Z  0.00000394 -0.00143581  0.00000568 -0.00000467 -0.00000793
  4   H            X -0.21595285  0.00002411 -0.48359390  0.42726830  0.55765527
                   Y -0.04603249  0.00001675 -0.00892236  0.05524959  0.11201593
                   Z -0.00002008  0.11202346  0.00000163  0.00001841  0.00005720
  5   H            X -0.16029863  0.00004604 -0.27451544  0.60495801 -0.52263167
                   Y -0.00153227 -0.00001745 -0.13057078 -0.08537080 -0.08943152
                   Z  0.00001559  0.81475340  0.00005119 -0.00001414  0.00001925
  6   H            X  0.41538556 -0.00000748  0.00591354  0.04566395  0.18268603
                   Y -0.41205445  0.00001028 -0.02660794 -0.01835630 -0.23205194
                   Z  0.00000298 -0.23149832  0.00000859  0.00000113 -0.00001868
  7   H            X -0.37586992  0.00001846 -0.31554701 -0.34897942  0.20913568
                   Y  0.02143875 -0.00001862  0.04793721  0.06315436 -0.02008471
                   Z -0.00001283  0.37195416  0.00000673 -0.00000009  0.00001172

 TRANS. SAYVETZ    X  0.00002309 -0.00000153  0.00001924 -0.00002674 -0.00004212
                   Y -0.00001101 -0.00000060  0.00001439  0.00001189  0.00000713
                   Z -0.00000498  0.00007256  0.00000425  0.00000221  0.00000263
               TOTAL  0.00002606  0.00007258  0.00002439  0.00002935  0.00004280

   ROT. SAYVETZ    X  0.00001139  0.00121710 -0.00000192  0.00000659  0.00000474
                   Y  0.00001217 -0.00081678  0.00004231 -0.00004256 -0.00000434
                   Z -0.01484600 -0.00000290 -0.00697477  0.00536422 -0.00236040
               TOTAL  0.01484601  0.00146577  0.00697490  0.00536439  0.00236041

                           16          17          18          19          20
       FREQUENCY:      1472.36     1731.09     3166.89     3214.25     3263.58  
        SYMMETRY:         A           A           A           A           A   
    REDUCED MASS:      1.16840     4.34253     1.06340     1.09402     1.11242
    IR INTENSITY:      0.40697     3.60713     0.17280     0.19379     0.28766

  1   C            X -0.05039042 -0.14816784  0.04490971  0.00361663 -0.05839933
                   Y  0.03955002  0.07520469 -0.05173002  0.02085214 -0.06924309
                   Z  0.00000284  0.00000102 -0.00000320  0.00000058 -0.00000194
  2   C            X -0.07888096  0.19066064 -0.00712764  0.01176477  0.00281804
                   Y  0.01459075 -0.06473031 -0.00331100 -0.08108130 -0.01844129
                   Z -0.00000138  0.00000045 -0.00000031 -0.00000249 -0.00000052
  3   O            X  0.03546957 -0.03520480  0.00002148 -0.00115575  0.00056047
                   Y -0.01350140  0.00379319 -0.00011749  0.00190600  0.00065141
                   Z  0.00000270 -0.00000111 -0.00000000 -0.00000027 -0.00000000
  4   H            X -0.22694921  0.11255035  0.00392256  0.00862359  0.00600893
                   Y -0.03119868  0.01035263  0.00373255 -0.02635280 -0.00235043
                   Z -0.00001532  0.00000590 -0.00000066  0.00000322 -0.00000034
  5   H            X  0.36079459 -0.22284177 -0.00152151 -0.07146929 -0.01577739
                   Y  0.05042248 -0.12679521  0.07258558  0.92848941  0.18542788
                   Z -0.00000966 -0.00000043  0.00000291  0.00003038  0.00000605
  6   H            X  0.30032286 -0.01062163 -0.39800510 -0.11343157  0.70169513
                   Y -0.51937873 -0.19190216 -0.25736184 -0.07046233  0.42104070
                   Z -0.00001921 -0.00000939 -0.00000226 -0.00000042  0.00000223
  7   H            X  0.54210983  0.17376825 -0.05459006  0.01148023 -0.03902908
                   Y  0.06978718  0.12341393  0.83827159 -0.14479492  0.42957534
                   Z -0.00001257  0.00000124  0.00004066 -0.00000690  0.00002142

 TRANS. SAYVETZ    X -0.00000637  0.00008481  0.00001153  0.00000413 -0.00000419
                   Y  0.00000025 -0.00001363 -0.00000078 -0.00000942 -0.00001125
                   Z  0.00000357 -0.00000290 -0.00000115 -0.00000076  0.00000013
               TOTAL  0.00000731  0.00008595  0.00001162  0.00001031  0.00001201

   ROT. SAYVETZ    X  0.00000712 -0.00000462 -0.00000124  0.00000631 -0.00000107
                   Y  0.00001032  0.00000640 -0.00000205 -0.00000032  0.00000172
                   Z  0.00197230 -0.00253324  0.00037832 -0.00005763  0.00094756
               TOTAL  0.00197234  0.00253325  0.00037833  0.00005797  0.00094756

                           21
       FREQUENCY:      3719.54  
        SYMMETRY:         A   
    REDUCED MASS:      1.06529
    IR INTENSITY:      0.47135

  1   C            X  0.00025870
                   Y  0.00133386
                   Z  0.00000011
  2   C            X  0.00157562
                   Y -0.00418998
                   Z  0.00000006
  3   O            X  0.00379633
                   Y -0.05974176
                   Z  0.00000998
  4   H            X -0.07775887
                   Y  0.96354415
                   Z -0.00016089
  5   H            X -0.00400389
                   Y  0.02427329
                   Z  0.00000042
  6   H            X  0.00199410
                   Y -0.00082594
                   Z -0.00000097
  7   H            X -0.00232089
                   Y -0.00485042
                   Z  0.00000070

 TRANS. SAYVETZ    X  0.00000200
                   Y -0.00001132
                   Z -0.00000023
               TOTAL  0.00001150

   ROT. SAYVETZ    X  0.00000560
                   Y  0.00000051
                   Z -0.00031198
               TOTAL  0.00031203

 REFERENCE ON SAYVETZ CONDITIONS - A. SAYVETZ, J.CHEM.PHYS., 7, 383-389(1939).

 NOTE - THE MODES J,K ARE ORTHONORMALIZED ACCORDING TO
 SUM ON I   M(I) * (X(I,J)*X(I,K) + Y(I,J)*Y(I,K) + Z(I,J)*Z(I,K)) = DELTA(J,K)

  MODE FREQ(CM**-1)  SYMMETRY  RED. MASS  IR INTENS.
     1      20.225    A        1.895805    0.085930
     2      10.408    A        3.494075    0.017235
     3       0.015    A        6.287725    0.000000
     4       0.020    A        6.293271    0.000000
     5       0.048    A        6.299416    0.000001
     6      10.506    A        2.798995    0.013521
     7     481.577    A        1.115892    2.870128
     8     490.321    A        2.062636    0.313116
     9     714.637    A        1.531792    0.000956
    10     813.712    A        1.375926    1.529129
    11     967.828    A        1.691495    0.202900
    12     998.776    A        1.138018    0.611707
    13    1136.841    A        2.129098    4.315704
    14    1342.015    A        1.403594    0.163646
    15    1374.559    A        1.322953    0.037041
    16    1472.361    A        1.168395    0.406971
    17    1731.087    A        4.342528    3.607131
    18    3166.891    A        1.063403    0.172797
    19    3214.247    A        1.094016    0.193786
    20    3263.579    A        1.112424    0.287660
    21    3719.536    A        1.065294    0.471347

     -------------------------------
     THERMOCHEMISTRY AT T=  298.15 K
     -------------------------------

 USING IDEAL GAS, RIGID ROTOR, HARMONIC NORMAL MODE APPROXIMATIONS.
 P=  1.01325E+05 PASCAL.
 ALL FREQUENCIES ARE SCALED BY   1.00000
 THE MOMENTS OF INERTIA ARE (IN AMU*BOHR**2)
     29.78736   172.24289   202.03025
 THE ROTATIONAL SYMMETRY NUMBER IS  1.0
 THE ROTATIONAL CONSTANTS ARE (IN GHZ)
     60.53200    10.46829     8.92484
      7 -     21 VIBRATIONAL MODES ARE USED IN THERMOCHEMISTRY.
 THE HARMONIC ZERO POINT ENERGY IS (SCALED BY   1.000)
        0.056699 HARTREE/MOLECULE    12443.983162 CM**-1/MOLECULE 
       35.579169 KCAL/MOL              148.863243 KJ/MOL

               Q               LN Q
 ELEC.     1.00000E+00       0.000000
 TRANS.    1.14821E+07      16.256298
 ROT.      1.15249E+04       9.352263
 VIB.      1.32227E+00       0.279346
 TOT.      1.74975E+11      25.887908

              E         H         G         CV        CP        S
           KJ/MOL    KJ/MOL    KJ/MOL   J/MOL-K   J/MOL-K   J/MOL-K
 ELEC.      0.000     0.000     0.000     0.000     0.000     0.000
 TRANS.     3.718     6.197   -40.298    12.472    20.786   155.948
 ROT.       3.718     3.718   -23.184    12.472    12.472    90.230
 VIB.     150.901   150.901   148.171    22.568    22.568     9.158
 TOTAL    158.338   160.817    84.689    47.512    55.826   255.336
 VIB. THERMAL CORRECTION E(T)-E(0) = H(T)-H(0) =  2037.977 J/MOL

              E         H         G         CV        CP        S
         KCAL/MOL  KCAL/MOL  KCAL/MOL CAL/MOL-K CAL/MOL-K CAL/MOL-K
 ELEC.      0.000     0.000     0.000     0.000     0.000     0.000
 TRANS.     0.889     1.481    -9.632     2.981     4.968    37.272
 ROT.       0.889     0.889    -5.541     2.981     2.981    21.566
 VIB.      36.066    36.066    35.414     5.394     5.394     2.189
 TOTAL     37.844    38.436    20.241    11.356    13.343    61.027
 VIB. THERMAL CORRECTION E(T)-E(0) = H(T)-H(0) =   487.088 CAL/MOL

     *******************************************************
     * THIS IS NOT A STATIONARY POINT ON THE MOLECULAR PES *
     *     THE VIBRATIONAL ANALYSIS IS NOT VALID !!!       *
     *******************************************************
 ......END OF NORMAL COORDINATE ANALYSIS......
 STEP CPU TIME =     0.01 TOTAL CPU TIME =        242.0 (      4.0 MIN)
 TOTAL WALL CLOCK TIME=        246.4 SECONDS, CPU UTILIZATION IS    98.23%
                994878  WORDS OF DYNAMIC MEMORY USED
 EXECUTION OF GAMESS TERMINATED NORMALLY Wed Oct 16 18:07:23 2019
 DDI: 263640 bytes (0.3 MB / 0 MWords) used by master data server.

 ----------------------------------------
 CPU timing information for all processes
 ========================================
 0: 239.20 + 2.988 = 242.08
 ----------------------------------------
 ddikick.x: exited gracefully.
----- accounting info -----
Files used on the master node crcfe01.crc.nd.edu were:
-rw-r--r-- 1 cdrisko campus      491 Oct 16 18:03 /afs/crc.nd.edu/user/c/cdrisko/vinylAlcohol_vib.F05
-rw-r--r-- 1 cdrisko campus    66747 Oct 16 18:07 /afs/crc.nd.edu/user/c/cdrisko/vinylAlcohol_vib.F07
-rw-r--r-- 1 cdrisko campus 10620944 Oct 16 18:07 /afs/crc.nd.edu/user/c/cdrisko/vinylAlcohol_vib.F08
-rw-r--r-- 1 cdrisko campus  1766880 Oct 16 18:07 /afs/crc.nd.edu/user/c/cdrisko/vinylAlcohol_vib.F10
-rw-r--r-- 1 cdrisko campus  2039576 Oct 16 18:07 /afs/crc.nd.edu/user/c/cdrisko/vinylAlcohol_vib.F22
Wed Oct 16 18:07:26 EDT 2019
0.287u 0.155s 4:09.85 0.1%	0+0k 0+160io 0pf+0w
