----- GAMESS execution script 'rungms' -----
This job is running on host crcfe01.crc.nd.edu
under operating system Linux at Thu Oct 17 08:28:09 EDT 2019
Available scratch disk space (Kbyte units) at beginning of the job is
Filesystem      1K-blocks  Used  Available Use% Mounted on
AFS            2147483647     0 2147483647   0% /afs
GAMESS temporary binary files will be written to /afs/crc.nd.edu/user/c/cdrisko
GAMESS supplementary output files will be written to /afs/crc.nd.edu/user/c/cdrisko/scr
Copying input file vinylAlcohol_MP2.inp to your run's scratch directory...

 Distributed Data Interface kickoff program.
 Initiating 1 compute processes on 1 nodes to run the following command:
 /afs/crc.nd.edu/x86_64_linux/g/gamess/nov-2017/gamess/gamess.00.x vinylAlcohol_MP2 

          ******************************************************
          *         GAMESS VERSION = 11 NOV 2017 (R3)         *
          *             FROM IOWA STATE UNIVERSITY             *
          * M.W.SCHMIDT, K.K.BALDRIDGE, J.A.BOATZ, S.T.ELBERT, *
          *   M.S.GORDON, J.H.JENSEN, S.KOSEKI, N.MATSUNAGA,   *
          *          K.A.NGUYEN, S.J.SU, T.L.WINDUS,           *
          *       TOGETHER WITH M.DUPUIS, J.A.MONTGOMERY       *
          *         J.COMPUT.CHEM.  14, 1347-1363(1993)        *
          **************** 64 BIT INTEL VERSION ****************

  SINCE 1993, STUDENTS AND POSTDOCS WORKING AT IOWA STATE UNIVERSITY
  AND ALSO IN THEIR VARIOUS JOBS AFTER LEAVING ISU HAVE MADE IMPORTANT
  CONTRIBUTIONS TO THE CODE:
     IVANA ADAMOVIC, CHRISTINE AIKENS, YURI ALEXEEV, POOJA ARORA,
     ANDREY ASADCHEV, ROB BELL, PRADIPTA BANDYOPADHYAY, JONATHAN BENTZ,
     BRETT BODE, KURT BRORSEN, CALEB CARLIN, GALINA CHABAN, WEI CHEN,
     CHEOL HO CHOI, PAUL DAY, ALBERT DEFUSCO, NUWAN DESILVA, TIM DUDLEY,
     DMITRI FEDOROV, ALEX FINDLATER, GRAHAM FLETCHER, MARK FREITAG,
     KURT GLAESEMANN, ANASTASIA GUININA,
     DAN KEMP, GRANT MERRILL, NORIYUKI MINEZAWA, JONATHAN MULLIN,
     TAKESHI NAGATA, SEAN NEDD, HEATHER NETZLOFF, BOSILJKA NJEGIC, RYAN OLSON,
     MIKE PAK, BUU PHAM,
     SPENCER PRUITT, LUKE ROSKOP, JIM SHOEMAKER, LYUDMILA SLIPCHENKO,
     TONY SMITH, SAROM SOK LEANG, JIE SONG, TETSUYA TAKETSUGU, SIMON WEBB,
     PENG XU, SOOHAENG YOO, FEDERICO ZAHARIEV

  ADDITIONAL CODE HAS BEEN PROVIDED BY COLLABORATORS IN OTHER GROUPS:
     IOWA STATE UNIVERSITY:
          JOE IVANIC, AARON WEST, LAIMUTIS BYTAUTAS, KLAUS RUEDENBERG
     UNIVERSITY OF TOKYO: KIMIHIKO HIRAO, TAKAHITO NAKAJIMA,
          TAKAO TSUNEDA, MUNEAKI KAMIYA, SUSUMU YANAGISAWA,
          KIYOSHI YAGI, MAHITO CHIBA, SEIKEN TOKURA, NAOAKI KAWAKAMI
     UNIVERSITY OF AARHUS: FRANK JENSEN
     UNIVERSITY OF IOWA: VISVALDAS KAIRYS, HUI LI
     NATIONAL INST. OF STANDARDS AND TECHNOLOGY: WALT STEVENS, DAVID GARMER
     UNIVERSITY OF PISA: BENEDETTA MENNUCCI, JACOPO TOMASI
     UNIVERSITY OF MEMPHIS: HENRY KURTZ, PRAKASHAN KORAMBATH
     UNIVERSITY OF ALBERTA: TOBY ZENG, MARIUSZ KLOBUKOWSKI
     UNIVERSITY OF NEW ENGLAND: MARK SPACKMAN
     MIE UNIVERSITY: HIROAKI UMEDA
     NAT. INST. OF ADVANCED INDUSTRIAL SCIENCE AND TECHNOLOGY: KAZUO KITAURA
     MICHIGAN STATE UNIVERSITY:
          KAROL KOWALSKI, MARTA WLOCH, JEFFREY GOUR, JESSE LUTZ,
          WEI LI, PIOTR PIECUCH
     UNIVERSITY OF SILESIA: MONIKA MUSIAL, STANISLAW KUCHARSKI
     FACULTES UNIVERSITAIRES NOTRE-DAME DE LA PAIX:
          OLIVIER QUINET, BENOIT CHAMPAGNE
     UNIVERSITY OF CALIFORNIA - SANTA BARBARA: BERNARD KIRTMAN
     INSTITUTE FOR MOLECULAR SCIENCE:
          KAZUYA ISHIMURA, MICHIO KATOUDA, AND SHIGERU NAGASE
     UNIVERSITY OF NOTRE DAME: ANNA POMOGAEVA, DAN CHIPMAN
     KYUSHU UNIVERSITY:
          HARUYUKI NAKANO,
          FENG LONG GU, JACEK KORCHOWIEC, MARCIN MAKOWSKI, AND YURIKO AOKI,
          HIROTOSHI MORI AND EISAKU MIYOSHI
     PENNSYLVANIA STATE UNIVERSITY:
          TZVETELIN IORDANOV, CHET SWALINA, JONATHAN SKONE,
          SHARON HAMMES-SCHIFFER
     WASEDA UNIVERSITY:
          MASATO KOBAYASHI, TOMOKO AKAMA, TSUGUKI TOUMA,
          TAKESHI YOSHIKAWA, YASUHIRO IKABATA, JUNJI SEINO,
          YUYA NAKAJIMA, HIROMI NAKAI
     NANJING UNIVERSITY: SHUHUA LI
     UNIVERSITY OF NEBRASKA:
          PEIFENG SU, DEJUN SI, NANDUN THELLAMUREGE, YALI WANG, HUI LI
     UNIVERSITY OF ZURICH: ROBERTO PEVERATI, KIM BALDRIDGE
     N. COPERNICUS UNIVERSITY AND JACKSON STATE UNIVERSITY:
          MARIA BARYSZ
     UNIVERSITY OF COPENHAGEN: Jimmy Kromann, CASPER STEINMANN
     TOKYO INSTITUTE OF TECHNOLOGY: HIROYA NAKATA
     NAGOYA UNIVERSITY: YOSHIO NISHIMOTO, STEPHAN IRLE
     MOSCOW STATE UNIVERSITY: VLADIMIR MIRONOV

 EXECUTION OF GAMESS BEGUN Thu Oct 17 08:28:09 2019

            ECHO OF THE FIRST FEW INPUT CARDS -
 INPUT CARD> $CONTRL SCFTYP=RHF MPLEVL=2 RUNTYP=ENERGY                                      
 INPUT CARD>       ICHARG=0 MULT=1 COORD=CART $END                                          
 INPUT CARD> $BASIS GBASIS=N31 NGAUSS=6 NDFUNC=1 $END                                       
 INPUT CARD> $DATA                                                                          
 INPUT CARD>Title Single Point Energy Calculation of Vinyl Alcohol                          
 INPUT CARD>C1 1                                                                            
 INPUT CARD>C 6 0.00000000 0.00000000 0.00000000                                            
 INPUT CARD>C 6 1.17335161 -0.63571529 0.00004703                                           
 INPUT CARD>O 8 2.41548533 -0.07379898 0.00008756                                           
 INPUT CARD>H 1 2.31876422 0.89322338 -0.00009738                                           
 INPUT CARD>H 1 1.25409326 -1.71942119 0.00003008                                           
 INPUT CARD>H 1 -0.92547757 -0.56396200 -0.00001886                                         
 INPUT CARD>H 1 -0.07390279 1.08567115 0.00003125                                           
 INPUT CARD> $END                                                                           
 INPUT CARD>                                                                                
    1000000 WORDS OF MEMORY AVAILABLE


                    * * * WARNING * * *
 OLD KEYWORD COORD=CART SELECTED, AUTOMATICALLY CHANGED TO COORD=PRINAXIS.
 YOUR MOLECULE'S COORDINATES WILL BE CHANGED TO PRINCIPAL AXES BY
   A) TRANSLATION TO THE CENTER OF MASS, THEN
   B) ROTATION TO HAVE A DIAGONAL MOMENT OF INERTIA TENSOR.

 HOWEVER, NOTHING ELSE IN YOUR INPUT WILL BE ROTATED IN THE SAME WAY,
 SO IF YOU HAVE A $VEC, $VIB, $GRAD, $HESS, EFP PARTICLE COORDINATES,
 OR ANYTHING ELSE THAT DEPENDS ON THE INITIAL ORIENTATION, THAT DATA
 WILL NOT BE USED CORRECTLY IN THIS RUN.

 THE PURPOSE OF COORD=PRINAXIS IS TO BE USED ONCE, ONLY AT THE VERY
 BEGINNING OF A SERIES OF COMPUTATIONS, PERHAPS TO FIND THE SYMMETRY
 UNIQUE ATOMS FROM AN ARBITRARY INITIAL ORIENTATION.

 AFTER THE FIRST RUN, YOU SHOULD USE ONLY COORD=UNIQUE, TO ENSURE THAT
 THE COORDINATES WHICH YOU READ IN ARE THE COORDINATES THAT ARE USED.


     BASIS OPTIONS
     -------------
     GBASIS=N31          IGAUSS=       6      POLAR=POPN31  
     NDFUNC=       1     NFFUNC=       0     DIFFSP=       F
     NPFUNC=       0      DIFFS=       F     BASNAM=        


     RUN TITLE
     ---------
 Title Single Point Energy Calculation of Vinyl Alcohol                          

 THE POINT GROUP OF THE MOLECULE IS C1      
 THE ORDER OF THE PRINCIPAL AXIS IS     1

 THE MOMENTS OF INERTIA ARE (AMU-ANGSTROM**2)
 IXX=     8.341   IYY=    48.233   IZZ=    56.574

 ATOM      ATOMIC                      COORDINATES (BOHR)
           CHARGE         X                   Y                   Z
 C           6.0    -2.3739374261        0.3918235503       -0.0000019113
 C           6.0    -0.1569005748       -0.8100137659       -0.0000040287
 O           8.0     2.1906358029        0.2513145407        0.0000215322
 H           1.0     2.0082794267        2.0787637939       -0.0002869054
 H           1.0    -0.0047916916       -2.8579559830       -0.0000804662
 H           1.0    -4.1230813513       -0.6735080893       -0.0000048601
 H           1.0    -2.5131218837        2.4434765804        0.0001012270

          INTERNUCLEAR DISTANCES (ANGS.)
          ------------------------------

                1 C          2 C          3 O          4 H          5 H     

   1 C       0.0000000    1.3344991 *  2.4166124 *  2.4848572 *  2.1281821 *
   2 C       1.3344991 *  0.0000000    1.3633217 *  1.9103988 *  1.0867096 *
   3 O       2.4166124 *  1.3633217 *  0.0000000    0.9718473 *  2.0141758 *
   4 H       2.4848572 *  1.9103988 *  0.9718473 *  0.0000000    2.8212472 *
   5 H       2.1281821 *  1.0867096 *  2.0141758 *  2.8212472 *  0.0000000  
   6 H       1.0837721 *  2.1000553 *  3.3767281    3.5564721    2.4669039 *
   7 H       1.0881836 *  2.1257504 *  2.7461654 *  2.4003940 *  3.1035651  

                6 H          7 H     

   1 C       1.0837721 *  1.0881836 *
   2 C       2.1000553 *  2.1257504 *
   3 O       3.3767281    2.7461654 *
   4 H       3.5564721    2.4003940 *
   5 H       2.4669039 *  3.1035651  
   6 H       0.0000000    1.8564668 *
   7 H       1.8564668 *  0.0000000  

  * ... LESS THAN  3.000


     ATOMIC BASIS SET
     ----------------
 THE CONTRACTED PRIMITIVE FUNCTIONS HAVE BEEN UNNORMALIZED
 THE CONTRACTED BASIS FUNCTIONS ARE NOW NORMALIZED TO UNITY

  SHELL TYPE  PRIMITIVE        EXPONENT          CONTRACTION COEFFICIENT(S)

 C         

      1   S       1          3047.5248800    0.001834737132
      1   S       2           457.3695180    0.014037322813
      1   S       3           103.9486850    0.068842622264
      1   S       4            29.2101553    0.232184443216
      1   S       5             9.2866630    0.467941348435
      1   S       6             3.1639270    0.362311985337

      2   L       7             7.8682723   -0.119332419775    0.068999066591
      2   L       8             1.8812885   -0.160854151696    0.316423960957
      2   L       9             0.5442493    1.143456437840    0.744308290898

      3   L      10             0.1687145    1.000000000000    1.000000000000

      4   D      11             0.8000000    1.000000000000

 C         

      5   S      12          3047.5248800    0.001834737132
      5   S      13           457.3695180    0.014037322813
      5   S      14           103.9486850    0.068842622264
      5   S      15            29.2101553    0.232184443216
      5   S      16             9.2866630    0.467941348435
      5   S      17             3.1639270    0.362311985337

      6   L      18             7.8682723   -0.119332419775    0.068999066591
      6   L      19             1.8812885   -0.160854151696    0.316423960957
      6   L      20             0.5442493    1.143456437840    0.744308290898

      7   L      21             0.1687145    1.000000000000    1.000000000000

      8   D      22             0.8000000    1.000000000000

 O         

      9   S      23          5484.6716600    0.001831074430
      9   S      24           825.2349460    0.013950172200
      9   S      25           188.0469580    0.068445078098
      9   S      26            52.9645000    0.232714335992
      9   S      27            16.8975704    0.470192897984
      9   S      28             5.7996353    0.358520852987

     10   L      29            15.5396162   -0.110777549525    0.070874268231
     10   L      30             3.5999336   -0.148026262701    0.339752839147
     10   L      31             1.0137618    1.130767015354    0.727158577316

     11   L      32             0.2700058    1.000000000000    1.000000000000

     12   D      33             0.8000000    1.000000000000

 H         

     13   S      34            18.7311370    0.033494604338
     13   S      35             2.8253944    0.234726953484
     13   S      36             0.6401217    0.813757326146

     14   S      37             0.1612778    1.000000000000

 H         

     15   S      38            18.7311370    0.033494604338
     15   S      39             2.8253944    0.234726953484
     15   S      40             0.6401217    0.813757326146

     16   S      41             0.1612778    1.000000000000

 H         

     17   S      42            18.7311370    0.033494604338
     17   S      43             2.8253944    0.234726953484
     17   S      44             0.6401217    0.813757326146

     18   S      45             0.1612778    1.000000000000

 H         

     19   S      46            18.7311370    0.033494604338
     19   S      47             2.8253944    0.234726953484
     19   S      48             0.6401217    0.813757326146

     20   S      49             0.1612778    1.000000000000

 TOTAL NUMBER OF BASIS SET SHELLS             =   20
 NUMBER OF CARTESIAN GAUSSIAN BASIS FUNCTIONS =   53
 NUMBER OF ELECTRONS                          =   24
 CHARGE OF MOLECULE                           =    0
 SPIN MULTIPLICITY                            =    1
 NUMBER OF OCCUPIED ORBITALS (ALPHA)          =   12
 NUMBER OF OCCUPIED ORBITALS (BETA )          =   12
 TOTAL NUMBER OF ATOMS                        =    7
 THE NUCLEAR REPULSION ENERGY IS       70.1037652838

     $CONTRL OPTIONS
     ---------------
 SCFTYP=RHF          RUNTYP=ENERGY       EXETYP=RUN     
 MPLEVL=       2     CITYP =NONE         CCTYP =NONE         VBTYP =NONE    
 DFTTYP=NONE         TDDFT =NONE    
 MULT  =       1     ICHARG=       0     NZVAR =       0     COORD =PRINAXIS
 PP    =NONE         RELWFN=NONE         LOCAL =NONE         NUMGRD=       F
 ISPHER=      -1     NOSYM =       0     MAXIT =      30     UNITS =ANGS    
 PLTORB=       F     MOLPLT=       F     AIMPAC=       F     FRIEND=        
 NPRINT=       7     IREST =       0     GEOM  =INPUT   
 NORMF =       0     NORMP =       0     ITOL  =      20     ICUT  =       9
 INTTYP=BEST         GRDTYP=BEST         QMTTOL= 1.0E-06

     $SYSTEM OPTIONS
     ---------------
  REPLICATED MEMORY=     1000000 WORDS (ON EVERY NODE).
 DISTRIBUTED MEMDDI=           0 MILLION WORDS IN AGGREGATE,
 MEMDDI DISTRIBUTED OVER   1 PROCESSORS IS           0 WORDS/PROCESSOR.
 TOTAL MEMORY REQUESTED ON EACH PROCESSOR=     1000000 WORDS.
 TIMLIM=      525600.00 MINUTES, OR     365.0 DAYS.
 PARALL= F  BALTYP=  DLB     KDIAG=    0  COREFL= F
 MXSEQ2=     300 MXSEQ3=     150  mem10=         0

          ----------------
          PROPERTIES INPUT
          ----------------

     MOMENTS            FIELD           POTENTIAL          DENSITY
 IEMOM =       1   IEFLD =       0   IEPOT =       0   IEDEN =       0
 WHERE =COMASS     WHERE =NUCLEI     WHERE =NUCLEI     WHERE =NUCLEI  
 OUTPUT=BOTH       OUTPUT=BOTH       OUTPUT=BOTH       OUTPUT=BOTH    
 IEMINT=       0   IEFINT=       0                     IEDINT=       0
                                                       MORB  =       0
          EXTRAPOLATION IN EFFECT
          SOSCF IN EFFECT
 ORBITAL PRINTING OPTION: NPREO=     1    53     2     1

     -------------------------------
     INTEGRAL TRANSFORMATION OPTIONS
     -------------------------------
     NWORD  =            0
     CUTOFF = 1.0E-09     MPTRAN =       0
     DIRTRF =       F     AOINTS =DUP     

          ----------------------
          INTEGRAL INPUT OPTIONS
          ----------------------
 NOPK  =       1 NORDER=       0 SCHWRZ=       T

          -----------------------
          MP2 CONTROL INFORMATION
          -----------------------
          NACORE =        3  NBCORE =        3
          LMOMP2 =        F  AOINTS = DUP     
          METHOD =        2  NWORD  =               0
          MP2PRP =        F  OSPT   = NONE    
          CUTOFF = 1.00E-09  CPHFBS = BASISAO 
          CODE   = IMS     

          NUMBER OF CORE -A-  ORBITALS =     3
          NUMBER OF CORE -B-  ORBITALS =     3
          NUMBER OF OCC. -A-  ORBITALS =    12
          NUMBER OF OCC. -B-  ORBITALS =    12
          NUMBER OF MOLECULAR ORBITALS =    53
          NUMBER OF   BASIS  FUNCTIONS =    53


     ------------------------------------------
     THE POINT GROUP IS C1 , NAXIS= 1, ORDER= 1
     ------------------------------------------

     DIMENSIONS OF THE SYMMETRY SUBSPACES ARE
 A   =   53

 ..... DONE SETTING UP THE RUN .....
 STEP CPU TIME =     0.02 TOTAL CPU TIME =          0.0 (      0.0 MIN)
 TOTAL WALL CLOCK TIME=          0.0 SECONDS, CPU UTILIZATION IS    66.67%

          ********************
          1 ELECTRON INTEGRALS
          ********************
 ...... END OF ONE-ELECTRON INTEGRALS ......
 STEP CPU TIME =     0.01 TOTAL CPU TIME =          0.0 (      0.0 MIN)
 TOTAL WALL CLOCK TIME=          0.0 SECONDS, CPU UTILIZATION IS   100.00%

          -------------
          GUESS OPTIONS
          -------------
          GUESS =HUCKEL            NORB  =       0          NORDER=       0
          MIX   =       F          PRTMO =       F          PUNMO =       F
          TOLZ  = 1.0E-08          TOLE  = 1.0E-05
          SYMDEN=       F          PURIFY=       F

 INITIAL GUESS ORBITALS GENERATED BY HUCKEL   ROUTINE.
 HUCKEL GUESS REQUIRES     27154 WORDS.

 SYMMETRIES FOR INITIAL GUESS ORBITALS FOLLOW.   BOTH SET(S).
    12 ORBITALS ARE OCCUPIED (    3 CORE ORBITALS).
     4=A        5=A        6=A        7=A        8=A        9=A       10=A   
    11=A       12=A       13=A       14=A       15=A       16=A       17=A   
    18=A       19=A       20=A       21=A       22=A   
 ...... END OF INITIAL ORBITAL SELECTION ......
 STEP CPU TIME =     0.00 TOTAL CPU TIME =          0.0 (      0.0 MIN)
 TOTAL WALL CLOCK TIME=          0.0 SECONDS, CPU UTILIZATION IS    75.00%

                    ----------------------
                    AO INTEGRAL TECHNOLOGY
                    ----------------------
     S,P,L SHELL ROTATED AXIS INTEGRALS, REPROGRAMMED BY
        KAZUYA ISHIMURA (IMS) AND JOSE SIERRA (SYNSTAR).
     S,P,D,L SHELL ROTATED AXIS INTEGRALS PROGRAMMED BY
        KAZUYA ISHIMURA (INSTITUTE FOR MOLECULAR SCIENCE).
     S,P,D,F,G SHELL TO TOTAL QUARTET ANGULAR MOMENTUM SUM 5,
        ERIC PROGRAM BY GRAHAM FLETCHER (ELORET AND NASA ADVANCED
        SUPERCOMPUTING DIVISION, AMES RESEARCH CENTER).
     S,P,D,F,G,L SHELL GENERAL RYS QUADRATURE PROGRAMMED BY
        MICHEL DUPUIS (PACIFIC NORTHWEST NATIONAL LABORATORY).

          --------------------
          2 ELECTRON INTEGRALS
          --------------------

 THE -PK- OPTION IS OFF, THE INTEGRALS ARE NOT IN SUPERMATRIX FORM.
 STORING   15000 INTEGRALS/RECORD ON DISK, USING 12 BYTES/INTEGRAL.
 TWO ELECTRON INTEGRAL EVALUATION REQUIRES   90606 WORDS OF MEMORY.
 SCHWARZ INEQUALITY OVERHEAD:      1430 INTEGRALS, T=        0.00
 II,JST,KST,LST =  1  1  1  1 NREC =         1 INTLOC =    1
 II,JST,KST,LST =  2  1  1  1 NREC =         1 INTLOC =    2
 II,JST,KST,LST =  3  1  1  1 NREC =         1 INTLOC =   34
 II,JST,KST,LST =  4  1  1  1 NREC =         1 INTLOC =  214
 II,JST,KST,LST =  5  1  1  1 NREC =         1 INTLOC = 1189
 II,JST,KST,LST =  6  1  1  1 NREC =         1 INTLOC = 3033
 II,JST,KST,LST =  7  1  1  1 NREC =         2 INTLOC =   36
 II,JST,KST,LST =  8  1  1  1 NREC =         3 INTLOC = 5893
 II,JST,KST,LST =  9  1  1  1 NREC =         7 INTLOC =   89
 II,JST,KST,LST = 10  1  1  1 NREC =         7 INTLOC = 9868
 II,JST,KST,LST = 11  1  1  1 NREC =        11 INTLOC = 9499
 II,JST,KST,LST = 12  1  1  1 NREC =        17 INTLOC =13917
 II,JST,KST,LST = 13  1  1  1 NREC =        30 INTLOC = 6161
 II,JST,KST,LST = 14  1  1  1 NREC =        33 INTLOC = 5460
 II,JST,KST,LST = 15  1  1  1 NREC =        36 INTLOC = 9882
 II,JST,KST,LST = 16  1  1  1 NREC =        39 INTLOC =14744
 II,JST,KST,LST = 17  1  1  1 NREC =        43 INTLOC =10430
 II,JST,KST,LST = 18  1  1  1 NREC =        46 INTLOC = 8534
 II,JST,KST,LST = 19  1  1  1 NREC =        50 INTLOC = 4938
 II,JST,KST,LST = 20  1  1  1 NREC =        54 INTLOC = 2918
 SCHWARZ INEQUALITY TEST SKIPPED         652 INTEGRAL BLOCKS.
 TOTAL NUMBER OF NONZERO TWO-ELECTRON INTEGRALS =              866916
         58 INTEGRAL RECORDS WERE STORED ON DISK FILE  8.
  ...... END OF TWO-ELECTRON INTEGRALS .....
 STEP CPU TIME =     0.12 TOTAL CPU TIME =          0.2 (      0.0 MIN)
 TOTAL WALL CLOCK TIME=          0.1 SECONDS, CPU UTILIZATION IS   100.00%

          --------------------------
                 RHF SCF CALCULATION
          --------------------------

     NUCLEAR ENERGY =        70.1037652838
     MAXIT =   30     NPUNCH=    2
     EXTRAP=T  DAMP=F  SHIFT=F  RSTRCT=F  DIIS=F  DEM=F  SOSCF=T
     DENSITY MATRIX CONV=  1.00E-06
     SOSCF WILL OPTIMIZE     492 ORBITAL ROTATIONS, SOGTOL=   0.250
     MEMORY REQUIRED FOR RHF ITERS=     52373 WORDS.

 ITER EX DEM     TOTAL ENERGY        E CHANGE  DENSITY CHANGE     ORB. GRAD
   1  0  0     -152.4439505043  -152.4439505043   0.207337486   0.000000000
          ---------------START SECOND ORDER SCF---------------
   2  1  0     -152.8578866997    -0.4139361954   0.102233810   0.037786581
   3  2  0     -152.8819222162    -0.0240355165   0.037437041   0.020102545
   4  3  0     -152.8871658841    -0.0052436679   0.005726106   0.002961118
   5  4  0     -152.8873168621    -0.0001509780   0.001690182   0.001406848
   6  5  0     -152.8873389912    -0.0000221290   0.000802101   0.000428511
   7  6  0     -152.8873407981    -0.0000018070   0.000395924   0.000194775
   8  7  0     -152.8873410132    -0.0000002151   0.000078096   0.000029732
   9  8  0     -152.8873410337    -0.0000000205   0.000033697   0.000010081
  10  9  0     -152.8873410354    -0.0000000017   0.000007010   0.000002834
  11 10  0     -152.8873410355    -0.0000000001   0.000002756   0.000000711
  12 11  0     -152.8873410356    -0.0000000000   0.000000658   0.000000183
  13 12  0     -152.8873410356    -0.0000000000   0.000000174   0.000000044

          -----------------
          DENSITY CONVERGED
          -----------------
     TIME TO FORM FOCK OPERATORS=       0.1 SECONDS (       0.0 SEC/ITER)
     TIME TO SOLVE SCF EQUATIONS=       0.0 SECONDS (       0.0 SEC/ITER)

 FINAL RHF ENERGY IS     -152.8873410356 AFTER  13 ITERATIONS

          ------------
          EIGENVECTORS
          ------------

                      1          2          3          4          5
                  -20.5956   -11.2999   -11.2162    -1.3973    -1.0174
                     A          A          A          A          A   
    1  C  1  S    0.000006   0.009441   0.995520  -0.015823  -0.161039
    2  C  1  S    0.000062  -0.000104   0.027695   0.029474   0.300159
    3  C  1  X   -0.000064  -0.000182   0.000187   0.024107   0.088397
    4  C  1  Y   -0.000010   0.000143  -0.000056  -0.005786  -0.055521
    5  C  1  Z    0.000000  -0.000000   0.000000  -0.000000   0.000001
    6  C  1  S   -0.000862   0.004059  -0.011563   0.022920   0.240520
    7  C  1  X   -0.000303   0.001405  -0.000771   0.013723   0.011370
    8  C  1  Y    0.000179  -0.001540   0.000270   0.008016   0.007313
    9  C  1  Z    0.000000  -0.000000  -0.000000  -0.000000   0.000001
   10  C  1 XX   -0.000074  -0.000211  -0.001778   0.004714   0.014458
   11  C  1 YY    0.000023  -0.000255  -0.002004  -0.001364   0.008702
   12  C  1 ZZ   -0.000007  -0.000107  -0.002537  -0.001215  -0.012860
   13  C  1 XY   -0.000016  -0.000040  -0.000215  -0.001452  -0.005335
   14  C  1 XZ    0.000000  -0.000000  -0.000000  -0.000000  -0.000000
   15  C  1 YZ   -0.000000  -0.000000   0.000000   0.000000   0.000001
   16  C  2  S   -0.000018   0.995669  -0.010105  -0.075973  -0.138391
   17  C  2  S    0.000340   0.026553  -0.000562   0.141584   0.276870
   18  C  2  X    0.000321   0.001183   0.000202   0.095696  -0.150003
   19  C  2  Y    0.000112   0.000473  -0.000150   0.052398   0.033042
   20  C  2  Z    0.000000  -0.000000   0.000000   0.000000  -0.000000
   21  C  2  S    0.000355  -0.009209   0.004303   0.035281   0.188869
   22  C  2  X   -0.000758   0.002149  -0.001425  -0.004956  -0.037543
   23  C  2  Y    0.000504   0.000469   0.000991  -0.016002  -0.012073
   24  C  2  Z   -0.000000   0.000000   0.000000  -0.000000  -0.000001
   25  C  2 XX   -0.000084  -0.000976  -0.000355   0.019295   0.004466
   26  C  2 YY   -0.000061  -0.001668  -0.000279  -0.000321   0.005969
   27  C  2 ZZ   -0.000089  -0.002430  -0.000072  -0.011532  -0.010617
   28  C  2 XY   -0.000042   0.000053   0.000005   0.015961  -0.015819
   29  C  2 XZ   -0.000000   0.000000  -0.000000   0.000000   0.000000
   30  C  2 YZ   -0.000000   0.000000  -0.000000   0.000000   0.000000
   31  O  3  S    0.994638  -0.000098   0.000015  -0.202641   0.053825
   32  O  3  S    0.021156   0.000580  -0.000016   0.456747  -0.126813
   33  O  3  X   -0.001166  -0.000122   0.000009  -0.085386  -0.075923
   34  O  3  Y    0.000659  -0.000048  -0.000003   0.030932  -0.064560
   35  O  3  Z   -0.000000  -0.000000  -0.000000  -0.000012   0.000007
   36  O  3  S    0.004181  -0.001407  -0.000312   0.432015  -0.141195
   37  O  3  X    0.000483   0.001347   0.000080  -0.048638  -0.044165
   38  O  3  Y   -0.000485   0.000732  -0.000081   0.021805  -0.037775
   39  O  3  Z    0.000000   0.000000  -0.000000  -0.000007   0.000004
   40  O  3 XX   -0.004115  -0.000567   0.000142   0.014576   0.010403
   41  O  3 YY   -0.004155  -0.000032   0.000030   0.022161  -0.013464
   42  O  3 ZZ   -0.003919   0.000441  -0.000031  -0.002012  -0.002850
   43  O  3 XY   -0.000036  -0.000546   0.000008   0.000856   0.003831
   44  O  3 XZ   -0.000000  -0.000000   0.000000   0.000001   0.000000
   45  O  3 YZ    0.000000   0.000000   0.000000  -0.000004   0.000002
   46  H  4  S    0.000431   0.000087  -0.000007   0.114335  -0.059057
   47  H  4  S   -0.000217   0.000027   0.000054  -0.005274  -0.006459
   48  H  5  S    0.000028  -0.000135  -0.000047   0.022974   0.078212
   49  H  5  S    0.000191   0.002116   0.000004  -0.004744   0.011944
   50  H  6  S    0.000036  -0.000123  -0.000143   0.003758   0.089650
   51  H  6  S    0.000005  -0.000143   0.002010   0.004602   0.023454
   52  H  7  S   -0.000002  -0.000024  -0.000139   0.004828   0.083106
   53  H  7  S    0.000015   0.000409   0.002114  -0.001491   0.011292

                      6          7          8          9         10
                   -0.8260    -0.6749    -0.6624    -0.5719    -0.5426
                     A          A          A          A          A   
    1  C  1  S   -0.096112   0.052276   0.001294  -0.000004  -0.015930
    2  C  1  S    0.179590  -0.100844  -0.002647   0.000009   0.031510
    3  C  1  X   -0.054216   0.279736  -0.113008   0.000098   0.302707
    4  C  1  Y    0.053427  -0.139101  -0.202852  -0.000076   0.103705
    5  C  1  Z    0.000002  -0.000012  -0.000010   0.097469  -0.000025
    6  C  1  S    0.201547  -0.137051   0.011618   0.000012   0.057869
    7  C  1  X   -0.012261   0.115137  -0.053317   0.000037   0.133588
    8  C  1  Y    0.002907  -0.038851  -0.096302  -0.000042   0.049565
    9  C  1  Z   -0.000001  -0.000006  -0.000004   0.060453  -0.000016
   10  C  1 XX    0.005659   0.000339   0.003367   0.000003  -0.010487
   11  C  1 YY    0.013366  -0.019039  -0.003874  -0.000007   0.003830
   12  C  1 ZZ   -0.008988   0.004725   0.000546   0.000000   0.000325
   13  C  1 XY    0.005283  -0.018629   0.004197  -0.000005  -0.020053
   14  C  1 XZ   -0.000000  -0.000001  -0.000001   0.009881  -0.000003
   15  C  1 YZ    0.000001  -0.000001  -0.000001  -0.004405   0.000002
   16  C  2  S    0.095151  -0.064879  -0.002398  -0.000001  -0.004216
   17  C  2  S   -0.193929   0.137621   0.003226   0.000006   0.010903
   18  C  2  X   -0.172947  -0.191048  -0.150966  -0.000114  -0.221027
   19  C  2  Y    0.133668   0.056186  -0.305885   0.000069   0.071788
   20  C  2  Z   -0.000001  -0.000018  -0.000018   0.215650  -0.000060
   21  C  2  S   -0.175345   0.113765   0.057554  -0.000005   0.018940
   22  C  2  X   -0.005953  -0.054565  -0.006698  -0.000017  -0.023117
   23  C  2  Y    0.052713   0.000233  -0.113847   0.000025   0.011516
   24  C  2  Z    0.000001  -0.000008  -0.000006   0.123430  -0.000036
   25  C  2 XX   -0.010098  -0.014822  -0.014483   0.000003  -0.001630
   26  C  2 YY   -0.009641   0.012187   0.016475  -0.000008  -0.007737
   27  C  2 ZZ    0.011386  -0.002498   0.003200   0.000002   0.004066
   28  C  2 XY   -0.004881  -0.005093  -0.013323  -0.000006  -0.027201
   29  C  2 XZ   -0.000001  -0.000001  -0.000001   0.014927  -0.000004
   30  C  2 YZ   -0.000001  -0.000001   0.000000   0.012853  -0.000004
   31  O  3  S   -0.015862   0.043138  -0.026506  -0.000023  -0.041128
   32  O  3  S    0.037710  -0.105508   0.066199   0.000053   0.096670
   33  O  3  X    0.142136  -0.093905   0.338451   0.000111   0.389856
   34  O  3  Y    0.308151   0.318794   0.080081  -0.000017  -0.199746
   35  O  3  Z   -0.000024  -0.000056  -0.000036   0.565265  -0.000140
   36  O  3  S    0.042526  -0.149976   0.084765   0.000098   0.168239
   37  O  3  X    0.080008  -0.077144   0.224085   0.000081   0.291513
   38  O  3  Y    0.176836   0.204859   0.056724  -0.000008  -0.143062
   39  O  3  Z   -0.000014  -0.000037  -0.000024   0.414102  -0.000106
   40  O  3 XX   -0.016557   0.002266  -0.025942  -0.000003  -0.016497
   41  O  3 YY    0.025579   0.016016   0.020082  -0.000002  -0.008124
   42  O  3 ZZ   -0.000797  -0.008584   0.006685  -0.000003   0.010107
   43  O  3 XY   -0.017840  -0.017955   0.003865   0.000002   0.014090
   44  O  3 XZ    0.000000   0.000004  -0.000001  -0.028884   0.000005
   45  O  3 YZ   -0.000006  -0.000006  -0.000003   0.010751   0.000000
   46  H  4  S    0.164415   0.149743   0.052729  -0.000055  -0.104758
   47  H  4  S    0.055406   0.068344   0.034200  -0.000034  -0.054751
   48  H  5  S   -0.145106   0.031641   0.169947  -0.000052  -0.051322
   49  H  5  S   -0.059010   0.007827   0.105652  -0.000042  -0.050261
   50  H  6  S    0.086638  -0.147097   0.110581  -0.000026  -0.194424
   51  H  6  S    0.036969  -0.085285   0.064549  -0.000026  -0.169132
   52  H  7  S    0.107501  -0.142488  -0.109902  -0.000049   0.070904
   53  H  7  S    0.059030  -0.092374  -0.070360  -0.000039   0.046933

                     11         12         13         14         15
                   -0.5364    -0.3450     0.2018     0.2219     0.2737
                     A          A          A          A          A   
    1  C  1  S    0.017589   0.000001   0.000004   0.041425   0.024253
    2  C  1  S   -0.038863  -0.000001  -0.000011  -0.062228  -0.024537
    3  C  1  X   -0.024754   0.000004   0.000004   0.038861   0.154887
    4  C  1  Y    0.334131  -0.000015  -0.000010  -0.078122   0.127100
    5  C  1  Z    0.000039   0.395561  -0.310309   0.000099  -0.000008
    6  C  1  S   -0.031795   0.000003   0.000016  -0.374916  -0.523229
    7  C  1  X    0.035015   0.000002   0.000088   0.372994   0.557836
    8  C  1  Y    0.192098  -0.000013  -0.000043  -0.332233   0.309825
    9  C  1  Z    0.000023   0.353195  -0.718284   0.000213  -0.000028
   10  C  1 XX   -0.022646  -0.000000   0.000001   0.007978   0.012833
   11  C  1 YY    0.027432   0.000000  -0.000002  -0.007360  -0.008798
   12  C  1 ZZ    0.000044   0.000000   0.000000   0.004057   0.000188
   13  C  1 XY   -0.008189  -0.000000   0.000002   0.010228   0.012998
   14  C  1 XZ    0.000002   0.020343   0.023709  -0.000008   0.000002
   15  C  1 YZ    0.000001  -0.011722  -0.015208   0.000003  -0.000001
   16  C  2  S   -0.008753  -0.000002  -0.000005  -0.007195   0.063812
   17  C  2  S    0.015412   0.000007   0.000011   0.019261  -0.078340
   18  C  2  X    0.095702  -0.000004   0.000024   0.065135   0.008895
   19  C  2  Y   -0.280373   0.000000  -0.000008   0.028491   0.258634
   20  C  2  Z    0.000050   0.309449   0.417744  -0.000125   0.000025
   21  C  2  S    0.045038  -0.000003  -0.000017  -0.182486  -1.224733
   22  C  2  X    0.016508   0.000002   0.000091   0.307139  -0.009629
   23  C  2  Y   -0.154901  -0.000010  -0.000087  -0.059737   0.821147
   24  C  2  Z    0.000032   0.232299   0.777019  -0.000239   0.000067
   25  C  2 XX   -0.029819   0.000002  -0.000000  -0.002046  -0.013736
   26  C  2 YY    0.038048  -0.000002  -0.000002  -0.004445   0.016109
   27  C  2 ZZ   -0.000666  -0.000000   0.000001   0.005341   0.003732
   28  C  2 XY   -0.005149  -0.000000  -0.000004  -0.006676  -0.006988
   29  C  2 XZ    0.000003  -0.036212   0.011082  -0.000003  -0.000001
   30  C  2 YZ    0.000005   0.007558  -0.017903   0.000005  -0.000001
   31  O  3  S    0.028435   0.000002   0.000028   0.079532  -0.005429
   32  O  3  S   -0.064979  -0.000006  -0.000025  -0.063051  -0.020830
   33  O  3  X   -0.000197   0.000003   0.000018   0.054655   0.046829
   34  O  3  Y    0.173317  -0.000024  -0.000085  -0.233274   0.011724
   35  O  3  Z    0.000126  -0.284732  -0.176693   0.000092  -0.000017
   36  O  3  S   -0.122237  -0.000009  -0.000366  -1.099816   0.144154
   37  O  3  X   -0.014441   0.000002   0.000034   0.119036   0.065845
   38  O  3  Y    0.123374  -0.000020  -0.000175  -0.509329  -0.028632
   39  O  3  Z    0.000098  -0.269230  -0.271081   0.000176  -0.000034
   40  O  3 XX   -0.004996  -0.000001   0.000014   0.042294  -0.006147
   41  O  3 YY    0.017901  -0.000001   0.000011   0.028388  -0.016954
   42  O  3 ZZ   -0.002394   0.000002   0.000017   0.047533  -0.012004
   43  O  3 XY   -0.004390   0.000001   0.000005   0.009784  -0.008589
   44  O  3 XZ   -0.000007   0.003872  -0.009352   0.000001  -0.000000
   45  O  3 YZ   -0.000000  -0.009038  -0.016890   0.000010   0.000001
   46  H  4  S    0.097964   0.000012   0.000045   0.077711  -0.029545
   47  H  4  S    0.086746   0.000006   0.000478   1.431490  -0.251907
   48  H  5  S    0.213819  -0.000008  -0.000020  -0.042255   0.036936
   49  H  5  S    0.166742  -0.000014  -0.000113  -0.154764   1.718790
   50  H  6  S   -0.122672   0.000001   0.000009   0.048796   0.035567
   51  H  6  S   -0.074854  -0.000002   0.000066   0.442879   1.192241
   52  H  7  S    0.216318   0.000001  -0.000019  -0.041229  -0.026373
   53  H  7  S    0.185628  -0.000005   0.000073   0.540677  -0.340480

                     16         17         18         19         20
                    0.2926     0.3397     0.4651     0.5276     0.7111
                     A          A          A          A          A   
    1  C  1  S   -0.106792   0.059136   0.050013  -0.067536  -0.001137
    2  C  1  S    0.087212  -0.070948  -0.058146  -0.053073   0.369572
    3  C  1  X   -0.098010   0.113748  -0.066896  -0.005617   0.500734
    4  C  1  Y    0.163783   0.192147  -0.152879  -0.051731  -0.272731
    5  C  1  Z    0.000028   0.000001  -0.000017  -0.000021  -0.000002
    6  C  1  S    2.116641  -0.904990  -0.670969   3.215179   0.623257
    7  C  1  X   -0.203181   0.579292  -1.299238   2.749690  -0.196424
    8  C  1  Y    0.625540   1.333121  -0.955726  -1.619147   0.246825
    9  C  1  Z    0.000091   0.000035  -0.000042  -0.000020   0.000012
   10  C  1 XX    0.006509   0.006344   0.024301  -0.000094   0.035672
   11  C  1 YY   -0.017888  -0.007468  -0.045633   0.016193   0.029946
   12  C  1 ZZ   -0.007591   0.004679   0.008649  -0.013308   0.004049
   13  C  1 XY    0.008507  -0.002303   0.005630   0.022664  -0.040945
   14  C  1 XZ   -0.000002  -0.000000   0.000001   0.000000  -0.000001
   15  C  1 YZ    0.000000  -0.000000  -0.000001   0.000003   0.000001
   16  C  2  S   -0.000299  -0.095227  -0.086642   0.053205   0.067827
   17  C  2  S   -0.001146   0.114113   0.021949  -0.073921   0.189036
   18  C  2  X    0.127766   0.069374   0.095312   0.186428  -0.532715
   19  C  2  Y    0.041536  -0.089488   0.221067  -0.171895  -0.021719
   20  C  2  Z   -0.000016  -0.000006   0.000005  -0.000017  -0.000008
   21  C  2  S    0.031714   1.671664   1.996024  -2.913177  -0.627737
   22  C  2  X    0.567914  -0.131122   1.333885   2.826135   1.443241
   23  C  2  Y   -0.061391  -0.900434   1.597915  -1.341014  -0.553127
   24  C  2  Z   -0.000053  -0.000035   0.000051   0.000010  -0.000011
   25  C  2 XX   -0.004896  -0.029436   0.005928  -0.015718   0.130447
   26  C  2 YY    0.007856   0.015759   0.001610  -0.006718   0.024954
   27  C  2 ZZ    0.006841   0.001229   0.011719   0.004036  -0.040227
   28  C  2 XY   -0.016527  -0.017606  -0.000416   0.002767  -0.027906
   29  C  2 XZ   -0.000001  -0.000001  -0.000001   0.000001   0.000003
   30  C  2 YZ    0.000001   0.000000  -0.000000  -0.000000   0.000001
   31  O  3  S    0.050399   0.012086   0.074654   0.012591  -0.001089
   32  O  3  S   -0.056071  -0.076930  -0.045511  -0.012164   0.109058
   33  O  3  X    0.060904   0.141832   0.188271   0.007465  -0.228811
   34  O  3  Y   -0.028056   0.093024   0.190383   0.139912  -0.018244
   35  O  3  Z    0.000029  -0.000003  -0.000019  -0.000016   0.000018
   36  O  3  S   -0.707090   0.087903  -1.481843  -0.372600  -0.511079
   37  O  3  X    0.202808   0.144376   0.931539   0.063659  -0.050848
   38  O  3  Y   -0.030710   0.256876   0.529324   0.576514   0.066079
   39  O  3  Z    0.000049  -0.000011  -0.000033  -0.000022   0.000017
   40  O  3 XX    0.012242  -0.009121   0.002336  -0.009486  -0.055451
   41  O  3 YY    0.021075  -0.012618   0.029351   0.024129   0.071746
   42  O  3 ZZ    0.020384  -0.016971   0.049047  -0.001624   0.026683
   43  O  3 XY    0.002770   0.006524  -0.014740  -0.020087  -0.042233
   44  O  3 XZ   -0.000001  -0.000000  -0.000002   0.000001   0.000001
   45  O  3 YZ    0.000000  -0.000002   0.000001  -0.000001  -0.000006
   46  H  4  S    0.050193  -0.019761  -0.035291   0.028940   0.218398
   47  H  4  S    0.482755  -0.252349  -0.630336  -0.654601  -0.038252
   48  H  5  S    0.024600   0.022806  -0.031003   0.002174   0.064039
   49  H  5  S    0.016466  -1.599501   0.596100  -0.772134  -0.238178
   50  H  6  S    0.022212   0.014610   0.078090   0.133003  -0.045245
   51  H  6  S   -0.680253   1.806869  -1.021678   0.421336   0.246108
   52  H  7  S   -0.067350  -0.001295  -0.136007   0.073389  -0.023721
   53  H  7  S   -1.849632  -0.904216   1.186163   0.721940  -0.093110

                     21         22         23         24         25
                    0.7665     0.8177     0.8429     0.8801     0.9195
                     A          A          A          A          A   
    1  C  1  S   -0.000001  -0.020521  -0.014899   0.000000  -0.095363
    2  C  1  S    0.000007  -0.513825  -0.256094   0.000011  -0.295227
    3  C  1  X    0.000000   0.063600  -0.214316   0.000001   0.485870
    4  C  1  Y    0.000022   0.202567  -0.255016   0.000035  -0.260403
    5  C  1  Z   -0.692425   0.000021   0.000001  -0.851882  -0.000011
    6  C  1  S   -0.000046   0.903151  -0.180922  -0.000046   1.419037
    7  C  1  X   -0.000060  -0.534691   0.056133  -0.000036  -0.341477
    8  C  1  Y    0.000046  -0.408246   0.866617  -0.000053   0.283059
    9  C  1  Z    0.523651  -0.000008   0.000015   1.166178   0.000045
   10  C  1 XX    0.000002  -0.126103  -0.018366   0.000000  -0.129061
   11  C  1 YY   -0.000002  -0.036805  -0.072634   0.000002  -0.144733
   12  C  1 ZZ    0.000002   0.026289   0.009576   0.000002   0.091084
   13  C  1 XY   -0.000001  -0.069922   0.033835  -0.000002   0.056802
   14  C  1 XZ   -0.055422  -0.000002   0.000002   0.013906  -0.000000
   15  C  1 YZ    0.027148  -0.000000  -0.000006  -0.002644  -0.000008
   16  C  2  S    0.000001  -0.023100   0.025320  -0.000001   0.049923
   17  C  2  S   -0.000006  -0.896254  -0.483771  -0.000009   0.028165
   18  C  2  X   -0.000002  -0.238948  -0.364915  -0.000019   0.662291
   19  C  2  Y    0.000021  -0.114727  -0.577629  -0.000033  -0.050210
   20  C  2  Z   -0.765826  -0.000005  -0.000013   0.748070   0.000010
   21  C  2  S    0.000045   1.790109   0.630064   0.000044  -0.655388
   22  C  2  X   -0.000089   0.691754  -0.304798   0.000017  -0.384422
   23  C  2  Y   -0.000017   0.121139   1.055777   0.000083  -0.249875
   24  C  2  Z    0.795219  -0.000017   0.000023  -1.134863  -0.000035
   25  C  2 XX    0.000002  -0.015641  -0.034373  -0.000001   0.059671
   26  C  2 YY    0.000001  -0.163620   0.028025  -0.000001   0.021497
   27  C  2 ZZ   -0.000002   0.005435  -0.048504   0.000001  -0.027357
   28  C  2 XY    0.000002   0.057150   0.022185   0.000001  -0.135235
   29  C  2 XZ    0.039593   0.000001  -0.000005   0.057679  -0.000001
   30  C  2 YZ   -0.045960  -0.000004   0.000004  -0.000401   0.000002
   31  O  3  S   -0.000000   0.009277  -0.032008  -0.000000   0.011062
   32  O  3  S   -0.000016  -0.055011   0.194431   0.000004   0.057850
   33  O  3  X   -0.000010  -0.188282   0.021173  -0.000005   0.119319
   34  O  3  Y   -0.000026   0.020035  -0.111642  -0.000001   0.013841
   35  O  3  Z   -0.098910   0.000007  -0.000030   0.055557   0.000012
   36  O  3  S    0.000039  -0.529034  -0.143381  -0.000026   0.115684
   37  O  3  X   -0.000008   0.258105  -0.173229   0.000008  -0.099616
   38  O  3  Y   -0.000009   0.102656  -0.152878  -0.000008  -0.016354
   39  O  3  Z   -0.069838   0.000006  -0.000002   0.110602   0.000009
   40  O  3 XX   -0.000007  -0.108434  -0.006224  -0.000002   0.067918
   41  O  3 YY   -0.000005  -0.006136   0.015065   0.000001   0.084829
   42  O  3 ZZ   -0.000006   0.034395   0.081360   0.000003  -0.023167
   43  O  3 XY   -0.000001  -0.055352  -0.093535  -0.000001   0.077680
   44  O  3 XZ    0.030720   0.000002   0.000002  -0.054865  -0.000001
   45  O  3 YZ    0.016828  -0.000003   0.000008  -0.008669  -0.000003
   46  H  4  S   -0.000001   0.117775  -0.103098   0.000002   0.127418
   47  H  4  S    0.000060  -0.219196  -0.175807  -0.000008  -0.028302
   48  H  5  S   -0.000001  -0.481138   0.364431  -0.000001   0.129907
   49  H  5  S    0.000014  -0.130751   0.216112   0.000016  -0.057297
   50  H  6  S   -0.000013  -0.468813   0.143577  -0.000003  -0.380904
   51  H  6  S   -0.000007  -0.170148   0.163859  -0.000010  -0.223098
   52  H  7  S   -0.000012  -0.023316  -0.397664   0.000002  -0.518513
   53  H  7  S   -0.000048  -0.122949  -0.326957   0.000005  -0.048180

                     26         27         28         29         30
                    1.0605     1.1249     1.1329     1.2018     1.2230
                     A          A          A          A          A   
    1  C  1  S    0.019619  -0.003518  -0.005074  -0.027986  -0.000005
    2  C  1  S   -0.039537   0.164818  -0.236412   0.905094   0.000174
    3  C  1  X   -0.223425  -0.038763  -0.506712  -0.576312  -0.000153
    4  C  1  Y   -0.103798  -0.367613  -0.956897   0.286980  -0.000002
    5  C  1  Z   -0.000001  -0.000007  -0.000040   0.000017   0.014353
    6  C  1  S   -0.459169  -0.847818   1.158985  -1.220132  -0.000506
    7  C  1  X    0.152128  -0.320129   1.715288   1.125891   0.000181
    8  C  1  Y    0.427080   0.367893   2.510654  -0.482991   0.000002
    9  C  1  Z    0.000019   0.000004   0.000098  -0.000031   0.149903
   10  C  1 XX    0.012899  -0.127594  -0.045408   0.108434   0.000007
   11  C  1 YY    0.012982   0.106380   0.027212  -0.050428  -0.000005
   12  C  1 ZZ   -0.022690   0.017145  -0.011977   0.140909   0.000025
   13  C  1 XY   -0.025400  -0.026766  -0.068157  -0.143162  -0.000016
   14  C  1 XZ   -0.000005   0.000002  -0.000006  -0.000000   0.000404
   15  C  1 YZ    0.000007   0.000007  -0.000007  -0.000014   0.041545
   16  C  2  S   -0.055982   0.004494  -0.001211  -0.004035   0.000008
   17  C  2  S    0.339470   0.667347  -0.201242   0.400486  -0.000095
   18  C  2  X   -0.028683   0.213492   0.018455  -0.171994   0.000024
   19  C  2  Y   -0.215737  -0.782023   0.579146   0.043315   0.000138
   20  C  2  Z   -0.000021  -0.000009   0.000018  -0.000007   0.125384
   21  C  2  S   -0.619229  -0.956886   0.103616  -1.176058   0.000287
   22  C  2  X   -0.551265  -0.414389  -0.158096   0.517988  -0.000079
   23  C  2  Y    0.473153   2.033792  -2.476278  -0.417581  -0.000086
   24  C  2  Z   -0.000005   0.000026  -0.000055   0.000019  -0.543796
   25  C  2 XX   -0.035646   0.208081  -0.009063  -0.049420   0.000026
   26  C  2 YY   -0.093199  -0.065938  -0.072826   0.002554   0.000030
   27  C  2 ZZ    0.086733   0.054918  -0.005557   0.041185  -0.000038
   28  C  2 XY   -0.091219   0.045002   0.048115   0.012785   0.000022
   29  C  2 XZ    0.000015  -0.000006  -0.000000  -0.000008  -0.005743
   30  C  2 YZ   -0.000006   0.000001  -0.000009  -0.000002   0.039199
   31  O  3  S    0.023073   0.000337  -0.005093   0.001726  -0.000004
   32  O  3  S   -0.061263  -0.162624  -0.019224   0.184582  -0.000361
   33  O  3  X    0.500355  -0.259009   0.062322   0.089562  -0.000099
   34  O  3  Y   -0.253395   0.162194   0.025514   0.207728  -0.000273
   35  O  3  Z    0.000064  -0.000093   0.000057   0.000021  -0.955228
   36  O  3  S    0.251818   0.203332   0.490913  -0.322712   0.000723
   37  O  3  X   -0.588578   0.575773  -0.250165  -0.192235   0.000172
   38  O  3  Y   -0.305723  -0.105842   0.174427  -0.174904   0.000240
   39  O  3  Z    0.000005   0.000072  -0.000062  -0.000029   1.202849
   40  O  3 XX   -0.011800  -0.081587   0.060313   0.078812  -0.000126
   41  O  3 YY    0.180720  -0.086886  -0.031051   0.038844  -0.000070
   42  O  3 ZZ   -0.070797  -0.040476  -0.027054   0.060244  -0.000153
   43  O  3 XY    0.015731   0.048316  -0.006007   0.006019  -0.000032
   44  O  3 XZ    0.000006  -0.000000  -0.000001   0.000000   0.024225
   45  O  3 YZ   -0.000043   0.000023   0.000002   0.000011   0.040219
   46  H  4  S    0.850827  -0.227628  -0.097377  -0.127344   0.000280
   47  H  4  S   -0.565611  -0.069565   0.143330   0.228287  -0.000434
   48  H  5  S   -0.417986  -0.464715   0.024484  -0.105812   0.000214
   49  H  5  S    0.852029   1.980040  -1.363212  -0.027769  -0.000295
   50  H  6  S    0.061865  -0.214258  -0.314451  -0.627877  -0.000159
   51  H  6  S    0.216558   0.383786   1.673005   1.266805   0.000318
   52  H  7  S    0.067853   0.266765   0.260415  -0.636208  -0.000042
   53  H  7  S   -0.212595  -0.497943  -1.783798   1.148194   0.000189

                     31         32         33         34         35
                    1.2542     1.3079     1.3939     1.5062     1.6528
                     A          A          A          A          A   
    1  C  1  S   -0.009188  -0.029770   0.014298  -0.013627   0.000002
    2  C  1  S    0.196575  -1.532939   0.148590  -0.302367   0.000018
    3  C  1  X   -0.286911  -0.166804  -0.089164  -0.067145  -0.000020
    4  C  1  Y    0.039088   0.187223  -0.065468   0.137275   0.000023
    5  C  1  Z    0.000012  -0.000005  -0.000001  -0.000006   0.190462
    6  C  1  S   -1.033975   5.576192  -1.190086   2.565952  -0.000046
    7  C  1  X    0.219989   1.585771   0.717022   1.163142  -0.000110
    8  C  1  Y   -0.207473  -0.904817   2.255812  -0.782445  -0.000355
    9  C  1  Z   -0.000098   0.000039   0.000091  -0.000039  -0.057072
   10  C  1 XX   -0.004304  -0.009008   0.129281  -0.014484  -0.000024
   11  C  1 YY   -0.016232  -0.147923  -0.114081  -0.071751  -0.000016
   12  C  1 ZZ    0.041291  -0.074126   0.007166   0.041483   0.000040
   13  C  1 XY   -0.011821  -0.107388   0.110517  -0.056708  -0.000014
   14  C  1 XZ    0.000008  -0.000005  -0.000022   0.000037  -0.345428
   15  C  1 YZ   -0.000011  -0.000002  -0.000026  -0.000032   0.294187
   16  C  2  S    0.019319   0.024859  -0.020822   0.026286   0.000003
   17  C  2  S   -0.015435   1.245222  -0.249930   0.366549  -0.000022
   18  C  2  X    0.065900  -0.362583   0.096173  -0.163377   0.000005
   19  C  2  Y    0.072074   0.138399   0.136578   0.060990  -0.000014
   20  C  2  Z   -0.000044   0.000005   0.000016   0.000004   0.012207
   21  C  2  S    0.135594  -5.058286   1.585913  -1.168864   0.000411
   22  C  2  X   -0.350980   1.678675  -1.435591   2.524305   0.000519
   23  C  2  Y    0.618359  -1.124303  -1.503007  -0.935930   0.000465
   24  C  2  Z    0.000223  -0.000054  -0.000118   0.000040   0.049225
   25  C  2 XX    0.059618  -0.056497   0.050814   0.162377   0.000023
   26  C  2 YY    0.111382   0.143795  -0.107000  -0.112233  -0.000022
   27  C  2 ZZ   -0.077760   0.046960   0.033365   0.048594   0.000022
   28  C  2 XY    0.080276   0.107062   0.032014   0.094620   0.000027
   29  C  2 XZ    0.000015   0.000003   0.000007  -0.000061   0.577805
   30  C  2 YZ    0.000002   0.000005  -0.000023   0.000010  -0.055895
   31  O  3  S   -0.015519  -0.004616  -0.001743   0.026456   0.000026
   32  O  3  S   -0.865338   0.044796   0.128698   0.458053   0.000370
   33  O  3  X   -0.400013  -0.094476  -0.423997  -0.111745  -0.000078
   34  O  3  Y   -0.374773   0.219963   0.157053  -0.808524  -0.000062
   35  O  3  Z    0.000446  -0.000081  -0.000053   0.000086  -0.030862
   36  O  3  S    1.801101   0.213583   0.335628  -1.407165  -0.001171
   37  O  3  X    0.649768  -0.192687   0.391062   0.512663   0.000391
   38  O  3  Y    0.207742  -0.349524  -0.290588   1.979414   0.000179
   39  O  3  Z   -0.000555   0.000122   0.000109  -0.000159  -0.117267
   40  O  3 XX   -0.274604   0.105921   0.031664   0.103516   0.000132
   41  O  3 YY   -0.208196   0.012858   0.110968   0.105792   0.000071
   42  O  3 ZZ   -0.354132  -0.096643  -0.074601   0.187362   0.000112
   43  O  3 XY   -0.095083  -0.047804   0.048483   0.196918   0.000047
   44  O  3 XZ   -0.000012   0.000003   0.000010   0.000001  -0.312978
   45  O  3 YZ   -0.000059  -0.000002  -0.000021   0.000079  -0.295255
   46  H  4  S    0.600893   0.056845   0.198244  -0.289850   0.000005
   47  H  4  S   -1.125666   0.249223   0.050190  -0.662346  -0.000008
   48  H  5  S    0.442128   0.069934  -0.579320  -0.190216   0.000065
   49  H  5  S   -0.023357   0.110268  -0.612679  -0.231440   0.000132
   50  H  6  S   -0.233246  -0.018031   0.701085  -0.007881  -0.000053
   51  H  6  S    0.421020  -0.510656   0.626313   0.079578  -0.000049
   52  H  7  S   -0.101646  -0.139030  -0.594648  -0.180603   0.000052
   53  H  7  S    0.508000  -0.360274  -0.542618   0.322422   0.000156

                     36         37         38         39         40
                    1.7440     1.8126     2.0026     2.0575     2.0807
                     A          A          A          A          A   
    1  C  1  S    0.000003  -0.023897  -0.000002  -0.000015   0.020357
    2  C  1  S    0.000013  -0.260903  -0.000071   0.000185  -0.181720
    3  C  1  X   -0.000021   0.054158  -0.000014   0.000141  -0.232916
    4  C  1  Y   -0.000002  -0.117635  -0.000038  -0.000025   0.053981
    5  C  1  Z   -0.059992   0.000045  -0.016373   0.061197   0.000051
    6  C  1  S   -0.000256   2.004707   0.000352   0.000399  -1.026893
    7  C  1  X   -0.000074   1.450132   0.000333  -0.000135  -0.197470
    8  C  1  Y    0.000098   1.380440   0.000277   0.000006  -0.176262
    9  C  1  Z   -0.034174   0.000012   0.024849  -0.126159  -0.000143
   10  C  1 XX   -0.000000   0.143985   0.000042   0.000028   0.029689
   11  C  1 YY   -0.000013  -0.054524  -0.000103   0.000172  -0.277335
   12  C  1 ZZ    0.000012  -0.087861   0.000070  -0.000216   0.223247
   13  C  1 XY   -0.000004   0.054959   0.000005   0.000109  -0.132568
   14  C  1 XZ    0.413299  -0.000110   0.396109  -0.140246  -0.000213
   15  C  1 YZ    0.229811   0.000023   0.708106   0.493220   0.000330
   16  C  2  S   -0.000004   0.011413   0.000007  -0.000021   0.014768
   17  C  2  S   -0.000055   0.379116   0.000118  -0.000220   0.083374
   18  C  2  X    0.000012  -0.137678  -0.000028   0.000037  -0.020540
   19  C  2  Y    0.000020   0.051879   0.000022  -0.000114   0.090831
   20  C  2  Z   -0.170141   0.000010   0.054934   0.117193   0.000104
   21  C  2  S    0.000338  -3.185179  -0.000668   0.000897  -0.238252
   22  C  2  X   -0.000123  -0.985875  -0.000198   0.000748  -0.993207
   23  C  2  Y    0.000109  -2.968833  -0.000480  -0.000611   1.189365
   24  C  2  Z    0.117570  -0.000028  -0.001152   0.130875   0.000159
   25  C  2 XX    0.000008  -0.079861  -0.000031   0.000002   0.014905
   26  C  2 YY   -0.000043   0.059836  -0.000029   0.000407  -0.393625
   27  C  2 ZZ    0.000032  -0.055284   0.000057  -0.000437   0.412039
   28  C  2 XY   -0.000011  -0.076795  -0.000028   0.000201  -0.346382
   29  C  2 XZ    0.062399   0.000123  -0.038418  -0.002289  -0.000035
   30  C  2 YZ    0.688751   0.000027  -0.153511  -0.225525  -0.000216
   31  O  3  S    0.000007  -0.117945  -0.000017   0.000012  -0.008153
   32  O  3  S    0.000115  -1.580198  -0.000196   0.000125   0.007485
   33  O  3  X   -0.000033   0.307317   0.000003   0.000141  -0.225487
   34  O  3  Y    0.000046  -0.050970   0.000005  -0.000135   0.153384
   35  O  3  Z    0.010865   0.000011   0.045542   0.050029   0.000039
   36  O  3  S   -0.000301   5.114124   0.000743  -0.000625   0.269781
   37  O  3  X    0.000095  -1.722673  -0.000239   0.000066   0.130142
   38  O  3  Y   -0.000126   0.282602  -0.000017   0.000550  -0.644089
   39  O  3  Z   -0.128291  -0.000134  -0.021107  -0.110633  -0.000080
   40  O  3 XX    0.000029  -0.614105  -0.000139   0.000450  -0.464570
   41  O  3 YY    0.000071  -0.573090  -0.000172   0.000186   0.143313
   42  O  3 ZZ   -0.000008  -0.095780   0.000163  -0.000573   0.349218
   43  O  3 XY    0.000011   0.059519   0.000090  -0.000450   0.409552
   44  O  3 XZ   -0.357401  -0.000179   0.437813  -0.082273  -0.000121
   45  O  3 YZ    0.115238   0.000140  -0.350799   0.829993   0.000837
   46  H  4  S    0.000053  -0.468925  -0.000053  -0.000129   0.121039
   47  H  4  S    0.000082  -0.270603  -0.000002  -0.000068   0.097843
   48  H  5  S    0.000006  -0.385048  -0.000010  -0.000559   0.629208
   49  H  5  S   -0.000003  -0.776843  -0.000101  -0.000362   0.516021
   50  H  6  S    0.000023   0.188080   0.000046  -0.000139   0.094452
   51  H  6  S    0.000025   0.450721   0.000137  -0.000078  -0.013774
   52  H  7  S    0.000011  -0.415799  -0.000045  -0.000170   0.310268
   53  H  7  S   -0.000045  -0.652324  -0.000149   0.000023   0.055413

                     41         42         43         44         45
                    2.2100     2.2904     2.4720     2.5604     2.6471
                     A          A          A          A          A   
    1  C  1  S   -0.023415  -0.003683   0.002767  -0.000006  -0.065990
    2  C  1  S   -0.313986  -0.043445   0.014951  -0.000023  -0.276005
    3  C  1  X   -0.306959  -0.131475   0.020683  -0.000000   0.032776
    4  C  1  Y    0.165679  -0.205276   0.059553  -0.000005   0.008454
    5  C  1  Z   -0.000001  -0.000011   0.000003  -0.051073   0.000011
    6  C  1  S   -0.173013   0.342312  -0.193980   0.000148   2.170315
    7  C  1  X   -0.395257   0.008467   0.507308   0.000124   0.943262
    8  C  1  Y   -0.336326  -0.362292   0.133522  -0.000043  -0.111293
    9  C  1  Z    0.000015   0.000015   0.000028  -0.257409   0.000033
   10  C  1 XX    0.265624   0.485454   0.005461   0.000084   0.172292
   11  C  1 YY    0.209040  -0.506251  -0.459344  -0.000062   0.434345
   12  C  1 ZZ   -0.635645  -0.019509   0.307965  -0.000053  -0.776734
   13  C  1 XY   -0.014059   0.270726  -0.747368  -0.000088  -0.289029
   14  C  1 XZ    0.000055   0.000043   0.000084  -0.673133   0.000054
   15  C  1 YZ   -0.000015  -0.000104  -0.000064   0.152659   0.000027
   16  C  2  S   -0.043570   0.005808  -0.023296  -0.000006   0.029457
   17  C  2  S   -0.400367   0.075374  -0.347225  -0.000037   0.266368
   18  C  2  X   -0.021994   0.023690   0.165395   0.000065   0.441108
   19  C  2  Y   -0.080830  -0.181024  -0.149118  -0.000048   0.013028
   20  C  2  Z   -0.000015  -0.000028  -0.000024   0.170855  -0.000001
   21  C  2  S    1.136335  -0.158629   0.099760  -0.000004  -1.579200
   22  C  2  X   -0.145123   0.165948  -0.360926   0.000071   0.620648
   23  C  2  Y    0.946601  -0.298957  -0.533741  -0.000067  -0.880635
   24  C  2  Z   -0.000004  -0.000033  -0.000041   0.404646  -0.000041
   25  C  2 XX    0.323713  -0.395068   0.188460   0.000009  -0.086671
   26  C  2 YY    0.100253   0.488888  -0.119347  -0.000012  -0.372549
   27  C  2 ZZ   -0.621642  -0.031065  -0.288228  -0.000060   0.407514
   28  C  2 XY   -0.159796  -0.429262  -0.298273  -0.000038  -0.345215
   29  C  2 XZ    0.000017  -0.000001   0.000035  -0.023837   0.000023
   30  C  2 YZ    0.000002   0.000023  -0.000033   0.738612  -0.000063
   31  O  3  S    0.001733  -0.023519  -0.019096   0.000002  -0.004666
   32  O  3  S    0.030695   0.254957  -0.361328   0.000037   0.192463
   33  O  3  X    0.019983  -0.261973   0.082938  -0.000005  -0.173309
   34  O  3  Y    0.112180  -0.187748  -0.036509  -0.000012  -0.142855
   35  O  3  Z    0.000005  -0.000014  -0.000002   0.086643  -0.000002
   36  O  3  S   -0.344300  -0.120840   1.014100  -0.000103  -0.071093
   37  O  3  X    0.240680   0.088317  -0.370178   0.000034   0.107903
   38  O  3  Y   -0.030262   0.343538   0.359232   0.000025   0.391324
   39  O  3  Z   -0.000024   0.000009  -0.000036  -0.303864   0.000011
   40  O  3 XX   -0.191152   0.000726   0.215271   0.000061   0.141655
   41  O  3 YY    0.363555   0.098737   0.032960  -0.000118  -0.276127
   42  O  3 ZZ   -0.208990  -0.019365  -0.391103   0.000075   0.213972
   43  O  3 XY    0.386425  -0.159247  -0.257586  -0.000025  -0.493689
   44  O  3 XZ    0.000035  -0.000017  -0.000006   0.633023  -0.000030
   45  O  3 YZ   -0.000162  -0.000136  -0.000166   0.066079   0.000015
   46  H  4  S   -0.192395  -0.210334  -0.405488   0.000072   0.076760
   47  H  4  S   -0.093315   0.057376  -0.079427  -0.000035  -0.128591
   48  H  5  S    0.042837  -0.527038  -0.097714  -0.000058   0.148493
   49  H  5  S    0.197185   0.040944  -0.280766  -0.000024  -0.304214
   50  H  6  S   -0.289612  -0.470272   0.599284   0.000017  -0.087761
   51  H  6  S   -0.218850   0.017279   0.040289   0.000011   0.051762
   52  H  7  S   -0.108040   0.530627   0.228310   0.000020  -0.486008
   53  H  7  S    0.092270  -0.057763  -0.053741   0.000005  -0.047215

                     46         47         48         49         50
                    2.7688     2.8631     3.0017     3.1710     3.3183
                     A          A          A          A          A   
    1  C  1  S    0.013427  -0.000002   0.040282  -0.037861  -0.021625
    2  C  1  S   -0.025255   0.000021  -0.018398   0.309279   0.141133
    3  C  1  X   -0.117797   0.000048  -0.262967   0.589298   0.226395
    4  C  1  Y    0.097268  -0.000038   0.091471  -0.298961  -0.230022
    5  C  1  Z    0.000032   0.125859   0.000002  -0.000003  -0.000003
    6  C  1  S    0.125393  -0.000095  -1.528590   1.416836   0.414799
    7  C  1  X   -0.071850  -0.000022  -0.589399   0.689233   0.382758
    8  C  1  Y    0.320870  -0.000142   0.260228  -0.566534   0.348571
    9  C  1  Z    0.000011   0.105354   0.000001  -0.000020   0.000022
   10  C  1 XX   -0.441946   0.000147  -0.740294   0.594012  -0.222869
   11  C  1 YY    0.323886  -0.000104   0.484222  -0.190622   0.393949
   12  C  1 ZZ    0.116155  -0.000029   0.307369  -0.337392  -0.166475
   13  C  1 XY    0.325990  -0.000089  -0.187937  -0.586640  -0.582335
   14  C  1 XZ    0.000099   0.492050  -0.000001  -0.000019  -0.000001
   15  C  1 YZ   -0.000095  -0.378771   0.000006   0.000004   0.000018
   16  C  2  S    0.034211  -0.000009  -0.056667   0.048224   0.081036
   17  C  2  S    0.228042  -0.000074   0.378824  -0.019306  -0.742993
   18  C  2  X   -0.378905   0.000117   0.368354   0.839629  -0.329582
   19  C  2  Y    0.196042  -0.000062   0.365242  -0.111019  -0.314649
   20  C  2  Z    0.000012  -0.005200   0.000006   0.000005  -0.000007
   21  C  2  S   -0.785824   0.000260   2.282961  -1.188421  -1.650663
   22  C  2  X   -0.312475   0.000105  -0.101536   1.120742  -0.710782
   23  C  2  Y   -0.676840   0.000294   0.901438  -0.224262  -0.503115
   24  C  2  Z    0.000069   0.025851   0.000008   0.000027  -0.000023
   25  C  2 XX   -0.003673  -0.000015   0.075425  -0.370069  -1.031105
   26  C  2 YY   -0.111494   0.000029   0.578726   0.173073   0.798287
   27  C  2 ZZ    0.382267  -0.000086  -0.615908   0.324896   0.591039
   28  C  2 XY   -0.355966   0.000134  -0.163116   0.996939  -0.281446
   29  C  2 XZ    0.000312   0.981765   0.000014  -0.000008  -0.000014
   30  C  2 YZ    0.000104  -0.005673   0.000020   0.000025  -0.000000
   31  O  3  S   -0.054227   0.000017   0.036835   0.011755  -0.057791
   32  O  3  S   -0.524055   0.000164   0.721511   0.136424  -0.387189
   33  O  3  X   -0.018183   0.000008  -0.142914   0.070258  -0.151103
   34  O  3  Y   -0.093609   0.000032  -0.046562  -0.032605  -0.025042
   35  O  3  Z    0.000025   0.021766   0.000001   0.000008  -0.000009
   36  O  3  S    1.869240  -0.000606  -2.008779  -0.586915   1.850256
   37  O  3  X   -0.591468   0.000206   1.125152   0.426476  -0.963386
   38  O  3  Y    0.685670  -0.000227   0.223024   0.511701  -0.765895
   39  O  3  Z   -0.000249  -0.245829   0.000015  -0.000057   0.000025
   40  O  3 XX   -0.232539   0.000044  -0.616930  -0.707913   0.453284
   41  O  3 YY    0.761528  -0.000211   0.246645   0.673621  -0.210421
   42  O  3 ZZ   -0.773695   0.000237   0.578623   0.018202  -0.373886
   43  O  3 XY   -0.193382   0.000067  -0.273153  -0.178930   0.782219
   44  O  3 XZ    0.000313   0.570144  -0.000007   0.000012   0.000009
   45  O  3 YZ   -0.000179   0.343954   0.000028  -0.000097   0.000044
   46  H  4  S   -1.145846   0.000375   0.111929  -0.470071   0.174404
   47  H  4  S    0.036557  -0.000026  -0.041127  -0.028163   0.129040
   48  H  5  S    0.090412  -0.000003  -0.387784   0.021296  -0.262422
   49  H  5  S   -0.175055   0.000087   0.316372   0.000290   0.151448
   50  H  6  S   -0.004132  -0.000014   0.361127  -0.003631   0.286275
   51  H  6  S   -0.000232  -0.000011  -0.065054   0.022921   0.028303
   52  H  7  S   -0.237602   0.000103  -0.209704   0.064333  -0.276611
   53  H  7  S   -0.053647   0.000033   0.127690   0.119619  -0.123393

                     51         52         53
                    4.2110     4.5305     4.7278
                     A          A          A   
    1  C  1  S    0.010390  -0.367681   0.294189
    2  C  1  S   -0.064060   2.497629  -1.725655
    3  C  1  X    0.051027   0.079122   0.358563
    4  C  1  Y   -0.038238  -0.055402  -0.213115
    5  C  1  Z    0.000003  -0.000003   0.000001
    6  C  1  S    0.104243   1.111426  -1.808269
    7  C  1  X    0.383279  -0.073391  -0.187146
    8  C  1  Y    0.571611   0.154252   0.244474
    9  C  1  Z    0.000007   0.000014  -0.000002
   10  C  1 XX    0.088952  -1.451793   1.428593
   11  C  1 YY   -0.019357  -1.428072   1.243528
   12  C  1 ZZ    0.078058  -1.426639   1.076773
   13  C  1 XY    0.003332  -0.033717  -0.251288
   14  C  1 XZ   -0.000001   0.000002  -0.000000
   15  C  1 YZ    0.000002  -0.000001   0.000003
   16  C  2  S   -0.020259  -0.277749  -0.370888
   17  C  2  S    0.096920   1.935615   2.252123
   18  C  2  X    0.027140  -0.230592   0.125690
   19  C  2  Y    0.018608   0.023906  -0.246335
   20  C  2  Z    0.000007  -0.000000  -0.000001
   21  C  2  S   -1.496583   0.347951   1.539636
   22  C  2  X   -1.062086  -0.156501  -0.540511
   23  C  2  Y   -0.932724  -0.194755  -0.071121
   24  C  2  Z   -0.000023  -0.000011  -0.000008
   25  C  2 XX    0.054904  -1.208206  -2.011176
   26  C  2 YY   -0.152834  -1.073613  -1.495324
   27  C  2 ZZ    0.035563  -1.053441  -1.320483
   28  C  2 XY    0.047665  -0.108407   0.100485
   29  C  2 XZ    0.000005  -0.000001  -0.000004
   30  C  2 YZ   -0.000003  -0.000003  -0.000002
   31  O  3  S   -0.535681  -0.010606  -0.001542
   32  O  3  S   -0.170734  -0.055266  -0.131737
   33  O  3  X    0.201212  -0.083278  -0.105634
   34  O  3  Y    0.003888  -0.021909  -0.038569
   35  O  3  Z    0.000017  -0.000002  -0.000003
   36  O  3  S    5.675986   0.263881   0.268272
   37  O  3  X   -0.990228  -0.220433  -0.324877
   38  O  3  Y   -0.073054  -0.157393  -0.216828
   39  O  3  Z   -0.000060   0.000003  -0.000001
   40  O  3 XX   -1.638297   0.155447   0.306751
   41  O  3 YY   -1.764358   0.000570   0.083991
   42  O  3 ZZ   -1.864334  -0.071322  -0.110999
   43  O  3 XY    0.064269   0.161011   0.233985
   44  O  3 XZ    0.000005   0.000002   0.000005
   45  O  3 YZ   -0.000017   0.000004   0.000001
   46  H  4  S    0.039589   0.007883  -0.026954
   47  H  4  S   -0.538985   0.025241   0.050041
   48  H  5  S    0.075637   0.112212   0.119957
   49  H  5  S   -0.251539  -0.258035  -0.374736
   50  H  6  S    0.080134   0.162604  -0.057885
   51  H  6  S    0.201608  -0.328105   0.298731
   52  H  7  S   -0.075958   0.126172  -0.106236
   53  H  7  S   -0.192705  -0.391559   0.220375
 ...... END OF RHF CALCULATION ......
 STEP CPU TIME =     0.18 TOTAL CPU TIME =          0.3 (      0.0 MIN)
 TOTAL WALL CLOCK TIME=          0.3 SECONDS, CPU UTILIZATION IS    94.29%

     ----------------------------------------------------------------
     PROPERTY VALUES FOR THE RHF   SELF-CONSISTENT FIELD WAVEFUNCTION
     ----------------------------------------------------------------

          -----------------
          ENERGY COMPONENTS
          -----------------

         WAVEFUNCTION NORMALIZATION =       1.0000000000

                ONE ELECTRON ENERGY =    -346.6107914746
                TWO ELECTRON ENERGY =     123.6196851553
           NUCLEAR REPULSION ENERGY =      70.1037652838
                                      ------------------
                       TOTAL ENERGY =    -152.8873410356

 ELECTRON-ELECTRON POTENTIAL ENERGY =     123.6196851553
  NUCLEUS-ELECTRON POTENTIAL ENERGY =    -499.0752500770
   NUCLEUS-NUCLEUS POTENTIAL ENERGY =      70.1037652838
                                      ------------------
             TOTAL POTENTIAL ENERGY =    -305.3517996379
               TOTAL KINETIC ENERGY =     152.4644586024
                 VIRIAL RATIO (V/T) =       2.0027736460

          ---------------------------------------
          MULLIKEN AND LOWDIN POPULATION ANALYSES
          ---------------------------------------

     ATOMIC MULLIKEN POPULATION IN EACH MOLECULAR ORBITAL

                      1          2          3          4          5

                  2.000000   2.000000   2.000000   2.000000   2.000000

    1            -0.000017   0.001266   1.998022   0.025745   0.894908
    2            -0.000036   1.998919   0.001180   0.226198   0.743632
    3             2.000048  -0.000606  -0.000002   1.650580   0.163246
    4            -0.000000   0.000001   0.000001   0.095282   0.020390
    5             0.000005   0.000411   0.000000   0.001689   0.048028
    6             0.000000  -0.000005   0.000390   0.000559   0.074672
    7             0.000000   0.000014   0.000409  -0.000051   0.055125

                      6          7          8          9         10

                  2.000000   2.000000   2.000000   2.000000   2.000000

    1             0.328417   0.648321   0.350463   0.075022   0.484243
    2             0.501251   0.251583   0.583776   0.337642   0.173453
    3             0.659204   0.623454   0.624212   1.587337   0.946024
    4             0.170016   0.128805   0.016922   0.000000   0.046614
    5             0.164942   0.005770   0.231497   0.000000   0.018210
    6             0.064999   0.176182   0.096929   0.000000   0.300391
    7             0.111172   0.165884   0.096200   0.000000   0.031065

                     11         12

                  2.000000   2.000000

    1             0.602153   1.093246
    2             0.384343   0.588840
    3             0.142413   0.317914
    4             0.069537   0.000000
    5             0.328277   0.000000
    6             0.099516   0.000000
    7             0.373760   0.000000

               ----- POPULATIONS IN EACH AO -----
                             MULLIKEN      LOWDIN
              1  C  1  S      1.99639     1.98105
              2  C  1  S      0.64196     0.35195
              3  C  1  X      0.72713     0.64753
              4  C  1  Y      0.70063     0.62589
              5  C  1  Z      0.58623     0.55760
              6  C  1  S      0.59413     0.33814
              7  C  1  X      0.28493     0.39625
              8  C  1  Y      0.33616     0.45502
              9  C  1  Z      0.57445     0.59328
             10  C  1 XX      0.02855     0.18601
             11  C  1 YY      0.03111     0.17658
             12  C  1 ZZ     -0.01966     0.10166
             13  C  1 XY      0.01218     0.02108
             14  C  1 XZ      0.00582     0.00808
             15  C  1 YZ      0.00176     0.00242
             16  C  2  S      1.99657     1.97896
             17  C  2  S      0.67497     0.35239
             18  C  2  X      0.66694     0.58709
             19  C  2  Y      0.72202     0.64329
             20  C  2  Z      0.50274     0.45484
             21  C  2  S      0.42994     0.29575
             22  C  2  X      0.05930     0.26279
             23  C  2  Y      0.24992     0.38550
             24  C  2  Z      0.39977     0.45096
             25  C  2 XX      0.03143     0.19822
             26  C  2 YY      0.03340     0.18449
             27  C  2 ZZ     -0.02157     0.09717
             28  C  2 XY      0.02138     0.03885
             29  C  2 XZ      0.02102     0.04225
             30  C  2 YZ      0.00295     0.00479
             31  O  3  S      1.99531     1.97721
             32  O  3  S      0.90420     0.70787
             33  O  3  X      0.92541     0.87485
             34  O  3  Y      0.85064     0.79446
             35  O  3  Z      1.11919     1.09296
             36  O  3  S      0.90796     0.44455
             37  O  3  X      0.60919     0.62847
             38  O  3  Y      0.54687     0.57831
             39  O  3  Z      0.78116     0.78392
             40  O  3 XX      0.01780     0.18070
             41  O  3 YY      0.04254     0.20253
             42  O  3 ZZ      0.00355     0.16270
             43  O  3 XY      0.00509     0.00897
             44  O  3 XZ      0.00448     0.00756
             45  O  3 YZ      0.00042     0.00135
             46  H  4  S      0.45420     0.42655
             47  H  4  S      0.09337     0.20164
             48  H  5  S      0.52935     0.49399
             49  H  5  S      0.26948     0.34123
             50  H  6  S      0.51832     0.47542
             51  H  6  S      0.29531     0.35021
             52  H  7  S      0.51975     0.48054
             53  H  7  S      0.31383     0.36413

          ----- MULLIKEN ATOMIC OVERLAP POPULATIONS -----
          (OFF-DIAGONAL ELEMENTS NEED TO BE MULTIPLIED BY 2)

             1           2           3           4           5

    1    5.1795854
    2    0.6445867   4.5705854
    3   -0.0540668   0.2771567   8.2693023
    4   -0.0000883  -0.0328767   0.2612180   0.3103191
    5   -0.0468366   0.4022584  -0.0391892   0.0048647   0.4756039
    6    0.3855084  -0.0279167   0.0020940   0.0000684  -0.0004348
    7    0.3931007  -0.0430127  -0.0026920   0.0040627   0.0025618

             6           7

    6    0.4763371
    7   -0.0220234   0.5015803

          TOTAL MULLIKEN AND LOWDIN ATOMIC POPULATIONS
       ATOM         MULL.POP.    CHARGE          LOW.POP.     CHARGE
    1 C             6.501789   -0.501789         6.442527   -0.442527
    2 C             5.790781    0.209219         5.977339    0.022661
    3 O             8.713823   -0.713823         8.446425   -0.446425
    4 H             0.547568    0.452432         0.628199    0.371801
    5 H             0.798828    0.201172         0.835217    0.164783
    6 H             0.813633    0.186367         0.825625    0.174375
    7 H             0.833577    0.166423         0.844668    0.155332

          -------------------------------
          BOND ORDER AND VALENCE ANALYSIS     BOND ORDER THRESHOLD=0.050
          -------------------------------

                   BOND                       BOND                       BOND
  ATOM PAIR DIST  ORDER      ATOM PAIR DIST  ORDER      ATOM PAIR DIST  ORDER
    1   2  1.334  1.888        1   6  1.084  0.948        1   7  1.088  0.956
    2   3  1.363  0.952        2   5  1.087  0.944        3   4  0.972  0.757

                       TOTAL       BONDED        FREE
      ATOM            VALENCE     VALENCE     VALENCE
    1 C                 3.827       3.827       0.000
    2 C                 3.756       3.756      -0.000
    3 O                 1.757       1.757       0.000
    4 H                 0.769       0.769       0.000
    5 H                 0.927       0.927       0.000
    6 H                 0.941       0.941       0.000
    7 H                 0.943       0.943       0.000

          ---------------------
          ELECTROSTATIC MOMENTS
          ---------------------

 POINT   1           X           Y           Z (BOHR)    CHARGE
                -0.000000    0.000000   -0.000000        0.00 (A.U.)
         DX          DY          DZ         /D/  (DEBYE)
    -0.722429    0.843829   -0.000285    1.110833
 ...... END OF PROPERTY EVALUATION ......
 STEP CPU TIME =     0.00 TOTAL CPU TIME =          0.3 (      0.0 MIN)
 TOTAL WALL CLOCK TIME=          0.4 SECONDS, CPU UTILIZATION IS    91.67%

 --------------------------   -----------------------------
 RHF-MP2 ENERGY CALCULATION   PROGRAM WRITTEN BY K.ISHIMURA
 --------------------------   -----------------------------
 NUMBER OF OCCUPIED ORBITALS            =   12
 NUMBER OF CORRELATED OCCUPIED ORBITALS =    9
 NUMBER OF VIRTUAL ORBITALS             =   41
 NUMBER OF BASIS FUNCTIONS              =   53
 NUMBER OF BASIS SHELLS                 =   20
 AO-TRANSFORMED INTEGRAL THRESHOLD      = 1.00E-09
 HALF-TRANSFORMED INTEGRAL THRESHOLD    = 3.10E-11
 TOTAL DISK REQUIRED (ALL PROCESSORS)=              0 MBYTES
                  DISK SPACE PER CORE=              0 MBYTES, USING P=    1
 MEMORY REQUIRED FOR TRANSFORMATION OF 1ST THREE INDICES=       53041
 MEMORY REQUIRED FOR    4TH INDEX TRANSF. AND MP2 ENERGY=      109571
 BEGINNING MP2 INTEGRAL TRANSFORMATION...
 BEGINNING    1ST SHELL LOOP...

 RESULTS OF MOLLER-PLESSET 2ND ORDER CORRECTION ARE
               E(0)=      -152.8873410356
               E(1)=         0.0
               E(2)=        -0.4326468686
             E(MP2)=      -153.3199879042
 SPIN-COMPONENT-SCALED MP2 RESULTS ARE
              E(2S)=        -0.3236071650
              E(2T)=        -0.1090397036
             E(2ST)=        -0.4246751659 = 6/5 * E(2S) + 1/3 * E(2T)
            SCS-MP2=      -153.3120162015
 ..... DONE WITH MP2 ENERGY .....
 STEP CPU TIME =     0.46 TOTAL CPU TIME =          0.8 (      0.0 MIN)
 TOTAL WALL CLOCK TIME=          0.8 SECONDS, CPU UTILIZATION IS    95.18%
                580000  WORDS OF DYNAMIC MEMORY USED
 EXECUTION OF GAMESS TERMINATED NORMALLY Thu Oct 17 08:28:10 2019
 DDI: 263640 bytes (0.3 MB / 0 MWords) used by master data server.

 ----------------------------------------
 CPU timing information for all processes
 ========================================
 0: 0.604 + 0.196 = 0.801
 ----------------------------------------
 ddikick.x: exited gracefully.
----- accounting info -----
Files used on the master node crcfe01.crc.nd.edu were:
-rw-r--r-- 1 cdrisko campus      466 Oct 17 08:28 /afs/crc.nd.edu/user/c/cdrisko/vinylAlcohol_MP2.F05
-rw-r--r-- 1 cdrisko campus    47277 Oct 17 08:28 /afs/crc.nd.edu/user/c/cdrisko/vinylAlcohol_MP2.F07
-rw-r--r-- 1 cdrisko campus 10440928 Oct 17 08:28 /afs/crc.nd.edu/user/c/cdrisko/vinylAlcohol_MP2.F08
-rw-r--r-- 1 cdrisko campus  1537840 Oct 17 08:28 /afs/crc.nd.edu/user/c/cdrisko/vinylAlcohol_MP2.F10
Thu Oct 17 08:28:13 EDT 2019
0.403u 0.214s 0:04.50 13.5%	0+0k 0+144io 1pf+0w
