----- GAMESS execution script 'rungms' -----
This job is running on host crcfe02.crc.nd.edu
under operating system Linux at Wed Oct 16 08:29:43 EDT 2019
Available scratch disk space (Kbyte units) at beginning of the job is
Filesystem      1K-blocks  Used  Available Use% Mounted on
AFS            2147483647     0 2147483647   0% /afs
GAMESS temporary binary files will be written to /afs/crc.nd.edu/user/c/cdrisko
GAMESS supplementary output files will be written to /afs/crc.nd.edu/user/c/cdrisko/scr
Copying input file vinylAlcohol_opt2.inp to your run's scratch directory...

 Distributed Data Interface kickoff program.
 Initiating 1 compute processes on 1 nodes to run the following command:
 /afs/crc.nd.edu/x86_64_linux/g/gamess/nov-2017/gamess/gamess.00.x vinylAlcohol_opt2 

          ******************************************************
          *         GAMESS VERSION = 11 NOV 2017 (R3)         *
          *             FROM IOWA STATE UNIVERSITY             *
          * M.W.SCHMIDT, K.K.BALDRIDGE, J.A.BOATZ, S.T.ELBERT, *
          *   M.S.GORDON, J.H.JENSEN, S.KOSEKI, N.MATSUNAGA,   *
          *          K.A.NGUYEN, S.J.SU, T.L.WINDUS,           *
          *       TOGETHER WITH M.DUPUIS, J.A.MONTGOMERY       *
          *         J.COMPUT.CHEM.  14, 1347-1363(1993)        *
          **************** 64 BIT INTEL VERSION ****************

  SINCE 1993, STUDENTS AND POSTDOCS WORKING AT IOWA STATE UNIVERSITY
  AND ALSO IN THEIR VARIOUS JOBS AFTER LEAVING ISU HAVE MADE IMPORTANT
  CONTRIBUTIONS TO THE CODE:
     IVANA ADAMOVIC, CHRISTINE AIKENS, YURI ALEXEEV, POOJA ARORA,
     ANDREY ASADCHEV, ROB BELL, PRADIPTA BANDYOPADHYAY, JONATHAN BENTZ,
     BRETT BODE, KURT BRORSEN, CALEB CARLIN, GALINA CHABAN, WEI CHEN,
     CHEOL HO CHOI, PAUL DAY, ALBERT DEFUSCO, NUWAN DESILVA, TIM DUDLEY,
     DMITRI FEDOROV, ALEX FINDLATER, GRAHAM FLETCHER, MARK FREITAG,
     KURT GLAESEMANN, ANASTASIA GUININA,
     DAN KEMP, GRANT MERRILL, NORIYUKI MINEZAWA, JONATHAN MULLIN,
     TAKESHI NAGATA, SEAN NEDD, HEATHER NETZLOFF, BOSILJKA NJEGIC, RYAN OLSON,
     MIKE PAK, BUU PHAM,
     SPENCER PRUITT, LUKE ROSKOP, JIM SHOEMAKER, LYUDMILA SLIPCHENKO,
     TONY SMITH, SAROM SOK LEANG, JIE SONG, TETSUYA TAKETSUGU, SIMON WEBB,
     PENG XU, SOOHAENG YOO, FEDERICO ZAHARIEV

  ADDITIONAL CODE HAS BEEN PROVIDED BY COLLABORATORS IN OTHER GROUPS:
     IOWA STATE UNIVERSITY:
          JOE IVANIC, AARON WEST, LAIMUTIS BYTAUTAS, KLAUS RUEDENBERG
     UNIVERSITY OF TOKYO: KIMIHIKO HIRAO, TAKAHITO NAKAJIMA,
          TAKAO TSUNEDA, MUNEAKI KAMIYA, SUSUMU YANAGISAWA,
          KIYOSHI YAGI, MAHITO CHIBA, SEIKEN TOKURA, NAOAKI KAWAKAMI
     UNIVERSITY OF AARHUS: FRANK JENSEN
     UNIVERSITY OF IOWA: VISVALDAS KAIRYS, HUI LI
     NATIONAL INST. OF STANDARDS AND TECHNOLOGY: WALT STEVENS, DAVID GARMER
     UNIVERSITY OF PISA: BENEDETTA MENNUCCI, JACOPO TOMASI
     UNIVERSITY OF MEMPHIS: HENRY KURTZ, PRAKASHAN KORAMBATH
     UNIVERSITY OF ALBERTA: TOBY ZENG, MARIUSZ KLOBUKOWSKI
     UNIVERSITY OF NEW ENGLAND: MARK SPACKMAN
     MIE UNIVERSITY: HIROAKI UMEDA
     NAT. INST. OF ADVANCED INDUSTRIAL SCIENCE AND TECHNOLOGY: KAZUO KITAURA
     MICHIGAN STATE UNIVERSITY:
          KAROL KOWALSKI, MARTA WLOCH, JEFFREY GOUR, JESSE LUTZ,
          WEI LI, PIOTR PIECUCH
     UNIVERSITY OF SILESIA: MONIKA MUSIAL, STANISLAW KUCHARSKI
     FACULTES UNIVERSITAIRES NOTRE-DAME DE LA PAIX:
          OLIVIER QUINET, BENOIT CHAMPAGNE
     UNIVERSITY OF CALIFORNIA - SANTA BARBARA: BERNARD KIRTMAN
     INSTITUTE FOR MOLECULAR SCIENCE:
          KAZUYA ISHIMURA, MICHIO KATOUDA, AND SHIGERU NAGASE
     UNIVERSITY OF NOTRE DAME: ANNA POMOGAEVA, DAN CHIPMAN
     KYUSHU UNIVERSITY:
          HARUYUKI NAKANO,
          FENG LONG GU, JACEK KORCHOWIEC, MARCIN MAKOWSKI, AND YURIKO AOKI,
          HIROTOSHI MORI AND EISAKU MIYOSHI
     PENNSYLVANIA STATE UNIVERSITY:
          TZVETELIN IORDANOV, CHET SWALINA, JONATHAN SKONE,
          SHARON HAMMES-SCHIFFER
     WASEDA UNIVERSITY:
          MASATO KOBAYASHI, TOMOKO AKAMA, TSUGUKI TOUMA,
          TAKESHI YOSHIKAWA, YASUHIRO IKABATA, JUNJI SEINO,
          YUYA NAKAJIMA, HIROMI NAKAI
     NANJING UNIVERSITY: SHUHUA LI
     UNIVERSITY OF NEBRASKA:
          PEIFENG SU, DEJUN SI, NANDUN THELLAMUREGE, YALI WANG, HUI LI
     UNIVERSITY OF ZURICH: ROBERTO PEVERATI, KIM BALDRIDGE
     N. COPERNICUS UNIVERSITY AND JACKSON STATE UNIVERSITY:
          MARIA BARYSZ
     UNIVERSITY OF COPENHAGEN: Jimmy Kromann, CASPER STEINMANN
     TOKYO INSTITUTE OF TECHNOLOGY: HIROYA NAKATA
     NAGOYA UNIVERSITY: YOSHIO NISHIMOTO, STEPHAN IRLE
     MOSCOW STATE UNIVERSITY: VLADIMIR MIRONOV

 EXECUTION OF GAMESS BEGUN Wed Oct 16 08:29:44 2019

            ECHO OF THE FIRST FEW INPUT CARDS -
 INPUT CARD> $CONTRL SCFTYP= RHF RUNTYP=OPTIMIZE DFTTYP=B3LYP                               
 INPUT CARD>       ICHARG=0 MULT=1 COORD=CART $END                                          
 INPUT CARD> $STATPT METHOD=NR OPTTOL=0.0001 HESS=GUESS NSTEP=50 $END                       
 INPUT CARD> $BASIS GBASIS=N31 NGAUSS=6 NDFUNC=1 $END                                       
 INPUT CARD> $DATA                                                                          
 INPUT CARD>Title Geometry Optimization of Vinyl Alcohol                                    
 INPUT CARD>C1 1                                                                            
 INPUT CARD>C 6 0.00000000 0.00000000 0.00000000                                            
 INPUT CARD>C 6 -1.10778691 0.74408174 0.00000000                                           
 INPUT CARD>O 8 -2.39773857 0.30325825 -0.00000000                                          
 INPUT CARD>H 1 -2.39428798 -0.66855655 -0.00000000                                         
 INPUT CARD>H 1 -1.08530802 1.83064414 0.00000000                                           
 INPUT CARD>H 1 0.97454291 0.47399434 -0.00000000                                           
 INPUT CARD>H 1 -0.02820469 -1.08786806 -0.00000000                                         
 INPUT CARD> $END                                                                           
    1000000 WORDS OF MEMORY AVAILABLE


                    * * * WARNING * * *
 OLD KEYWORD COORD=CART SELECTED, AUTOMATICALLY CHANGED TO COORD=PRINAXIS.
 YOUR MOLECULE'S COORDINATES WILL BE CHANGED TO PRINCIPAL AXES BY
   A) TRANSLATION TO THE CENTER OF MASS, THEN
   B) ROTATION TO HAVE A DIAGONAL MOMENT OF INERTIA TENSOR.

 HOWEVER, NOTHING ELSE IN YOUR INPUT WILL BE ROTATED IN THE SAME WAY,
 SO IF YOU HAVE A $VEC, $VIB, $GRAD, $HESS, EFP PARTICLE COORDINATES,
 OR ANYTHING ELSE THAT DEPENDS ON THE INITIAL ORIENTATION, THAT DATA
 WILL NOT BE USED CORRECTLY IN THIS RUN.

 THE PURPOSE OF COORD=PRINAXIS IS TO BE USED ONCE, ONLY AT THE VERY
 BEGINNING OF A SERIES OF COMPUTATIONS, PERHAPS TO FIND THE SYMMETRY
 UNIQUE ATOMS FROM AN ARBITRARY INITIAL ORIENTATION.

 AFTER THE FIRST RUN, YOU SHOULD USE ONLY COORD=UNIQUE, TO ENSURE THAT
 THE COORDINATES WHICH YOU READ IN ARE THE COORDINATES THAT ARE USED.


     BASIS OPTIONS
     -------------
     GBASIS=N31          IGAUSS=       6      POLAR=POPN31  
     NDFUNC=       1     NFFUNC=       0     DIFFSP=       F
     NPFUNC=       0      DIFFS=       F     BASNAM=        


     RUN TITLE
     ---------
 Title Geometry Optimization of Vinyl Alcohol                                    

 THE POINT GROUP OF THE MOLECULE IS C1      
 THE ORDER OF THE PRINCIPAL AXIS IS     1

 THE MOMENTS OF INERTIA ARE (AMU-ANGSTROM**2)
 IXX=     8.337   IYY=    48.245   IZZ=    56.582

 ATOM      ATOMIC                      COORDINATES (BOHR)
           CHARGE         X                   Y                   Z
 C           6.0    -2.3742224561        0.3915732725        0.0000000000
 C           6.0    -0.1567898495       -0.8094765308        0.0000000000
 O           8.0     2.1907848299        0.2511856187        0.0000000000
 H           1.0     2.0099721474        2.0787381218        0.0000000000
 H           1.0    -0.0041724226       -2.8575426051        0.0000000000
 H           1.0    -4.1225022225       -0.6749125060        0.0000000000
 H           1.0    -2.5163027523        2.4431226238        0.0000000000

          INTERNUCLEAR DISTANCES (ANGS.)
          ------------------------------

                1 C          2 C          3 O          4 H          5 H     

   1 C       0.0000000    1.3344847 *  2.4168400 *  2.4858767 *  2.1281803 *
   2 C       1.3344847 *  0.0000000    1.3631950 *  1.9106627 *  1.0867949 *
   3 O       2.4168400 *  1.3631950 *  0.0000000    0.9718209 *  2.0137978 *
   4 H       2.4858767 *  1.9106627 *  0.9718209 *  0.0000000    2.8212466 *
   5 H       2.1281803 *  1.0867949 *  2.0137978 *  2.8212466 *  0.0000000  
   6 H       1.0836995 *  2.0997725 *  3.3766008    3.5573085    2.4664721 *
   7 H       1.0882336 *  2.1263908 *  2.7477124 *  2.4029507 *  3.1040588  

                6 H          7 H     

   1 C       1.0836995 *  1.0882336 *
   2 C       2.0997725 *  2.1263908 *
   3 O       3.3766008    2.7477124 *
   4 H       3.5573085    2.4029507 *
   5 H       2.4664721 *  3.1040588  
   6 H       0.0000000    1.8560487 *
   7 H       1.8560487 *  0.0000000  

  * ... LESS THAN  3.000


     ATOMIC BASIS SET
     ----------------
 THE CONTRACTED PRIMITIVE FUNCTIONS HAVE BEEN UNNORMALIZED
 THE CONTRACTED BASIS FUNCTIONS ARE NOW NORMALIZED TO UNITY

  SHELL TYPE  PRIMITIVE        EXPONENT          CONTRACTION COEFFICIENT(S)

 C         

      1   S       1          3047.5248800    0.001834737132
      1   S       2           457.3695180    0.014037322813
      1   S       3           103.9486850    0.068842622264
      1   S       4            29.2101553    0.232184443216
      1   S       5             9.2866630    0.467941348435
      1   S       6             3.1639270    0.362311985337

      2   L       7             7.8682723   -0.119332419775    0.068999066591
      2   L       8             1.8812885   -0.160854151696    0.316423960957
      2   L       9             0.5442493    1.143456437840    0.744308290898

      3   L      10             0.1687145    1.000000000000    1.000000000000

      4   D      11             0.8000000    1.000000000000

 C         

      5   S      12          3047.5248800    0.001834737132
      5   S      13           457.3695180    0.014037322813
      5   S      14           103.9486850    0.068842622264
      5   S      15            29.2101553    0.232184443216
      5   S      16             9.2866630    0.467941348435
      5   S      17             3.1639270    0.362311985337

      6   L      18             7.8682723   -0.119332419775    0.068999066591
      6   L      19             1.8812885   -0.160854151696    0.316423960957
      6   L      20             0.5442493    1.143456437840    0.744308290898

      7   L      21             0.1687145    1.000000000000    1.000000000000

      8   D      22             0.8000000    1.000000000000

 O         

      9   S      23          5484.6716600    0.001831074430
      9   S      24           825.2349460    0.013950172200
      9   S      25           188.0469580    0.068445078098
      9   S      26            52.9645000    0.232714335992
      9   S      27            16.8975704    0.470192897984
      9   S      28             5.7996353    0.358520852987

     10   L      29            15.5396162   -0.110777549525    0.070874268231
     10   L      30             3.5999336   -0.148026262701    0.339752839147
     10   L      31             1.0137618    1.130767015354    0.727158577316

     11   L      32             0.2700058    1.000000000000    1.000000000000

     12   D      33             0.8000000    1.000000000000

 H         

     13   S      34            18.7311370    0.033494604338
     13   S      35             2.8253944    0.234726953484
     13   S      36             0.6401217    0.813757326146

     14   S      37             0.1612778    1.000000000000

 H         

     15   S      38            18.7311370    0.033494604338
     15   S      39             2.8253944    0.234726953484
     15   S      40             0.6401217    0.813757326146

     16   S      41             0.1612778    1.000000000000

 H         

     17   S      42            18.7311370    0.033494604338
     17   S      43             2.8253944    0.234726953484
     17   S      44             0.6401217    0.813757326146

     18   S      45             0.1612778    1.000000000000

 H         

     19   S      46            18.7311370    0.033494604338
     19   S      47             2.8253944    0.234726953484
     19   S      48             0.6401217    0.813757326146

     20   S      49             0.1612778    1.000000000000

 TOTAL NUMBER OF BASIS SET SHELLS             =   20
 NUMBER OF CARTESIAN GAUSSIAN BASIS FUNCTIONS =   53
 NUMBER OF ELECTRONS                          =   24
 CHARGE OF MOLECULE                           =    0
 SPIN MULTIPLICITY                            =    1
 NUMBER OF OCCUPIED ORBITALS (ALPHA)          =   12
 NUMBER OF OCCUPIED ORBITALS (BETA )          =   12
 TOTAL NUMBER OF ATOMS                        =    7
 THE NUCLEAR REPULSION ENERGY IS       70.1029929215

     LEBEDEV GRID-BASED DFT OPTIONS
     ------------------------------
     DFTTYP=B3LYP   
     NRAD  =      96     NLEB  =     302
     NRAD0 =      24     NLEB0 =     110
     SWOFF =    5.00E-03 (PURE SCF -> DFT)
     SWITCH=    3.00E-04 (COARSE -> TIGHT GRID)
     THRESH=    0.00E+00 GTHRE=    1.00E+00

 GRIMME'S EMPIRICAL DISPERSION CORRECTION= F

     $CONTRL OPTIONS
     ---------------
 SCFTYP=RHF          RUNTYP=OPTIMIZE     EXETYP=RUN     
 MPLEVL=       0     CITYP =NONE         CCTYP =NONE         VBTYP =NONE    
 DFTTYP=B3LYP        TDDFT =NONE    
 MULT  =       1     ICHARG=       0     NZVAR =       0     COORD =PRINAXIS
 PP    =NONE         RELWFN=NONE         LOCAL =NONE         NUMGRD=       F
 ISPHER=      -1     NOSYM =       0     MAXIT =      30     UNITS =ANGS    
 PLTORB=       F     MOLPLT=       F     AIMPAC=       F     FRIEND=        
 NPRINT=       7     IREST =       0     GEOM  =INPUT   
 NORMF =       0     NORMP =       0     ITOL  =      20     ICUT  =       9
 INTTYP=BEST         GRDTYP=BEST         QMTTOL= 1.0E-06

     $SYSTEM OPTIONS
     ---------------
  REPLICATED MEMORY=     1000000 WORDS (ON EVERY NODE).
 DISTRIBUTED MEMDDI=           0 MILLION WORDS IN AGGREGATE,
 MEMDDI DISTRIBUTED OVER   1 PROCESSORS IS           0 WORDS/PROCESSOR.
 TOTAL MEMORY REQUESTED ON EACH PROCESSOR=     1000000 WORDS.
 TIMLIM=      525600.00 MINUTES, OR     365.0 DAYS.
 PARALL= F  BALTYP=  DLB     KDIAG=    0  COREFL= F
 MXSEQ2=     300 MXSEQ3=     150  mem10=         0

          ----------------
          PROPERTIES INPUT
          ----------------

     MOMENTS            FIELD           POTENTIAL          DENSITY
 IEMOM =       1   IEFLD =       0   IEPOT =       0   IEDEN =       0
 WHERE =COMASS     WHERE =NUCLEI     WHERE =NUCLEI     WHERE =NUCLEI  
 OUTPUT=BOTH       OUTPUT=BOTH       OUTPUT=BOTH       OUTPUT=BOTH    
 IEMINT=       0   IEFINT=       0                     IEDINT=       0
                                                       MORB  =       0
          EXTRAPOLATION IN EFFECT
          DIIS IN EFFECT
 ORBITAL PRINTING OPTION: NPREO=     1    53     2     1

     -------------------------------
     INTEGRAL TRANSFORMATION OPTIONS
     -------------------------------
     NWORD  =            0
     CUTOFF = 1.0E-09     MPTRAN =       0
     DIRTRF =       F     AOINTS =DUP     

          ----------------------
          INTEGRAL INPUT OPTIONS
          ----------------------
 NOPK  =       1 NORDER=       0 SCHWRZ=       T

     ------------------------------------------
     THE POINT GROUP IS C1 , NAXIS= 1, ORDER= 1
     ------------------------------------------

     DIMENSIONS OF THE SYMMETRY SUBSPACES ARE
 A   =   53

 ..... DONE SETTING UP THE RUN .....
 STEP CPU TIME =     0.01 TOTAL CPU TIME =          0.0 (      0.0 MIN)
 TOTAL WALL CLOCK TIME=          0.0 SECONDS, CPU UTILIZATION IS    50.00%


          -----------------------------
          STATIONARY POINT LOCATION RUN
          -----------------------------

 OBTAINING INITIAL HESSIAN, HESS=GUESS   
 CARTESIAN COORDINATE OPTIMIZATION USING BADGER'S RULE FORCE CONSTANT GUESS

          PARAMETERS CONTROLLING GEOMETRY SEARCH ARE
          METHOD =NR                  UPHESS =POWELL  
          NNEG   =         0          NFRZ   =         0
          NSTEP  =        50          IFOLOW =         1
          HESS   =GUESS               RESTAR =         F
          IHREP  =         0          HSSEND =         F
          NPRT   =         0          NPUN   =         0
          OPTTOL = 1.000E-04          RMIN   = 1.500E-03
          RMAX   = 1.000E-01          RLIM   = 7.000E-02
          DXMAX  = 3.000E-01          PURIFY =         F
          MOVIE  =         F          TRUPD  =         T
          TRMAX  = 5.000E-01          TRMIN  = 5.000E-02
          ITBMAT =         5          STPT   =         F
          STSTEP = 1.000E-02          PROJCT=          T

 BEGINNING GEOMETRY SEARCH POINT NSERCH=   0 ...

 COORDINATES OF ALL ATOMS ARE (ANGS)
   ATOM   CHARGE       X              Y              Z
 ------------------------------------------------------------
 C           6.0  -1.2563845084   0.2072116672   0.0000000000
 C           6.0  -0.0829696213  -0.4283565639   0.0000000000
 O           8.0   1.1593134899   0.1329217148   0.0000000000
 H           1.0   1.0636315320   1.1000209212   0.0000000000
 H           1.0  -0.0022079511  -1.5121465353   0.0000000000
 H           1.0  -2.1815343861  -0.3571483434   0.0000000000
 H           1.0  -1.3315701687   1.2928449096   0.0000000000

          ********************
          1 ELECTRON INTEGRALS
          ********************
 ...... END OF ONE-ELECTRON INTEGRALS ......
 STEP CPU TIME =     0.01 TOTAL CPU TIME =          0.0 (      0.0 MIN)
 TOTAL WALL CLOCK TIME=          0.0 SECONDS, CPU UTILIZATION IS    66.67%

          -------------
          GUESS OPTIONS
          -------------
          GUESS =HUCKEL            NORB  =       0          NORDER=       0
          MIX   =       F          PRTMO =       F          PUNMO =       F
          TOLZ  = 1.0E-08          TOLE  = 1.0E-05
          SYMDEN=       F          PURIFY=       F

 INITIAL GUESS ORBITALS GENERATED BY HUCKEL   ROUTINE.
 HUCKEL GUESS REQUIRES     27154 WORDS.

 SYMMETRIES FOR INITIAL GUESS ORBITALS FOLLOW.   BOTH SET(S).
    12 ORBITALS ARE OCCUPIED (    3 CORE ORBITALS).
     4=A        5=A        6=A        7=A        8=A        9=A       10=A   
    11=A       12=A       13=A       14=A       15=A       16=A       17=A   
    18=A       19=A       20=A       21=A       22=A   
 ...... END OF INITIAL ORBITAL SELECTION ......
 STEP CPU TIME =     0.01 TOTAL CPU TIME =          0.0 (      0.0 MIN)
 TOTAL WALL CLOCK TIME=          0.0 SECONDS, CPU UTILIZATION IS    75.00%

                    ----------------------
                    AO INTEGRAL TECHNOLOGY
                    ----------------------
     S,P,L SHELL ROTATED AXIS INTEGRALS, REPROGRAMMED BY
        KAZUYA ISHIMURA (IMS) AND JOSE SIERRA (SYNSTAR).
     S,P,D,L SHELL ROTATED AXIS INTEGRALS PROGRAMMED BY
        KAZUYA ISHIMURA (INSTITUTE FOR MOLECULAR SCIENCE).
     S,P,D,F,G SHELL TO TOTAL QUARTET ANGULAR MOMENTUM SUM 5,
        ERIC PROGRAM BY GRAHAM FLETCHER (ELORET AND NASA ADVANCED
        SUPERCOMPUTING DIVISION, AMES RESEARCH CENTER).
     S,P,D,F,G,L SHELL GENERAL RYS QUADRATURE PROGRAMMED BY
        MICHEL DUPUIS (PACIFIC NORTHWEST NATIONAL LABORATORY).

          --------------------
          2 ELECTRON INTEGRALS
          --------------------

 THE -PK- OPTION IS OFF, THE INTEGRALS ARE NOT IN SUPERMATRIX FORM.
 STORING   15000 INTEGRALS/RECORD ON DISK, USING 12 BYTES/INTEGRAL.
 TWO ELECTRON INTEGRAL EVALUATION REQUIRES   90606 WORDS OF MEMORY.
 SCHWARZ INEQUALITY OVERHEAD:      1430 INTEGRALS, T=        0.00
 II,JST,KST,LST =  1  1  1  1 NREC =         1 INTLOC =    1
 II,JST,KST,LST =  2  1  1  1 NREC =         1 INTLOC =    2
 II,JST,KST,LST =  3  1  1  1 NREC =         1 INTLOC =   34
 II,JST,KST,LST =  4  1  1  1 NREC =         1 INTLOC =  214
 II,JST,KST,LST =  5  1  1  1 NREC =         1 INTLOC = 1189
 II,JST,KST,LST =  6  1  1  1 NREC =         1 INTLOC = 2364
 II,JST,KST,LST =  7  1  1  1 NREC =         1 INTLOC = 9259
 II,JST,KST,LST =  8  1  1  1 NREC =         2 INTLOC = 6298
 II,JST,KST,LST =  9  1  1  1 NREC =         4 INTLOC = 7025
 II,JST,KST,LST = 10  1  1  1 NREC =         4 INTLOC =14208
 II,JST,KST,LST = 11  1  1  1 NREC =         7 INTLOC = 8211
 II,JST,KST,LST = 12  1  1  1 NREC =        11 INTLOC = 3696
 II,JST,KST,LST = 13  1  1  1 NREC =        18 INTLOC =14881
 II,JST,KST,LST = 14  1  1  1 NREC =        20 INTLOC =11704
 II,JST,KST,LST = 15  1  1  1 NREC =        22 INTLOC =10709
 II,JST,KST,LST = 16  1  1  1 NREC =        24 INTLOC =11625
 II,JST,KST,LST = 17  1  1  1 NREC =        26 INTLOC =14936
 II,JST,KST,LST = 18  1  1  1 NREC =        29 INTLOC = 2824
 II,JST,KST,LST = 19  1  1  1 NREC =        31 INTLOC =10677
 II,JST,KST,LST = 20  1  1  1 NREC =        34 INTLOC = 5334
 SCHWARZ INEQUALITY TEST SKIPPED         653 INTEGRAL BLOCKS.
 TOTAL NUMBER OF NONZERO TWO-ELECTRON INTEGRALS =              543516
         37 INTEGRAL RECORDS WERE STORED ON DISK FILE  8.
  ...... END OF TWO-ELECTRON INTEGRALS .....
 STEP CPU TIME =     0.10 TOTAL CPU TIME =          0.1 (      0.0 MIN)
 TOTAL WALL CLOCK TIME=          0.1 SECONDS, CPU UTILIZATION IS    86.67%

          --------------------------
             R-B3LYP SCF CALCULATION
          --------------------------

     NUCLEAR ENERGY =        70.1029929215
     MAXIT =   30     NPUNCH=    2
     EXTRAP=T  DAMP=F  SHIFT=F  RSTRCT=F  DIIS=T  DEM=F  SOSCF=F
         DENSITY MATRIX CONVERGENCE THRESHOLD=  1.00E-05
     COARSE -> FINE DFT GRID SWITCH THRESHOLD=  3.00E-04 (SWITCH IN $DFT)
                   HF -> DFT SWITCH THRESHOLD=  5.00E-03 (SWOFF IN $DFT)
     MEMORY REQUIRED FOR RHF ITERS=    307447 WORDS.

 DFT CODE IS SWITCHING FROM THE FINE GRID NRAD= 96,  NLEB=  302
                      TO THE COARSE GRID NRAD0= 24, NLEB0=  110

     EXCHANGE FUNCTIONAL   =B88&HFX   
     CORRELATION FUNCTIONAL=LYP88&VWN5
     DFT THRESHOLD         =.197E-07
     GRID CHANGE THRESHOLD =.300E-03
 FOR AN EULER-MACLAURIN QUADRATURE USING  96 RADIAL POINTS:
 SMALLEST GAUSSIAN PRIMITIVE EXPONENT=        0.1612777588 OF TYPE -S-
 ON ATOM NUMBER   4 HAS RADIAL NORMALIZATION=  1.000000
  LARGEST GAUSSIAN PRIMITIVE EXPONENT=     5484.6716600000 OF TYPE -S-
 ON ATOM NUMBER   3 HAS RADIAL NORMALIZATION=  1.000000
 DFT IS SWITCHED OFF, PERFORMING PURE SCF UNTIL SWOFF THRESHOLD IS REACHED.

 ITER EX DEM     TOTAL ENERGY        E CHANGE  DENSITY CHANGE    DIIS ERROR
   1  0  0     -152.4439523206  -152.4439523206   0.207244777   0.528161130
          * * *   INITIATING DIIS PROCEDURE   * * *
   2  1  0     -152.8578805366    -0.4139282160   0.096492089   0.080562695
   3  2  0     -152.8821762305    -0.0242956939   0.028692503   0.024117810
   4  3  0     -152.8866696896    -0.0044934591   0.013340519   0.012032893
   5  4  0     -152.8873039901    -0.0006343005   0.002702121   0.002292007
 CONVERGED TO SWOFF, SO DFT CALCULATION IS NOW SWITCHED ON.
          * * *   INITIATING DIIS PROCEDURE   * * *
   6  5  0     -153.6995574407    -0.8122534505   0.090355110   0.103468618
   7  6  0     -153.7130397742    -0.0134823336   0.039128824   0.023990169
   8  7  0     -153.7133271118    -0.0002873376   0.019808334   0.020602932
   9  8  0     -153.7153668810    -0.0020397692   0.003719873   0.004263998
  10  9  0     -153.7154190241    -0.0000521431   0.000557395   0.000358442
  11 10  0     -153.7154196142    -0.0000005901   0.000330599   0.000176788
  12 11  0     -153.7154197946    -0.0000001805   0.000111991   0.000092041
 DFT CODE IS SWITCHING BACK TO THE FINE GRID
          * * *   INITIATING DIIS PROCEDURE   * * *
  13 12  0     -153.7171325677    -0.0017127730   0.003061784   0.001954357
  14 13  0     -153.7171435612    -0.0000109936   0.001476711   0.000786009
  15 14  0     -153.7171436273    -0.0000000661   0.000709389   0.000813097
  16 15  0     -153.7171456240    -0.0000019967   0.000154687   0.000074430
  17 16  0     -153.7171456374    -0.0000000134   0.000068049   0.000063541
  18 17  0     -153.7171456535    -0.0000000161   0.000006916   0.000005082
  19 18  0     -153.7171456536    -0.0000000001   0.000002196   0.000002111
  20 19  0     -153.7171456536    -0.0000000000   0.000000215   0.000000228

          -----------------
          DENSITY CONVERGED
          -----------------
     TIME TO FORM FOCK OPERATORS=       5.1 SECONDS (       0.3 SEC/ITER)
     TIME TO SOLVE SCF EQUATIONS=       0.0 SECONDS (       0.0 SEC/ITER)

 FINAL R-B3LYP ENERGY IS     -153.7171456536 AFTER  20 ITERATIONS
 DFT EXCHANGE + CORRELATION ENERGY =       -16.8189464935
 TOTAL ELECTRON NUMBER             =        23.9999840485

          ------------
          EIGENVECTORS
          ------------

                      1          2          3          4          5
                  -19.1751   -10.2387   -10.1660    -1.0519    -0.7413
                     A          A          A          A          A   
    1  C  1  S    0.000005   0.005670   0.992669  -0.015712  -0.162418
    2  C  1  S    0.000085  -0.000301   0.049442   0.028638   0.310281
    3  C  1  X   -0.000048  -0.000345   0.000139   0.024354   0.083151
    4  C  1  Y   -0.000047   0.000225  -0.000032  -0.005142  -0.054462
    5  C  1  Z    0.000000   0.000000   0.000000   0.000000   0.000000
    6  C  1  S   -0.000828   0.004760  -0.013343   0.020897   0.236388
    7  C  1  X    0.000087   0.001722  -0.001102   0.016889   0.008711
    8  C  1  Y    0.000844  -0.001632   0.000419   0.011660   0.007895
    9  C  1  Z    0.000000   0.000000   0.000000   0.000000   0.000000
   10  C  1 XX   -0.000073  -0.000260  -0.009295   0.004801   0.005646
   11  C  1 YY   -0.000022  -0.000253  -0.009430  -0.001295   0.003207
   12  C  1 ZZ    0.000017  -0.000208  -0.009831  -0.002073  -0.017249
   13  C  1 XY   -0.000003  -0.000000  -0.000150  -0.001439  -0.003528
   14  C  1 XZ    0.000000   0.000000   0.000000   0.000000   0.000000
   15  C  1 YZ    0.000000   0.000000   0.000000   0.000000   0.000000
   16  C  2  S   -0.000009   0.992765  -0.006168  -0.078990  -0.142823
   17  C  2  S    0.000311   0.048524  -0.000849   0.149677   0.289101
   18  C  2  X    0.000369   0.001024   0.000373   0.103119  -0.141065
   19  C  2  Y    0.000138   0.000402  -0.000257   0.056328   0.024207
   20  C  2  Z    0.000000   0.000000   0.000000   0.000000   0.000000
   21  C  2  S   -0.001429  -0.011023   0.004945   0.039816   0.193568
   22  C  2  X   -0.002116   0.002390  -0.001736  -0.007473  -0.036538
   23  C  2  Y   -0.000464   0.000150   0.001267  -0.018156  -0.015305
   24  C  2  Z    0.000000   0.000000   0.000000   0.000000   0.000000
   25  C  2 XX    0.000088  -0.008623  -0.000295   0.013876  -0.002952
   26  C  2 YY   -0.000054  -0.009220  -0.000195  -0.002429  -0.000138
   27  C  2 ZZ   -0.000019  -0.009714  -0.000099  -0.013229  -0.014629
   28  C  2 XY   -0.000007   0.000133   0.000048   0.015219  -0.013191
   29  C  2 XZ    0.000000   0.000000   0.000000   0.000000   0.000000
   30  C  2 YZ    0.000000   0.000000   0.000000   0.000000   0.000000
   31  O  3  S    0.992749  -0.000034   0.000009  -0.203184   0.054167
   32  O  3  S    0.025881   0.000281   0.000001   0.451609  -0.130058
   33  O  3  X   -0.000850   0.000106  -0.000003  -0.109464  -0.070626
   34  O  3  Y    0.000608   0.000027   0.000010   0.048644  -0.090555
   35  O  3  Z    0.000000   0.000000   0.000000   0.000000   0.000000
   36  O  3  S    0.012425  -0.000898  -0.000346   0.435432  -0.133281
   37  O  3  X   -0.000574   0.001116   0.000116  -0.053416  -0.045662
   38  O  3  Y   -0.000506   0.000716  -0.000136   0.026044  -0.047310
   39  O  3  Z    0.000000   0.000000   0.000000   0.000000   0.000000
   40  O  3 XX   -0.008077  -0.000568   0.000112   0.006717   0.012211
   41  O  3 YY   -0.008089  -0.000034   0.000035   0.015490  -0.012679
   42  O  3 ZZ   -0.008049   0.000364  -0.000029  -0.010770  -0.001595
   43  O  3 XY    0.000030  -0.000507   0.000010  -0.000020   0.004389
   44  O  3 XZ    0.000000   0.000000   0.000000   0.000000   0.000000
   45  O  3 YZ    0.000000   0.000000   0.000000   0.000000   0.000000
   46  H  4  S    0.000428   0.000030   0.000005   0.124160  -0.073089
   47  H  4  S   -0.001070   0.000085   0.000087  -0.002532  -0.010797
   48  H  5  S    0.000076  -0.000352  -0.000052   0.022763   0.082818
   49  H  5  S   -0.000019   0.002170   0.000118  -0.005950   0.014649
   50  H  6  S    0.000114  -0.000142  -0.000333   0.004016   0.090894
   51  H  6  S    0.000234  -0.000089   0.002112   0.007178   0.024865
   52  H  7  S   -0.000080  -0.000047  -0.000324   0.004326   0.084302
   53  H  7  S   -0.000204   0.000412   0.002221  -0.002187   0.012588

                      6          7          8          9         10
                   -0.6136    -0.4888    -0.4730    -0.3805    -0.3797
                     A          A          A          A          A   
    1  C  1  S   -0.100953   0.046254   0.027789   0.000000   0.010534
    2  C  1  S    0.195588  -0.094349  -0.058055   0.000000  -0.023597
    3  C  1  X   -0.043439   0.158878   0.302722   0.000000   0.100587
    4  C  1  Y    0.045041  -0.244421   0.079169   0.000000   0.353873
    5  C  1  Z    0.000000   0.000000   0.000000   0.130000   0.000000
    6  C  1  S    0.187968  -0.112579  -0.079282   0.000000  -0.012884
    7  C  1  X   -0.008613   0.056302   0.120110   0.000000   0.047459
    8  C  1  Y    0.014371  -0.077097   0.048716   0.000000   0.121260
    9  C  1  Z    0.000000   0.000000   0.000000   0.071005   0.000000
   10  C  1 XX   -0.001063   0.002659   0.001247   0.000000  -0.018761
   11  C  1 YY    0.005539  -0.009175  -0.007441   0.000000   0.021402
   12  C  1 ZZ   -0.010384   0.003875   0.001732   0.000000   0.000788
   13  C  1 XY    0.005581  -0.011093  -0.010779   0.000000  -0.012661
   14  C  1 XZ    0.000000   0.000000   0.000000   0.009520   0.000000
   15  C  1 YZ    0.000000   0.000000   0.000000  -0.003588   0.000000
   16  C  2  S    0.089027  -0.061826  -0.042648   0.000000  -0.009809
   17  C  2  S   -0.188867   0.130256   0.094351   0.000000   0.018732
   18  C  2  X   -0.198356  -0.245391  -0.026202   0.000000   0.001353
   19  C  2  Y    0.124173  -0.160264   0.296258   0.000000  -0.233639
   20  C  2  Z    0.000000   0.000000   0.000000   0.291239   0.000000
   21  C  2  S   -0.166567   0.117248   0.052932   0.000000   0.036232
   22  C  2  X   -0.033249  -0.069752  -0.024539   0.000000   0.033381
   23  C  2  Y    0.039461  -0.070770   0.090284   0.000000  -0.071695
   24  C  2  Z    0.000000   0.000000   0.000000   0.170212   0.000000
   25  C  2 XX   -0.004932  -0.022842  -0.007303   0.000000  -0.022902
   26  C  2 YY    0.001461   0.013495  -0.003814   0.000000   0.026163
   27  C  2 ZZ    0.011381  -0.001094  -0.004807   0.000000   0.001499
   28  C  2 XY   -0.004282  -0.006920   0.003488   0.000000  -0.014894
   29  C  2 XZ    0.000000   0.000000   0.000000   0.014248   0.000000
   30  C  2 YZ    0.000000   0.000000   0.000000   0.010925   0.000000
   31  O  3  S   -0.010808   0.019652   0.050197   0.000000   0.009104
   32  O  3  S    0.024237  -0.052904  -0.113264   0.000000  -0.018646
   33  O  3  X    0.147395   0.138788  -0.275311   0.000000   0.180576
   34  O  3  Y    0.336908   0.283284   0.101769   0.000000   0.062268
   35  O  3  Z    0.000000   0.000000   0.000000   0.522491   0.000000
   36  O  3  S    0.035626  -0.052201  -0.180690   0.000000  -0.073780
   37  O  3  X    0.064981   0.057140  -0.176864   0.000000   0.119986
   38  O  3  Y    0.164297   0.150725   0.059041   0.000000   0.031109
   39  O  3  Z    0.000000   0.000000   0.000000   0.360661   0.000000
   40  O  3 XX   -0.013045  -0.008369   0.022961   0.000000  -0.008814
   41  O  3 YY    0.019626   0.017795  -0.006563   0.000000   0.013409
   42  O  3 ZZ   -0.001876  -0.003566  -0.003739   0.000000   0.003305
   43  O  3 XY   -0.015381  -0.004750  -0.014938   0.000000   0.005288
   44  O  3 XZ    0.000000   0.000000   0.000000  -0.027403   0.000000
   45  O  3 YZ    0.000000   0.000000   0.000000   0.010966   0.000000
   46  H  4  S    0.177950   0.141828   0.031896   0.000000   0.045358
   47  H  4  S    0.080036   0.087634   0.017953   0.000000   0.070804
   48  H  5  S   -0.128504   0.141651  -0.118405   0.000000   0.183112
   49  H  5  S   -0.052890   0.082738  -0.093311   0.000000   0.172218
   50  H  6  S    0.085297  -0.054375  -0.193942   0.000000  -0.196646
   51  H  6  S    0.038867  -0.029632  -0.122025   0.000000  -0.175510
   52  H  7  S    0.102632  -0.183076  -0.001480   0.000000   0.233358
   53  H  7  S    0.049544  -0.122599  -0.001798   0.000000   0.229777

                     11         12         13         14         15
                   -0.3616    -0.2250     0.0450     0.0749     0.1308
                     A          A          A          A          A   
    1  C  1  S   -0.028844   0.000000   0.000000   0.034141   0.009378
    2  C  1  S    0.058269   0.000000   0.000000  -0.072560  -0.022532
    3  C  1  X    0.257865   0.000000   0.000000   0.036231   0.163453
    4  C  1  Y   -0.054469   0.000000   0.000000  -0.077567   0.192290
    5  C  1  Z    0.000000   0.412069  -0.378911   0.000000   0.000000
    6  C  1  S    0.150928   0.000000   0.000000  -0.200405  -0.165203
    7  C  1  X    0.102623   0.000000   0.000000   0.316765   0.473170
    8  C  1  Y   -0.049341   0.000000   0.000000  -0.243535   0.398807
    9  C  1  Z    0.000000   0.333359  -0.612823   0.000000   0.000000
   10  C  1 XX   -0.001847   0.000000   0.000000   0.008820   0.016264
   11  C  1 YY   -0.006210   0.000000   0.000000  -0.008303  -0.015239
   12  C  1 ZZ   -0.001806   0.000000   0.000000   0.003095  -0.001007
   13  C  1 XY   -0.008237   0.000000   0.000000   0.012003   0.017493
   14  C  1 XZ    0.000000   0.011395   0.023245   0.000000   0.000000
   15  C  1 YZ    0.000000  -0.006983  -0.014912   0.000000   0.000000
   16  C  2  S    0.005871   0.000000   0.000000  -0.009960   0.056290
   17  C  2  S   -0.011347   0.000000   0.000000   0.022834  -0.097329
   18  C  2  X   -0.239172   0.000000   0.000000   0.090398   0.053523
   19  C  2  Y    0.154151   0.000000   0.000000   0.041271   0.315432
   20  C  2  Z    0.000000   0.294228   0.488449   0.000000   0.000000
   21  C  2  S   -0.040893   0.000000   0.000000  -0.124399  -0.991639
   22  C  2  X    0.013922   0.000000   0.000000   0.322838   0.121268
   23  C  2  Y    0.018622   0.000000   0.000000  -0.054052   0.698860
   24  C  2  Z    0.000000   0.183587   0.643224   0.000000   0.000000
   25  C  2 XX    0.011749   0.000000   0.000000  -0.001550  -0.017293
   26  C  2 YY   -0.018873   0.000000   0.000000  -0.004740   0.021831
   27  C  2 ZZ    0.003623   0.000000   0.000000   0.005558   0.004848
   28  C  2 XY   -0.017849   0.000000   0.000000  -0.010299  -0.012023
   29  C  2 XZ    0.000000  -0.030006   0.011277   0.000000   0.000000
   30  C  2 YZ    0.000000   0.002102  -0.019207   0.000000   0.000000
   31  O  3  S   -0.064372   0.000000   0.000000   0.085718   0.005285
   32  O  3  S    0.133739   0.000000   0.000000  -0.116980  -0.036367
   33  O  3  X    0.393381   0.000000   0.000000   0.080711   0.088464
   34  O  3  Y   -0.268131   0.000000   0.000000  -0.291608   0.027315
   35  O  3  Z    0.000000  -0.359434  -0.219181   0.000000   0.000000
   36  O  3  S    0.277971   0.000000   0.000000  -1.060398   0.001828
   37  O  3  X    0.271151   0.000000   0.000000   0.137116   0.123270
   38  O  3  Y   -0.157366   0.000000   0.000000  -0.463012   0.009802
   39  O  3  Z    0.000000  -0.297316  -0.258064   0.000000   0.000000
   40  O  3 XX   -0.017273   0.000000   0.000000   0.034091  -0.002260
   41  O  3 YY   -0.015720   0.000000   0.000000   0.023930  -0.011858
   42  O  3 ZZ    0.002276   0.000000   0.000000   0.041300  -0.007966
   43  O  3 XY    0.016683   0.000000   0.000000   0.010148  -0.008998
   44  O  3 XZ    0.000000   0.005081  -0.008931   0.000000   0.000000
   45  O  3 YZ    0.000000  -0.011937  -0.018625   0.000000   0.000000
   46  H  4  S   -0.149530   0.000000   0.000000   0.141976  -0.034741
   47  H  4  S   -0.108815   0.000000   0.000000   1.367940  -0.198668
   48  H  5  S   -0.132375   0.000000   0.000000  -0.051079   0.088692
   49  H  5  S   -0.137166   0.000000   0.000000  -0.150288   1.506558
   50  H  6  S   -0.104572   0.000000   0.000000   0.063949   0.074231
   51  H  6  S   -0.122424   0.000000   0.000000   0.366464   1.037956
   52  H  7  S   -0.024400   0.000000   0.000000  -0.044204  -0.063800
   53  H  7  S   -0.041634   0.000000   0.000000   0.356340  -0.620544

                     16         17         18         19         20
                    0.1466     0.1894     0.2882     0.3668     0.5077
                     A          A          A          A          A   
    1  C  1  S   -0.113028   0.074507   0.041477  -0.071903   0.000021
    2  C  1  S    0.151301  -0.116651  -0.071062  -0.013214   0.259805
    3  C  1  X   -0.153415   0.109847  -0.156543   0.046604   0.495751
    4  C  1  Y    0.183779   0.197730  -0.228407  -0.087231  -0.265498
    5  C  1  Z    0.000000   0.000000   0.000000   0.000000   0.000000
    6  C  1  S    1.990232  -1.078453  -0.495050   3.039092   0.635191
    7  C  1  X   -0.318737   0.300233  -1.178071   2.633474  -0.433569
    8  C  1  Y    0.544605   0.983363  -1.079940  -1.522352   0.203122
    9  C  1  Z    0.000000   0.000000   0.000000   0.000000   0.000000
   10  C  1 XX    0.003682   0.012310   0.027998  -0.014696   0.022841
   11  C  1 YY   -0.019493  -0.008379  -0.038779   0.015461   0.004030
   12  C  1 ZZ   -0.006193   0.006188   0.006537  -0.011098   0.002572
   13  C  1 XY    0.004587  -0.002937   0.006129   0.034856  -0.037738
   14  C  1 XZ    0.000000   0.000000   0.000000   0.000000   0.000000
   15  C  1 YZ    0.000000   0.000000   0.000000   0.000000   0.000000
   16  C  2  S   -0.021448  -0.118833  -0.077755   0.057955   0.054164
   17  C  2  S    0.038351   0.190750   0.068479  -0.085204   0.021375
   18  C  2  X    0.158652   0.116958   0.170827   0.258225  -0.565305
   19  C  2  Y   -0.004552  -0.089008   0.300105  -0.208174  -0.086750
   20  C  2  Z    0.000000   0.000000   0.000000   0.000000   0.000000
   21  C  2  S    0.375306   1.875689   1.472432  -2.852699   0.023483
   22  C  2  X    0.509463  -0.030489   1.095952   2.613749   1.627012
   23  C  2  Y   -0.171046  -0.593527   1.464599  -1.251522  -0.188753
   24  C  2  Z    0.000000   0.000000   0.000000   0.000000   0.000000
   25  C  2 XX   -0.005530  -0.036650  -0.006901  -0.004519   0.114941
   26  C  2 YY    0.005854   0.011531  -0.005876  -0.001634   0.013528
   27  C  2 ZZ    0.006683   0.003867   0.015920   0.005346  -0.039075
   28  C  2 XY   -0.018752  -0.017291  -0.000857  -0.009822  -0.024537
   29  C  2 XZ    0.000000   0.000000   0.000000   0.000000   0.000000
   30  C  2 YZ    0.000000   0.000000   0.000000   0.000000   0.000000
   31  O  3  S    0.048656   0.022479   0.069717   0.013790   0.007983
   32  O  3  S   -0.073431  -0.080843  -0.068363  -0.011494   0.094925
   33  O  3  X    0.079180   0.202530   0.225098   0.011892  -0.258159
   34  O  3  Y    0.001943   0.152026   0.215490   0.173136  -0.000950
   35  O  3  Z    0.000000   0.000000   0.000000   0.000000   0.000000
   36  O  3  S   -0.612250  -0.088898  -1.237324  -0.345176  -0.760997
   37  O  3  X    0.202479   0.241783   0.779375   0.046057   0.144050
   38  O  3  Y    0.047048   0.297570   0.422394   0.499832   0.145949
   39  O  3  Z    0.000000   0.000000   0.000000   0.000000   0.000000
   40  O  3 XX    0.009011  -0.000895   0.015951  -0.006144  -0.064486
   41  O  3 YY    0.021514  -0.004373   0.023645   0.028932   0.068269
   42  O  3 ZZ    0.017202  -0.006694   0.043839   0.000382   0.037764
   43  O  3 XY    0.006214   0.011623  -0.006244  -0.014171  -0.052789
   44  O  3 XZ    0.000000   0.000000   0.000000   0.000000   0.000000
   45  O  3 YZ    0.000000   0.000000   0.000000   0.000000   0.000000
   46  H  4  S    0.064679  -0.039871  -0.065180   0.010801   0.201317
   47  H  4  S    0.330250  -0.329259  -0.520756  -0.574832  -0.171363
   48  H  5  S    0.016871  -0.021489  -0.036830  -0.006675   0.063281
   49  H  5  S   -0.314034  -1.459459   0.732302  -0.700563  -0.202105
   50  H  6  S   -0.009680   0.061014   0.071068   0.136904  -0.018987
   51  H  6  S   -0.837569   1.474849  -1.228704   0.411460   0.086530
   52  H  7  S   -0.107592  -0.008068  -0.094640   0.077652  -0.064660
   53  H  7  S   -1.685879  -0.511372   1.286696   0.678034  -0.079487

                     21         22         23         24         25
                    0.5490     0.6158     0.6276     0.6406     0.6785
                     A          A          A          A          A   
    1  C  1  S    0.000000  -0.000626   0.005473   0.000000  -0.090532
    2  C  1  S    0.000000  -0.530667   0.038498   0.000000  -0.296034
    3  C  1  X    0.000000  -0.254767  -0.272815   0.000000   0.460667
    4  C  1  Y    0.000000   0.203291  -0.281063   0.000000  -0.277745
    5  C  1  Z   -0.707980   0.000000   0.000000  -0.805435   0.000000
    6  C  1  S    0.000000   0.348473  -0.664564   0.000000   0.817375
    7  C  1  X    0.000000  -0.235771   0.376650   0.000000  -0.699268
    8  C  1  Y    0.000000  -0.268345   0.894891   0.000000   0.460101
    9  C  1  Z    0.559217   0.000000   0.000000   1.209039   0.000000
   10  C  1 XX    0.000000  -0.078639   0.061194   0.000000  -0.136352
   11  C  1 YY    0.000000  -0.040906  -0.040143   0.000000  -0.139158
   12  C  1 ZZ    0.000000   0.019208  -0.011386   0.000000   0.099644
   13  C  1 XY    0.000000  -0.044387   0.063833   0.000000   0.043024
   14  C  1 XZ   -0.043063   0.000000   0.000000   0.005934   0.000000
   15  C  1 YZ    0.021195   0.000000   0.000000   0.000901   0.000000
   16  C  2  S    0.000000  -0.026533   0.024841   0.000000   0.043899
   17  C  2  S    0.000000  -0.924209   0.025256   0.000000  -0.267864
   18  C  2  X    0.000000  -0.447796  -0.221323   0.000000   0.582355
   19  C  2  Y    0.000000  -0.384170  -0.405381   0.000000  -0.221332
   20  C  2  Z   -0.732675   0.000000   0.000000   0.724922   0.000000
   21  C  2  S    0.000000   1.772983  -0.264911   0.000000   0.242876
   22  C  2  X    0.000000   0.577705  -0.551954   0.000000  -0.625625
   23  C  2  Y    0.000000   0.886872   0.806236   0.000000   0.250299
   24  C  2  Z    0.770717   0.000000   0.000000  -1.206020   0.000000
   25  C  2 XX    0.000000  -0.051819  -0.037031   0.000000   0.048642
   26  C  2 YY    0.000000  -0.113377   0.107714   0.000000  -0.006105
   27  C  2 ZZ    0.000000   0.015826  -0.040748   0.000000  -0.031345
   28  C  2 XY    0.000000   0.087499  -0.001092   0.000000  -0.103391
   29  C  2 XZ    0.030160   0.000000   0.000000   0.043504   0.000000
   30  C  2 YZ   -0.038877   0.000000   0.000000   0.006773   0.000000
   31  O  3  S    0.000000  -0.003143  -0.034382   0.000000   0.003736
   32  O  3  S    0.000000   0.001034   0.189937   0.000000   0.068583
   33  O  3  X    0.000000  -0.158125   0.126595   0.000000   0.098743
   34  O  3  Y    0.000000  -0.003304  -0.114222   0.000000  -0.000719
   35  O  3  Z   -0.118845   0.000000   0.000000   0.086597   0.000000
   36  O  3  S    0.000000  -0.566444   0.132392   0.000000   0.041780
   37  O  3  X    0.000000   0.269231  -0.264479   0.000000  -0.062645
   38  O  3  Y    0.000000   0.063006  -0.131965   0.000000  -0.051904
   39  O  3  Z   -0.050398   0.000000   0.000000   0.111191   0.000000
   40  O  3 XX    0.000000  -0.093687   0.049951   0.000000   0.032385
   41  O  3 YY    0.000000  -0.028480  -0.002233   0.000000   0.066597
   42  O  3 ZZ    0.000000   0.067396   0.046798   0.000000   0.000413
   43  O  3 XY    0.000000  -0.096507  -0.053127   0.000000   0.045251
   44  O  3 XZ    0.024586   0.000000   0.000000  -0.044594   0.000000
   45  O  3 YZ    0.015303   0.000000   0.000000  -0.002697   0.000000
   46  H  4  S    0.000000  -0.047167  -0.194588   0.000000   0.095259
   47  H  4  S    0.000000  -0.302654  -0.028346   0.000000  -0.084617
   48  H  5  S    0.000000  -0.305830   0.558040   0.000000   0.085027
   49  H  5  S    0.000000   0.193883   0.184714   0.000000   0.095374
   50  H  6  S    0.000000  -0.238942   0.385294   0.000000  -0.437678
   51  H  6  S    0.000000  -0.063907   0.236603   0.000000  -0.200341
   52  H  7  S    0.000000  -0.148061  -0.295999   0.000000  -0.562998
   53  H  7  S    0.000000  -0.039876  -0.199029   0.000000  -0.089825

                     26         27         28         29         30
                    0.7907     0.8629     0.8740     0.9345     0.9422
                     A          A          A          A          A   
    1  C  1  S    0.016328  -0.007115   0.009871   0.029344   0.000000
    2  C  1  S   -0.076109  -0.146843   0.258993  -0.823246   0.000000
    3  C  1  X   -0.211897  -0.490463   0.115115   0.530308   0.000000
    4  C  1  Y   -0.105759  -0.976207  -0.162531  -0.286494   0.000000
    5  C  1  Z    0.000000   0.000000   0.000000   0.000000   0.016932
    6  C  1  S   -0.187439   0.751020  -1.424170   0.841162   0.000000
    7  C  1  X    0.259892   1.496779  -0.854771  -1.251666   0.000000
    8  C  1  Y    0.374895   2.444471   0.066488   0.547258   0.000000
    9  C  1  Z    0.000000   0.000000   0.000000   0.000000   0.168193
   10  C  1 XX    0.015752  -0.081640  -0.072335  -0.093742   0.000000
   11  C  1 YY    0.006638   0.059473   0.099155   0.057748   0.000000
   12  C  1 ZZ   -0.021217   0.000146  -0.004514  -0.102840   0.000000
   13  C  1 XY   -0.023549  -0.076817   0.002542   0.132034   0.000000
   14  C  1 XZ    0.000000   0.000000   0.000000   0.000000  -0.004874
   15  C  1 YZ    0.000000   0.000000   0.000000   0.000000   0.040349
   16  C  2  S   -0.047688   0.002938  -0.010266   0.002307   0.000000
   17  C  2  S    0.206154  -0.073239   0.719151  -0.590714   0.000000
   18  C  2  X   -0.082722   0.044295   0.205420   0.211359   0.000000
   19  C  2  Y   -0.121856   0.314284  -0.880633  -0.033570   0.000000
   20  C  2  Z    0.000000   0.000000   0.000000   0.000000   0.137770
   21  C  2  S   -0.548639  -0.069065  -0.800800   1.826295   0.000000
   22  C  2  X   -0.329464  -0.247550  -0.700129  -0.604422   0.000000
   23  C  2  Y    0.214259  -1.678103   2.554683   0.503422   0.000000
   24  C  2  Z    0.000000   0.000000   0.000000   0.000000  -0.590910
   25  C  2 XX   -0.045759   0.034624   0.160702   0.033426   0.000000
   26  C  2 YY   -0.079563  -0.069574  -0.070002  -0.012312   0.000000
   27  C  2 ZZ    0.057520   0.002654   0.054993  -0.033079   0.000000
   28  C  2 XY   -0.077225   0.048340   0.006609   0.003443   0.000000
   29  C  2 XZ    0.000000   0.000000   0.000000   0.000000   0.004336
   30  C  2 YZ    0.000000   0.000000   0.000000   0.000000   0.040989
   31  O  3  S    0.015522  -0.006207   0.005897   0.000547   0.000000
   32  O  3  S   -0.074551  -0.081743  -0.073244  -0.207233   0.000000
   33  O  3  X    0.510949   0.000318  -0.148991  -0.113191   0.000000
   34  O  3  Y   -0.324126   0.067450   0.158564  -0.261103   0.000000
   35  O  3  Z    0.000000   0.000000   0.000000   0.000000  -0.941606
   36  O  3  S    0.335413   0.521603  -0.005757   0.292759   0.000000
   37  O  3  X   -0.644305  -0.112417   0.432501   0.296295   0.000000
   38  O  3  Y   -0.140322   0.086314  -0.272167   0.308304   0.000000
   39  O  3  Z    0.000000   0.000000   0.000000   0.000000   1.214247
   40  O  3 XX   -0.024953   0.017376  -0.046433  -0.084346   0.000000
   41  O  3 YY    0.164098  -0.058747  -0.033280  -0.051936   0.000000
   42  O  3 ZZ   -0.070304  -0.035015  -0.009598  -0.048046   0.000000
   43  O  3 XY   -0.004330  -0.005556   0.056429  -0.011454   0.000000
   44  O  3 XZ    0.000000   0.000000   0.000000   0.000000   0.020830
   45  O  3 YZ    0.000000   0.000000   0.000000   0.000000   0.039975
   46  H  4  S    0.879726  -0.145103  -0.156715   0.116392   0.000000
   47  H  4  S   -0.743450   0.133610   0.017244  -0.341205   0.000000
   48  H  5  S   -0.315984  -0.029239  -0.587307   0.136457   0.000000
   49  H  5  S    0.595187  -0.794636   2.437580  -0.080747   0.000000
   50  H  6  S    0.036505  -0.465611   0.014592   0.588698   0.000000
   51  H  6  S    0.234026   1.838444  -0.082826  -1.254946   0.000000
   52  H  7  S    0.064485   0.378950   0.234516   0.634202   0.000000
   53  H  7  S   -0.192302  -1.909317  -0.232086  -1.157194   0.000000

                     31         32         33         34         35
                    0.9899     1.0781     1.1434     1.2306     1.3905
                     A          A          A          A          A   
    1  C  1  S   -0.010011  -0.026069   0.019408  -0.017452   0.000000
    2  C  1  S    0.314830  -1.561279   0.400146  -0.399085   0.000000
    3  C  1  X   -0.294151  -0.136826  -0.120209  -0.054891   0.000000
    4  C  1  Y    0.071108   0.085609  -0.171582   0.103170   0.000000
    5  C  1  Z    0.000000   0.000000   0.000000   0.000000   0.164384
    6  C  1  S   -1.255204   5.219649  -2.056858   3.099619   0.000000
    7  C  1  X    0.249098   1.542808   0.590190   1.316956   0.000000
    8  C  1  Y   -0.409825  -0.311301   2.585659  -0.818141   0.000000
    9  C  1  Z    0.000000   0.000000   0.000000   0.000000  -0.042879
   10  C  1 XX   -0.013723  -0.007086   0.126657  -0.021315   0.000000
   11  C  1 YY   -0.015053  -0.147955  -0.088398  -0.074353   0.000000
   12  C  1 ZZ    0.051431  -0.046253   0.011897   0.043362   0.000000
   13  C  1 XY   -0.011784  -0.059910   0.117619  -0.060659   0.000000
   14  C  1 XZ    0.000000   0.000000   0.000000   0.000000  -0.355418
   15  C  1 YZ    0.000000   0.000000   0.000000   0.000000   0.286745
   16  C  2  S    0.018480   0.019690  -0.027379   0.025836   0.000000
   17  C  2  S    0.118203   1.148116  -0.501858   0.472529   0.000000
   18  C  2  X    0.103498  -0.255473   0.153134  -0.172155   0.000000
   19  C  2  Y   -0.041715   0.137511   0.190713   0.071453   0.000000
   20  C  2  Z    0.000000   0.000000   0.000000   0.000000   0.007955
   21  C  2  S    0.098915  -4.529316   2.535474  -1.629845   0.000000
   22  C  2  X   -0.091415   1.140449  -1.685510   2.730242   0.000000
   23  C  2  Y    0.946790  -1.217428  -1.547897  -1.142890   0.000000
   24  C  2  Z    0.000000   0.000000   0.000000   0.000000   0.046017
   25  C  2 XX    0.087390  -0.034850   0.044322   0.137060   0.000000
   26  C  2 YY    0.094124   0.113716  -0.139056  -0.110124   0.000000
   27  C  2 ZZ   -0.059044   0.023359   0.040947   0.057985   0.000000
   28  C  2 XY    0.080726   0.085091   0.003950   0.072995   0.000000
   29  C  2 XZ    0.000000   0.000000   0.000000   0.000000   0.575495
   30  C  2 YZ    0.000000   0.000000   0.000000   0.000000  -0.074199
   31  O  3  S   -0.001271  -0.002921   0.001587   0.023028   0.000000
   32  O  3  S   -0.756653   0.033294   0.183019   0.517957   0.000000
   33  O  3  X   -0.460670  -0.174945  -0.349372  -0.072469   0.000000
   34  O  3  Y   -0.388843   0.247031   0.087354  -0.715832   0.000000
   35  O  3  Z    0.000000   0.000000   0.000000   0.000000  -0.019239
   36  O  3  S    1.396531   0.352649   0.188358  -1.475996   0.000000
   37  O  3  X    0.886823  -0.088383   0.369766   0.417185   0.000000
   38  O  3  Y    0.428409  -0.496319  -0.174554   1.967011   0.000000
   39  O  3  Z    0.000000   0.000000   0.000000   0.000000  -0.122786
   40  O  3 XX   -0.221572   0.102025   0.036321   0.132188   0.000000
   41  O  3 YY   -0.171419   0.044147   0.128843   0.103418   0.000000
   42  O  3 ZZ   -0.288704  -0.138359  -0.042912   0.202094   0.000000
   43  O  3 XY   -0.063345  -0.033725   0.067022   0.216354   0.000000
   44  O  3 XZ    0.000000   0.000000   0.000000   0.000000  -0.306661
   45  O  3 YZ    0.000000   0.000000   0.000000   0.000000  -0.302873
   46  H  4  S    0.510399   0.167244   0.192042  -0.388403   0.000000
   47  H  4  S   -1.237200   0.235728   0.022946  -0.548490   0.000000
   48  H  5  S    0.352290  -0.002372  -0.573529  -0.232604   0.000000
   49  H  5  S    0.248283   0.072258  -0.791181  -0.238103   0.000000
   50  H  6  S   -0.257953   0.125444   0.663178  -0.033565   0.000000
   51  H  6  S    0.501367  -0.459320   0.854514   0.069104   0.000000
   52  H  7  S   -0.137953  -0.191945  -0.538059  -0.169257   0.000000
   53  H  7  S    0.718087  -0.621786  -0.602309   0.244385   0.000000

                     36         37         38         39         40
                    1.4779     1.5582     1.7170     1.7644     1.7845
                     A          A          A          A          A   
    1  C  1  S    0.000000  -0.023946   0.000000   0.000000   0.019126
    2  C  1  S    0.000000  -0.275473   0.000000   0.000000  -0.188770
    3  C  1  X    0.000000   0.050317   0.000000   0.000000  -0.236816
    4  C  1  Y    0.000000  -0.124989   0.000000   0.000000   0.058392
    5  C  1  Z   -0.049920   0.000000  -0.016498   0.058424   0.000000
    6  C  1  S    0.000000   2.038236   0.000000   0.000000  -1.058857
    7  C  1  X    0.000000   1.486922   0.000000   0.000000  -0.222493
    8  C  1  Y    0.000000   1.455701   0.000000   0.000000  -0.166444
    9  C  1  Z   -0.035207   0.000000   0.026078  -0.130397   0.000000
   10  C  1 XX    0.000000   0.136204   0.000000   0.000000   0.042477
   11  C  1 YY    0.000000  -0.038088   0.000000   0.000000  -0.270846
   12  C  1 ZZ    0.000000  -0.093338   0.000000   0.000000   0.205494
   13  C  1 XY    0.000000   0.058220   0.000000   0.000000  -0.116840
   14  C  1 XZ    0.406412   0.000000   0.399494  -0.134366   0.000000
   15  C  1 YZ    0.228117   0.000000   0.702351   0.507273   0.000000
   16  C  2  S    0.000000   0.012294   0.000000   0.000000   0.011524
   17  C  2  S    0.000000   0.374044   0.000000   0.000000   0.100826
   18  C  2  X    0.000000  -0.130714   0.000000   0.000000  -0.016766
   19  C  2  Y    0.000000   0.072949   0.000000   0.000000   0.065586
   20  C  2  Z   -0.156171   0.000000   0.048777   0.106500   0.000000
   21  C  2  S    0.000000  -3.130481   0.000000   0.000000  -0.273441
   22  C  2  X    0.000000  -0.988912   0.000000   0.000000  -1.077424
   23  C  2  Y    0.000000  -3.037284   0.000000   0.000000   1.221472
   24  C  2  Z    0.107155   0.000000  -0.000893   0.143491   0.000000
   25  C  2 XX    0.000000  -0.057687   0.000000   0.000000   0.019460
   26  C  2 YY    0.000000   0.077944   0.000000   0.000000  -0.384301
   27  C  2 ZZ    0.000000  -0.094900   0.000000   0.000000   0.383682
   28  C  2 XY    0.000000  -0.041984   0.000000   0.000000  -0.364747
   29  C  2 XZ    0.074513   0.000000  -0.038100   0.002737   0.000000
   30  C  2 YZ    0.684901   0.000000  -0.141742  -0.223346   0.000000
   31  O  3  S    0.000000  -0.108922   0.000000   0.000000  -0.010894
   32  O  3  S    0.000000  -1.585524   0.000000   0.000000  -0.036416
   33  O  3  X    0.000000   0.282464   0.000000   0.000000  -0.202025
   34  O  3  Y    0.000000  -0.043376   0.000000   0.000000   0.149699
   35  O  3  Z    0.008373   0.000000   0.040058   0.048331   0.000000
   36  O  3  S    0.000000   5.057740   0.000000   0.000000   0.402988
   37  O  3  X    0.000000  -1.677528   0.000000   0.000000   0.083895
   38  O  3  Y    0.000000   0.277920   0.000000   0.000000  -0.650905
   39  O  3  Z   -0.127579   0.000000  -0.015915  -0.115772   0.000000
   40  O  3 XX    0.000000  -0.592325   0.000000   0.000000  -0.493774
   41  O  3 YY    0.000000  -0.549303   0.000000   0.000000   0.140254
   42  O  3 ZZ    0.000000  -0.077491   0.000000   0.000000   0.347030
   43  O  3 XY    0.000000   0.043680   0.000000   0.000000   0.421707
   44  O  3 XZ   -0.374339   0.000000   0.438143  -0.074029   0.000000
   45  O  3 YZ    0.105422   0.000000  -0.363582   0.824324   0.000000
   46  H  4  S    0.000000  -0.442847   0.000000   0.000000   0.107237
   47  H  4  S    0.000000  -0.286332   0.000000   0.000000   0.087959
   48  H  5  S    0.000000  -0.385074   0.000000   0.000000   0.600480
   49  H  5  S    0.000000  -0.827980   0.000000   0.000000   0.557500
   50  H  6  S    0.000000   0.196515   0.000000   0.000000   0.075736
   51  H  6  S    0.000000   0.477418   0.000000   0.000000  -0.020775
   52  H  7  S    0.000000  -0.429184   0.000000   0.000000   0.297894
   53  H  7  S    0.000000  -0.693139   0.000000   0.000000   0.052244

                     41         42         43         44         45
                    1.9117     1.9636     2.1531     2.2436     2.3185
                     A          A          A          A          A   
    1  C  1  S   -0.021068   0.004488   0.001573   0.000000  -0.064446
    2  C  1  S   -0.323604   0.049861   0.014907   0.000000  -0.315146
    3  C  1  X   -0.286296   0.116596   0.007878   0.000000   0.026580
    4  C  1  Y    0.162164   0.192175   0.054707   0.000000   0.006095
    5  C  1  Z    0.000000   0.000000   0.000000  -0.044986   0.000000
    6  C  1  S   -0.189073  -0.404927  -0.179434   0.000000   2.232196
    7  C  1  X   -0.456348  -0.014571   0.538200   0.000000   0.973392
    8  C  1  Y   -0.346788   0.366647   0.126554   0.000000  -0.111773
    9  C  1  Z    0.000000   0.000000   0.000000  -0.267502   0.000000
   10  C  1 XX    0.261027  -0.490554   0.030194   0.000000   0.173118
   11  C  1 YY    0.235902   0.490481  -0.471269   0.000000   0.447054
   12  C  1 ZZ   -0.634661   0.032940   0.295356   0.000000  -0.770405
   13  C  1 XY    0.011271  -0.284241  -0.751106   0.000000  -0.303296
   14  C  1 XZ    0.000000   0.000000   0.000000  -0.669936   0.000000
   15  C  1 YZ    0.000000   0.000000   0.000000   0.149459   0.000000
   16  C  2  S   -0.040611  -0.004489  -0.021574   0.000000   0.026138
   17  C  2  S   -0.438495  -0.090539  -0.370554   0.000000   0.297172
   18  C  2  X   -0.027589  -0.024151   0.172128   0.000000   0.453038
   19  C  2  Y   -0.085942   0.165394  -0.145622   0.000000   0.022982
   20  C  2  Z    0.000000   0.000000   0.000000   0.155544   0.000000
   21  C  2  S    1.218150   0.229105   0.103390   0.000000  -1.595921
   22  C  2  X   -0.120001  -0.154789  -0.354547   0.000000   0.652234
   23  C  2  Y    0.977159   0.372154  -0.552106   0.000000  -0.890055
   24  C  2  Z    0.000000   0.000000   0.000000   0.422321   0.000000
   25  C  2 XX    0.332978   0.414867   0.190405   0.000000  -0.085389
   26  C  2 YY    0.118543  -0.502465  -0.102639   0.000000  -0.359559
   27  C  2 ZZ   -0.613716   0.036374  -0.286591   0.000000   0.375815
   28  C  2 XY   -0.148668   0.426570  -0.298368   0.000000  -0.335798
   29  C  2 XZ    0.000000   0.000000   0.000000  -0.018024   0.000000
   30  C  2 YZ    0.000000   0.000000   0.000000   0.743821   0.000000
   31  O  3  S    0.003433   0.026704  -0.017183   0.000000  -0.005777
   32  O  3  S    0.030915  -0.234333  -0.360015   0.000000   0.217563
   33  O  3  X    0.021901   0.234906   0.075324   0.000000  -0.162741
   34  O  3  Y    0.097220   0.175418  -0.041014   0.000000  -0.135934
   35  O  3  Z    0.000000   0.000000   0.000000   0.085847   0.000000
   36  O  3  S   -0.383344   0.037349   0.999523   0.000000  -0.117835
   37  O  3  X    0.252597  -0.041313  -0.358160   0.000000   0.130799
   38  O  3  Y   -0.005017  -0.327308   0.370934   0.000000   0.387743
   39  O  3  Z    0.000000   0.000000   0.000000  -0.310018   0.000000
   40  O  3 XX   -0.173666   0.010632   0.206951   0.000000   0.112945
   41  O  3 YY    0.372509  -0.080549   0.047724   0.000000  -0.291406
   42  O  3 ZZ   -0.229446   0.023362  -0.381787   0.000000   0.240516
   43  O  3 XY    0.379970   0.157362  -0.255010   0.000000  -0.495867
   44  O  3 XZ    0.000000   0.000000   0.000000   0.632251   0.000000
   45  O  3 YZ    0.000000   0.000000   0.000000   0.066437   0.000000
   46  H  4  S   -0.193884   0.207404  -0.405739   0.000000   0.096832
   47  H  4  S   -0.102989  -0.069374  -0.085418   0.000000  -0.132789
   48  H  5  S    0.034525   0.530341  -0.103584   0.000000   0.135216
   49  H  5  S    0.199945  -0.015871  -0.294674   0.000000  -0.304986
   50  H  6  S   -0.295427   0.471469   0.578716   0.000000  -0.078455
   51  H  6  S   -0.246676  -0.005008   0.054390   0.000000   0.051185
   52  H  7  S   -0.109632  -0.504877   0.231319   0.000000  -0.485975
   53  H  7  S    0.095980   0.055942  -0.052384   0.000000  -0.055566

                     46         47         48         49         50
                    2.4317     2.5324     2.6551     2.8057     2.9599
                     A          A          A          A          A   
    1  C  1  S    0.012880   0.000000   0.041904  -0.038976  -0.023609
    2  C  1  S   -0.019114   0.000000   0.007528   0.297321   0.142984
    3  C  1  X   -0.112974   0.000000  -0.241140   0.574704   0.227677
    4  C  1  Y    0.092008   0.000000   0.080319  -0.288108  -0.228943
    5  C  1  Z    0.000000   0.119258   0.000000   0.000000   0.000000
    6  C  1  S    0.107652   0.000000  -1.626291   1.501252   0.469717
    7  C  1  X   -0.080187   0.000000  -0.638144   0.729793   0.411700
    8  C  1  Y    0.348867   0.000000   0.241907  -0.605838   0.345589
    9  C  1  Z    0.000000   0.112413   0.000000   0.000000   0.000000
   10  C  1 XX   -0.461529   0.000000  -0.723017   0.611282  -0.219038
   11  C  1 YY    0.336477   0.000000   0.468457  -0.204615   0.389489
   12  C  1 ZZ    0.115546   0.000000   0.317536  -0.344498  -0.176821
   13  C  1 XY    0.316431   0.000000  -0.204552  -0.571919  -0.588574
   14  C  1 XZ    0.000000   0.495692   0.000000   0.000000   0.000000
   15  C  1 YZ    0.000000  -0.379514   0.000000   0.000000   0.000000
   16  C  2  S    0.032105   0.000000  -0.059811   0.048170   0.084125
   17  C  2  S    0.264183   0.000000   0.352272   0.008019  -0.735607
   18  C  2  X   -0.348112   0.000000   0.377503   0.812214  -0.320776
   19  C  2  Y    0.200201   0.000000   0.344387  -0.109626  -0.309088
   20  C  2  Z    0.000000  -0.005872   0.000000   0.000000   0.000000
   21  C  2  S   -0.762415   0.000000   2.388339  -1.274239  -1.751335
   22  C  2  X   -0.337063   0.000000  -0.099125   1.184557  -0.720165
   23  C  2  Y   -0.683622   0.000000   0.987040  -0.240469  -0.535890
   24  C  2  Z    0.000000   0.023241   0.000000   0.000000   0.000000
   25  C  2 XX   -0.007872   0.000000   0.063590  -0.366946  -1.033320
   26  C  2 YY   -0.115095   0.000000   0.590713   0.149637   0.799383
   27  C  2 ZZ    0.371764   0.000000  -0.637434   0.329780   0.609337
   28  C  2 XY   -0.369723   0.000000  -0.123675   1.009281  -0.275124
   29  C  2 XZ    0.000000   0.983808   0.000000   0.000000   0.000000
   30  C  2 YZ    0.000000  -0.007397   0.000000   0.000000   0.000000
   31  O  3  S   -0.050053   0.000000   0.032337   0.010795  -0.056288
   32  O  3  S   -0.523095   0.000000   0.743962   0.136383  -0.410547
   33  O  3  X   -0.019886   0.000000  -0.133574   0.066234  -0.138117
   34  O  3  Y   -0.098766   0.000000  -0.040015  -0.033139  -0.016922
   35  O  3  Z    0.000000   0.023725   0.000000   0.000000   0.000000
   36  O  3  S    1.840968   0.000000  -2.050371  -0.588423   1.900982
   37  O  3  X   -0.572870   0.000000   1.151745   0.426042  -0.993610
   38  O  3  Y    0.701259   0.000000   0.202431   0.520182  -0.776853
   39  O  3  Z    0.000000  -0.248767   0.000000   0.000000   0.000000
   40  O  3 XX   -0.238649   0.000000  -0.639277  -0.705767   0.450223
   41  O  3 YY    0.763845   0.000000   0.233300   0.672385  -0.199227
   42  O  3 ZZ   -0.742723   0.000000   0.564297   0.009245  -0.371764
   43  O  3 XY   -0.220806   0.000000  -0.251110  -0.174844   0.777419
   44  O  3 XZ    0.000000   0.565942   0.000000   0.000000   0.000000
   45  O  3 YZ    0.000000   0.340757   0.000000   0.000000   0.000000
   46  H  4  S   -1.134466   0.000000   0.128790  -0.470694   0.163043
   47  H  4  S    0.035318   0.000000  -0.044189  -0.030515   0.136868
   48  H  5  S    0.079757   0.000000  -0.388880   0.036329  -0.254636
   49  H  5  S   -0.172399   0.000000   0.346750  -0.006012   0.151126
   50  H  6  S    0.008717   0.000000   0.361739  -0.020891   0.283976
   51  H  6  S   -0.000794   0.000000  -0.074835   0.028177   0.028631
   52  H  7  S   -0.245271   0.000000  -0.188462   0.068321  -0.278915
   53  H  7  S   -0.061507   0.000000   0.142090   0.128988  -0.125876

                     51         52         53
                    3.7917     4.1135     4.3141
                     A          A          A   
    1  C  1  S    0.008958  -0.374929   0.290090
    2  C  1  S   -0.056055   2.500383  -1.668265
    3  C  1  X    0.052328   0.073585   0.356204
    4  C  1  Y   -0.039717  -0.051860  -0.211895
    5  C  1  Z    0.000000   0.000000   0.000000
    6  C  1  S    0.120434   1.172052  -1.834877
    7  C  1  X    0.400672  -0.073962  -0.184785
    8  C  1  Y    0.591905   0.153206   0.252943
    9  C  1  Z    0.000000   0.000000   0.000000
   10  C  1 XX    0.087441  -1.472089   1.408162
   11  C  1 YY   -0.027016  -1.447646   1.220812
   12  C  1 ZZ    0.073480  -1.448792   1.056757
   13  C  1 XY    0.004358  -0.031510  -0.254037
   14  C  1 XZ    0.000000   0.000000   0.000000
   15  C  1 YZ    0.000000   0.000000   0.000000
   16  C  2  S   -0.020591  -0.274326  -0.377091
   17  C  2  S    0.097291   1.885881   2.256293
   18  C  2  X    0.014584  -0.232384   0.117431
   19  C  2  Y    0.014149   0.027486  -0.243964
   20  C  2  Z    0.000000   0.000000   0.000000
   21  C  2  S   -1.557326   0.340388   1.577658
   22  C  2  X   -1.097060  -0.151512  -0.556262
   23  C  2  Y   -0.970663  -0.196474  -0.085599
   24  C  2  Z    0.000000   0.000000   0.000000
   25  C  2 XX    0.048097  -1.176081  -2.032151
   26  C  2 YY   -0.159863  -1.051786  -1.510477
   27  C  2 ZZ    0.039098  -1.038474  -1.337763
   28  C  2 XY    0.044646  -0.113312   0.098040
   29  C  2 XZ    0.000000   0.000000   0.000000
   30  C  2 YZ    0.000000   0.000000   0.000000
   31  O  3  S   -0.539927  -0.009000  -0.001835
   32  O  3  S   -0.236916  -0.054749  -0.136770
   33  O  3  X    0.200914  -0.079744  -0.102805
   34  O  3  Y    0.001511  -0.019677  -0.036563
   35  O  3  Z    0.000000   0.000000   0.000000
   36  O  3  S    5.836886   0.247513   0.283061
   37  O  3  X   -1.028998  -0.217964  -0.339899
   38  O  3  Y   -0.074509  -0.158317  -0.226404
   39  O  3  Z    0.000000   0.000000   0.000000
   40  O  3 XX   -1.643134   0.158906   0.314533
   41  O  3 YY   -1.777291   0.002257   0.082010
   42  O  3 ZZ   -1.888692  -0.064359  -0.114737
   43  O  3 XY    0.071735   0.158749   0.240616
   44  O  3 XZ    0.000000   0.000000   0.000000
   45  O  3 YZ    0.000000   0.000000   0.000000
   46  H  4  S    0.033240   0.010119  -0.025462
   47  H  4  S   -0.557836   0.026820   0.052656
   48  H  5  S    0.079247   0.111325   0.122122
   49  H  5  S   -0.262816  -0.259599  -0.393841
   50  H  6  S    0.081477   0.164540  -0.054746
   51  H  6  S    0.209114  -0.343936   0.305379
   52  H  7  S   -0.077263   0.128832  -0.105113
   53  H  7  S   -0.202337  -0.406718   0.221329
 ...... END OF RHF CALCULATION ......
 STEP CPU TIME =     5.32 TOTAL CPU TIME =          5.4 (      0.1 MIN)
 TOTAL WALL CLOCK TIME=          5.6 SECONDS, CPU UTILIZATION IS    97.85%

     ---------------------------------------------------------------------
     PROPERTIES FOR THE B3LYP    DFT FUNCTIONAL (RHF  TYPE) DENSITY MATRIX
     ---------------------------------------------------------------------

          -----------------
          ENERGY COMPONENTS
          -----------------

         WAVEFUNCTION NORMALIZATION =       1.0000000000

                ONE ELECTRON ENERGY =    -346.9840951465
                TWO ELECTRON ENERGY =     123.1639565713
           NUCLEAR REPULSION ENERGY =      70.1029929215
                                      ------------------
                       TOTAL ENERGY =    -153.7171456536

 ELECTRON-ELECTRON POTENTIAL ENERGY =     123.1639565713
  NUCLEUS-ELECTRON POTENTIAL ENERGY =    -499.3744668872
   NUCLEUS-NUCLEUS POTENTIAL ENERGY =      70.1029929215
                                      ------------------
             TOTAL POTENTIAL ENERGY =    -306.1075173943
               TOTAL KINETIC ENERGY =     152.3903717407
                 VIRIAL RATIO (V/T) =       2.0087064156

          ---------------------------------------
          MULLIKEN AND LOWDIN POPULATION ANALYSES
          ---------------------------------------

     ATOMIC MULLIKEN POPULATION IN EACH MOLECULAR ORBITAL

                      1          2          3          4          5

                  2.000000   2.000000   2.000000   2.000000   2.000000

    1            -0.000005   0.001309   1.997934   0.026841   0.866101
    2            -0.000469   1.998778   0.001244   0.235842   0.735771
    3             2.000601  -0.000511  -0.000002   1.624850   0.179344
    4            -0.000126   0.000004   0.000001   0.110812   0.029862
    5            -0.000000   0.000409   0.000004   0.001075   0.055099
    6             0.000000  -0.000003   0.000399   0.000800   0.077087
    7            -0.000001   0.000014   0.000420  -0.000220   0.056737

                      6          7          8          9         10

                  2.000000   2.000000   2.000000   2.000000   2.000000

    1             0.326746   0.529330   0.584281   0.118983   0.632058
    2             0.486780   0.483533   0.432833   0.536577   0.229737
    3             0.687431   0.416171   0.547622   1.344440   0.134712
    4             0.203611   0.117034   0.006276   0.000000   0.028301
    5             0.132294   0.154869   0.124084   0.000000   0.254843
    6             0.064771   0.023613   0.304857   0.000000   0.286648
    7             0.098366   0.275449   0.000047   0.000000   0.433702

                     11         12

                  2.000000   2.000000

    1             0.273891   1.041834
    2             0.257654   0.449416
    3             1.134392   0.508750
    4             0.100849   0.000000
    5             0.126367   0.000000
    6             0.096704   0.000000
    7             0.010143   0.000000

               ----- POPULATIONS IN EACH AO -----
                             MULLIKEN      LOWDIN
              1  C  1  S      1.99160     1.97920
              2  C  1  S      0.68790     0.36276
              3  C  1  X      0.74340     0.65518
              4  C  1  Y      0.72194     0.63479
              5  C  1  Z      0.62811     0.59154
              6  C  1  S      0.57608     0.33664
              7  C  1  X      0.26384     0.39070
              8  C  1  Y      0.24799     0.43858
              9  C  1  Z      0.52801     0.55697
             10  C  1 XX      0.00941     0.18042
             11  C  1 YY      0.01374     0.17254
             12  C  1 ZZ     -0.02634     0.10310
             13  C  1 XY      0.00892     0.01829
             14  C  1 XZ      0.00368     0.00659
             15  C  1 YZ      0.00103     0.00186
             16  C  2  S      1.99171     1.97711
             17  C  2  S      0.71551     0.36107
             18  C  2  X      0.68455     0.59405
             19  C  2  Y      0.74010     0.65079
             20  C  2  Z      0.57457     0.51499
             21  C  2  S      0.42938     0.29704
             22  C  2  X      0.08854     0.26638
             23  C  2  Y      0.19787     0.37499
             24  C  2  Z      0.39194     0.44443
             25  C  2 XX      0.00986     0.19122
             26  C  2 YY      0.01425     0.17828
             27  C  2 ZZ     -0.02752     0.09912
             28  C  2 XY      0.01745     0.03555
             29  C  2 XZ      0.01746     0.03859
             30  C  2 YZ      0.00202     0.00356
             31  O  3  S      1.99237     1.97596
             32  O  3  S      0.90780     0.71404
             33  O  3  X      0.94549     0.88750
             34  O  3  Y      0.87017     0.80240
             35  O  3  Z      1.11250     1.08082
             36  O  3  S      0.95349     0.45126
             37  O  3  X      0.56298     0.60783
             38  O  3  Y      0.46610     0.55009
             39  O  3  Z      0.73515     0.75059
             40  O  3 XX      0.00318     0.17681
             41  O  3 YY      0.02980     0.20049
             42  O  3 ZZ     -0.01114     0.15926
             43  O  3 XY      0.00438     0.00888
             44  O  3 XZ      0.00508     0.00853
             45  O  3 YZ      0.00046     0.00152
             46  H  4  S      0.47436     0.43337
             47  H  4  S      0.12226     0.21363
             48  H  5  S      0.53408     0.49191
             49  H  5  S      0.31496     0.35029
             50  H  6  S      0.52493     0.47478
             51  H  6  S      0.32994     0.35490
             52  H  7  S      0.52629     0.47930
             53  H  7  S      0.34837     0.36950

          ----- MULLIKEN ATOMIC OVERLAP POPULATIONS -----
          (OFF-DIAGONAL ELEMENTS NEED TO BE MULTIPLIED BY 2)

             1           2           3           4           5

    1    5.1412051
    2    0.6461696   4.5736788
    3   -0.0492355   0.3265145   8.1134553
    4   -0.0061081  -0.0329757   0.2385693   0.3830064
    5   -0.0595681   0.3841440  -0.0479827   0.0073967   0.5637475
    6    0.3603948  -0.0133201   0.0029211  -0.0000440  -0.0035205
    7    0.3664458  -0.0365139  -0.0064424   0.0067798   0.0048263

             6           7

    6    0.5448491
    7   -0.0364052   0.5759666

          TOTAL MULLIKEN AND LOWDIN ATOMIC POPULATIONS
       ATOM         MULL.POP.    CHARGE          LOW.POP.     CHARGE
    1 C             6.399303   -0.399303         6.429155   -0.429155
    2 C             5.847697    0.152303         6.027192   -0.027192
    3 O             8.577800   -0.577800         8.375975   -0.375975
    4 H             0.596624    0.403376         0.646998    0.353002
    5 H             0.849043    0.150957         0.842199    0.157801
    6 H             0.854875    0.145125         0.829675    0.170325
    7 H             0.874657    0.125343         0.848805    0.151195

          -------------------------------
          BOND ORDER AND VALENCE ANALYSIS     BOND ORDER THRESHOLD=0.050
          -------------------------------

                   BOND                       BOND                       BOND
  ATOM PAIR DIST  ORDER      ATOM PAIR DIST  ORDER      ATOM PAIR DIST  ORDER
    1   2  1.334  1.891        1   3  2.417  0.099        1   6  1.084  0.934
    1   7  1.088  0.938        2   3  1.363  1.056        2   5  1.087  0.936
    3   4  0.972  0.779

                       TOTAL       BONDED        FREE
      ATOM            VALENCE     VALENCE     VALENCE
    1 C                 3.851       3.851       0.000
    2 C                 3.888       3.888      -0.000
    3 O                 1.940       1.940       0.000
    4 H                 0.806       0.806      -0.000
    5 H                 0.934       0.934       0.000
    6 H                 0.946       0.946       0.000
    7 H                 0.945       0.945       0.000

          ---------------------
          ELECTROSTATIC MOMENTS
          ---------------------

 POINT   1           X           Y           Z (BOHR)    CHARGE
                -0.000000    0.000000    0.000000        0.00 (A.U.)
         DX          DY          DZ         /D/  (DEBYE)
    -0.450112    0.893743    0.000000    1.000688
 ...... END OF PROPERTY EVALUATION ......
 STEP CPU TIME =     0.00 TOTAL CPU TIME =          5.4 (      0.1 MIN)
 TOTAL WALL CLOCK TIME=          5.6 SECONDS, CPU UTILIZATION IS    97.67%

 BEGINNING ONE ELECTRON GRADIENT...
 ..... END OF 1-ELECTRON GRADIENT ......
 STEP CPU TIME =     0.01 TOTAL CPU TIME =          5.5 (      0.1 MIN)
 TOTAL WALL CLOCK TIME=          5.6 SECONDS, CPU UTILIZATION IS    97.67%

          ----------------------
          GRADIENT OF THE ENERGY
          ----------------------
 MEMORY FOR GRID POINT CONTRIBUTIONS TO THE DFT GRADIENT=    269593 WORDS.
 STEP CPU TIME =     1.10 TOTAL CPU TIME =          6.6 (      0.1 MIN)
 TOTAL WALL CLOCK TIME=          6.7 SECONDS, CPU UTILIZATION IS    98.06%

 THE MINIMUM MEMORY REQUIRED FOR THIS RUN IS      88877 WORDS.
 USING     991233 WORDS FOR 2E- DERIVATIVE INTEGRAL CONTRIBUTIONS.
 THE COARSE/FINE SCHWARZ SCREENINGS SKIPPED          653/        1425 BLOCKS.
 THE NUMBER OF GRADIENT INTEGRAL BLOCKS COMPUTED WAS     19888
 ...... END OF 2-ELECTRON GRADIENT ......
 STEP CPU TIME =     0.16 TOTAL CPU TIME =          6.7 (      0.1 MIN)
 TOTAL WALL CLOCK TIME=          6.9 SECONDS, CPU UTILIZATION IS    97.96%

          NSERCH=  0     ENERGY=    -153.7171457

                                 -----------------------
                                 GRADIENT (HARTREE/BOHR)
                                 -----------------------
        ATOM     ZNUC       DE/DX         DE/DY         DE/DZ
 --------------------------------------------------------------
    1  C            6.0     0.0000514    -0.0000804     0.0000000
    2  C            6.0     0.0000061     0.0001086     0.0000000
    3  O            8.0    -0.0000995    -0.0000825     0.0000000
    4  H            1.0     0.0000418     0.0000126     0.0000000
    5  H            1.0     0.0000485    -0.0000552     0.0000000
    6  H            1.0     0.0000450     0.0000587     0.0000000
    7  H            1.0    -0.0000933     0.0000383     0.0000000

          MAXIMUM GRADIENT = 0.0001086    RMS GRADIENT = 0.0000537

 NSERCH:   0  E=     -153.7171456536  GRAD. MAX=  0.0001086  R.M.S.=  0.0000537

          FORCE CONSTANT MATRIX NOT UPDATED --- TAKING FIRST STEP
               NR STEP HAS LENGTH         =   0.002246
          RADIUS OF STEP TAKEN=   0.00225  CURRENT TRUST RADIUS=   0.30000

 BEGINNING GEOMETRY SEARCH POINT NSERCH=   1 ...

 COORDINATES OF ALL ATOMS ARE (ANGS)
   ATOM   CHARGE       X              Y              Z
 ------------------------------------------------------------
 C           6.0  -1.2564854451   0.2071479384  -0.0000000000
 C           6.0  -0.0829495506  -0.4284124664  -0.0000000000
 O           8.0   1.1593275100   0.1331710121   0.0000000000
 H           1.0   1.0631950197   1.1002181056   0.0000000000
 H           1.0  -0.0026077929  -1.5121359709  -0.0000000000
 H           1.0  -2.1815520499  -0.3574553219   0.0000000000
 H           1.0  -1.3306493047   1.2928144733   0.0000000000

          INTERNUCLEAR DISTANCES (ANGS.)
          ------------------------------

                1 C          2 C          3 O          4 H          5 H     

   1 C       0.0000000    1.3345874 *  2.4169453 *  2.4856572 *  2.1279442 *
   2 C       1.3345874 *  0.0000000    1.3633152 *  1.9105912 *  1.0866975 *
   3 O       2.4169453 *  1.3633152 *  0.0000000    0.9718135 *  2.0142315 *
   4 H       2.4856572 *  1.9105912 *  0.9718135 *  0.0000000    2.8214056 *
   5 H       2.1279442 *  1.0866975 *  2.0142315 *  2.8214056 *  0.0000000  
   6 H       1.0837551 *  2.0998017 *  3.3767130    3.5571330    2.4659857 *
   7 H       1.0881967 *  2.1258826 *  2.7467722 *  2.4015795 *  3.1034563  

                6 H          7 H     

   1 C       1.0837551 *  1.0881967 *
   2 C       2.0998017 *  2.1258826 *
   3 O       3.3767130    2.7467722 *
   4 H       3.5571330    2.4015795 *
   5 H       2.4659857 *  3.1034563  
   6 H       0.0000000    1.8567245 *
[...]
    1  C  1  S   -0.028821  -0.000000   0.000001  -0.034274  -0.009541
    2  C  1  S    0.058228  -0.000000   0.000004   0.072703   0.022795
    3  C  1  X    0.258000   0.000005  -0.000013  -0.036310  -0.163829
    4  C  1  Y   -0.054354   0.000009   0.000007   0.078048  -0.192051
    5  C  1  Z   -0.000072  -0.412050   0.378914  -0.000082   0.000000
    6  C  1  S    0.150782  -0.000009  -0.000060   0.202271   0.167251
    7  C  1  X    0.102612   0.000007  -0.000067  -0.316438  -0.474409
    8  C  1  Y   -0.049254   0.000007   0.000015   0.244938  -0.398333
    9  C  1  Z   -0.000041  -0.333343   0.612810  -0.000130  -0.000003
   10  C  1 XX   -0.001865   0.000001   0.000001  -0.008822  -0.016285
   11  C  1 YY   -0.006183   0.000000   0.000002   0.008286   0.015231
   12  C  1 ZZ   -0.001804  -0.000001  -0.000002  -0.003112   0.001010
   13  C  1 XY   -0.008258  -0.000000  -0.000003  -0.011988  -0.017474
   14  C  1 XZ   -0.000005  -0.011399  -0.023232   0.000006  -0.000002
   15  C  1 YZ    0.000002   0.006979   0.014918  -0.000002  -0.000000
   16  C  2  S    0.005839   0.000002   0.000004   0.009963  -0.056245
   17  C  2  S   -0.011287  -0.000007  -0.000011  -0.022847   0.097210
   18  C  2  X   -0.239309   0.000014  -0.000006  -0.090182  -0.053381
   19  C  2  Y    0.153866  -0.000009   0.000000  -0.041113  -0.315476
   20  C  2  Z   -0.000172  -0.294206  -0.488436   0.000092  -0.000018
   21  C  2  S   -0.040738  -0.000001   0.000006   0.124187   0.992023
   22  C  2  X    0.013772   0.000000  -0.000039  -0.322554  -0.121173
   23  C  2  Y    0.018530   0.000007   0.000053   0.054212  -0.698846
   24  C  2  Z   -0.000098  -0.183570  -0.643198   0.000118  -0.000034
   25  C  2 XX    0.011723  -0.000004   0.000000   0.001516   0.017294
   26  C  2 YY   -0.018857   0.000002   0.000002   0.004768  -0.021809
   27  C  2 ZZ    0.003623   0.000002  -0.000002  -0.005552  -0.004845
   28  C  2 XY   -0.017853   0.000001   0.000003   0.010268   0.012025
   29  C  2 XZ   -0.000006   0.030001  -0.011279   0.000001   0.000001
   30  C  2 YZ   -0.000006  -0.002096   0.019212  -0.000003   0.000001
   31  O  3  S   -0.064363  -0.000003  -0.000020  -0.085662  -0.005316
   32  O  3  S    0.133701   0.000006   0.000029   0.116875   0.036407
   33  O  3  X    0.393722  -0.000019  -0.000024  -0.080829  -0.088487
   34  O  3  Y   -0.267694   0.000044   0.000078   0.291552  -0.027191
   35  O  3  Z   -0.000239   0.359502   0.219131  -0.000100   0.000012
   36  O  3  S    0.277953   0.000013   0.000228   1.059770  -0.001400
   37  O  3  X    0.271311  -0.000016  -0.000031  -0.137387  -0.123294
   38  O  3  Y   -0.157100   0.000034   0.000116   0.462858  -0.009574
   39  O  3  Z   -0.000173   0.297354   0.257997  -0.000152   0.000021
   40  O  3 XX   -0.017310   0.000001  -0.000008  -0.034051   0.002232
   41  O  3 YY   -0.015688   0.000002  -0.000006  -0.023931   0.011868
   42  O  3 ZZ    0.002271  -0.000005  -0.000011  -0.041289   0.007950
   43  O  3 XY    0.016687  -0.000002  -0.000004  -0.010156   0.008977
   44  O  3 XZ    0.000010  -0.005096   0.008913   0.000001  -0.000000
   45  O  3 YZ   -0.000002   0.011931   0.018624  -0.000008  -0.000000
   46  H  4  S   -0.149491  -0.000012  -0.000050  -0.141964   0.034676
   47  H  4  S   -0.108703  -0.000005  -0.000294  -1.367498   0.197989
   48  H  5  S   -0.132158   0.000012   0.000018   0.051172  -0.088572
   49  H  5  S   -0.136975   0.000021   0.000076   0.150782  -1.506591
   50  H  6  S   -0.104784  -0.000000  -0.000005  -0.063950  -0.074295
   51  H  6  S   -0.122620   0.000004  -0.000024  -0.366355  -1.039674
   52  H  7  S   -0.024206  -0.000001   0.000016   0.043991   0.063618
   53  H  7  S   -0.041525   0.000007  -0.000003  -0.358465   0.619266

                     16         17         18         19         20
                    0.1466     0.1893     0.2882     0.3667     0.5076
                     A          A          A          A          A   
    1  C  1  S    0.112901   0.074602  -0.041499   0.071900  -0.000014
    2  C  1  S   -0.151065  -0.116807   0.070974   0.013049  -0.259558
    3  C  1  X    0.153085   0.110048   0.156373  -0.046733  -0.495295
    4  C  1  Y   -0.183960   0.197331   0.228529   0.087152   0.266030
    5  C  1  Z   -0.000021  -0.000003   0.000021   0.000019  -0.000008
    6  C  1  S   -1.989038  -1.079545   0.497238  -3.038210  -0.634956
    7  C  1  X    0.316931   0.301334   1.178904  -2.632436   0.432773
    8  C  1  Y   -0.545068   0.982240   1.080231   1.521913  -0.203998
    9  C  1  Z   -0.000053   0.000010   0.000056  -0.000096  -0.000000
   10  C  1 XX   -0.003740   0.012308  -0.027965   0.014665  -0.022800
   11  C  1 YY    0.019552  -0.008347   0.038763  -0.015507  -0.004035
   12  C  1 ZZ    0.006179   0.006180  -0.006559   0.011117  -0.002559
   13  C  1 XY   -0.004604  -0.002958  -0.006098  -0.034849   0.037774
   14  C  1 XZ    0.000001   0.000000  -0.000002   0.000000   0.000000
   15  C  1 YZ   -0.000000   0.000000  -0.000001  -0.000003   0.000001
   16  C  2  S    0.021563  -0.118841   0.077720  -0.057963  -0.054173
   17  C  2  S   -0.038565   0.190863  -0.068388   0.084992  -0.021062
   18  C  2  X   -0.158999   0.116801  -0.170898  -0.258220   0.565626
   19  C  2  Y    0.004078  -0.089015  -0.300096   0.208058   0.087065
   20  C  2  Z    0.000013  -0.000000  -0.000010   0.000007   0.000035
   21  C  2  S   -0.375659   1.874653  -1.472112   2.852702  -0.023222
   22  C  2  X   -0.510789  -0.030760  -1.095113  -2.611855  -1.626196
   23  C  2  Y    0.170331  -0.593817  -1.465528   1.251830   0.188691
   24  C  2  Z    0.000025  -0.000012  -0.000051  -0.000113  -0.000060
   25  C  2 XX    0.005575  -0.036627   0.006889   0.004516  -0.114847
   26  C  2 YY   -0.005863   0.011498   0.005888   0.001640  -0.013547
   27  C  2 ZZ   -0.006706   0.003861  -0.015911  -0.005350   0.039094
   28  C  2 XY    0.018789  -0.017279   0.000878   0.009838   0.024485
   29  C  2 XZ    0.000001  -0.000002   0.000002   0.000000  -0.000009
   30  C  2 YZ   -0.000000  -0.000001  -0.000000   0.000001   0.000001
   31  O  3  S   -0.048835   0.022437  -0.069662  -0.013734  -0.007936
   32  O  3  S    0.073723  -0.080786   0.068255   0.011512  -0.094997
   33  O  3  X   -0.079661   0.202331  -0.224949  -0.011798   0.258074
   34  O  3  Y   -0.001940   0.152159  -0.215810  -0.173164   0.001154
   35  O  3  Z   -0.000032  -0.000005   0.000020   0.000022  -0.000005
   36  O  3  S    0.614412  -0.088222   1.236502   0.343429   0.760094
   37  O  3  X   -0.203362   0.241250  -0.778886  -0.045264  -0.143555
   38  O  3  Y   -0.047024   0.297588  -0.422993  -0.499547  -0.145910
   39  O  3  Z   -0.000042  -0.000014   0.000012   0.000024  -0.000011
   40  O  3 XX   -0.009051  -0.000913  -0.015950   0.006141   0.064403
   41  O  3 YY   -0.021569  -0.004382  -0.023635  -0.028871  -0.068196
   42  O  3 ZZ   -0.017272  -0.006709  -0.043820  -0.000325  -0.037754
   43  O  3 XY   -0.006222   0.011614   0.006236   0.014182   0.052915
   44  O  3 XZ    0.000001  -0.000001   0.000003  -0.000001   0.000002
   45  O  3 YZ    0.000000  -0.000001  -0.000002   0.000002   0.000008
   46  H  4  S   -0.064754  -0.039950   0.065294  -0.010833  -0.201215
   47  H  4  S   -0.331824  -0.329233   0.521518   0.575032   0.171440
   48  H  5  S   -0.016813  -0.021577   0.036938   0.006736  -0.063403
   49  H  5  S    0.313687  -1.459761  -0.733171   0.700497   0.202126
   50  H  6  S    0.009501   0.061045  -0.071088  -0.136776   0.018866
   51  H  6  S    0.835094   1.475142   1.228513  -0.411936  -0.086644
   52  H  7  S    0.107813  -0.007940   0.094595  -0.078227   0.064945
   53  H  7  S    1.685902  -0.509297  -1.288539  -0.676361   0.079216

                     21         22
                    0.5490     0.6158
                     A          A   
    1  C  1  S   -0.000000  -0.000664
    2  C  1  S    0.000001  -0.531126
    3  C  1  X    0.000009  -0.252922
    4  C  1  Y    0.000018   0.205625
    5  C  1  Z   -0.708037   0.000015
    6  C  1  S   -0.000061   0.352948
    7  C  1  X   -0.000072  -0.237841
    8  C  1  Y    0.000046  -0.275460
    9  C  1  Z    0.559321  -0.000025
   10  C  1 XX    0.000004  -0.079121
   11  C  1 YY   -0.000001  -0.040610
   12  C  1 ZZ   -0.000002   0.019295
   13  C  1 XY   -0.000003  -0.044850
   14  C  1 XZ   -0.043063  -0.000002
   15  C  1 YZ    0.021199  -0.000002
   16  C  2  S   -0.000000  -0.026785
   17  C  2  S   -0.000012  -0.924410
   18  C  2  X    0.000020  -0.445838
   19  C  2  Y    0.000005  -0.381083
   20  C  2  Z   -0.732637  -0.000010
   21  C  2  S    0.000064   1.774848
   22  C  2  X   -0.000124   0.581640
   23  C  2  Y    0.000017   0.881650
   24  C  2  Z    0.770613   0.000006
   25  C  2 XX   -0.000002  -0.051683
   26  C  2 YY   -0.000001  -0.114168
   27  C  2 ZZ    0.000002   0.016174
   28  C  2 XY    0.000005   0.087493
   29  C  2 XZ    0.030164  -0.000007
   30  C  2 YZ   -0.038890   0.000004
   31  O  3  S   -0.000000  -0.002839
   32  O  3  S   -0.000018  -0.000580
   33  O  3  X   -0.000004  -0.158858
   34  O  3  Y   -0.000034  -0.002537
   35  O  3  Z   -0.118841  -0.000026
   36  O  3  S    0.000039  -0.567456
   37  O  3  X   -0.000002   0.271384
   38  O  3  Y   -0.000007   0.064078
   39  O  3  Z   -0.050399   0.000008
   40  O  3 XX   -0.000008  -0.093966
   41  O  3 YY   -0.000005  -0.028546
   42  O  3 ZZ   -0.000005   0.066994
   43  O  3 XY   -0.000001  -0.096113
   44  O  3 XZ    0.024564  -0.000002
   45  O  3 YZ    0.015312   0.000003
   46  H  4  S    0.000001  -0.045181
   47  H  4  S    0.000054  -0.303112
   48  H  5  S   -0.000002  -0.310043
   49  H  5  S    0.000021   0.192942
   50  H  6  S   -0.000012  -0.241658
   51  H  6  S   -0.000009  -0.065400
   52  H  7  S   -0.000013  -0.145755
   53  H  7  S   -0.000042  -0.037976

     ---------------------------------------------------------------------
     PROPERTIES FOR THE B3LYP    DFT FUNCTIONAL (RHF  TYPE) DENSITY MATRIX
     ---------------------------------------------------------------------

          -----------------
          ENERGY COMPONENTS
          -----------------

         WAVEFUNCTION NORMALIZATION =       1.0000000000

                ONE ELECTRON ENERGY =    -346.9856616039
                TWO ELECTRON ENERGY =     123.1647503889
           NUCLEAR REPULSION ENERGY =      70.1037653885
                                      ------------------
                       TOTAL ENERGY =    -153.7171458265

 ELECTRON-ELECTRON POTENTIAL ENERGY =     123.1647503889
  NUCLEUS-ELECTRON POTENTIAL ENERGY =    -499.3759313453
   NUCLEUS-NUCLEUS POTENTIAL ENERGY =      70.1037653885
                                      ------------------
             TOTAL POTENTIAL ENERGY =    -306.1074155679
               TOTAL KINETIC ENERGY =     152.3902697414
                 VIRIAL RATIO (V/T) =       2.0087070919

          ---------------------------------------
          MULLIKEN AND LOWDIN POPULATION ANALYSES
          ---------------------------------------

     ATOMIC MULLIKEN POPULATION IN EACH MOLECULAR ORBITAL

                      1          2          3          4          5

                  2.000000   2.000000   2.000000   2.000000   2.000000

    1            -0.000005   0.001308   1.997934   0.026918   0.866277
    2            -0.000469   1.998778   0.001245   0.235767   0.735652
    3             2.000600  -0.000510  -0.000002   1.624832   0.179284
    4            -0.000126   0.000004   0.000001   0.110832   0.029807
    5            -0.000000   0.000409   0.000004   0.001064   0.055106
    6             0.000000  -0.000003   0.000399   0.000802   0.077050
    7            -0.000001   0.000014   0.000420  -0.000216   0.056824

                      6          7          8          9         10

                  2.000000   2.000000   2.000000   2.000000   2.000000

    1             0.326679   0.528130   0.585461   0.119095   0.631715
    2             0.487144   0.484092   0.431729   0.536625   0.230208
    3             0.686915   0.416941   0.547425   1.344259   0.134581
    4             0.203483   0.117128   0.006382   0.000001   0.028369
    5             0.132556   0.155364   0.123348   0.000006   0.255203
    6             0.064725   0.023318   0.305604   0.000005   0.285897
    7             0.098499   0.275026   0.000052   0.000009   0.434027

                     11         12

                  2.000000   2.000000

    1             0.274095   1.041704
    2             0.257519   0.449339
    3             1.134556   0.508957
    4             0.100758   0.000000
    5             0.125950   0.000000
    6             0.097057   0.000000
    7             0.010065   0.000000

               ----- POPULATIONS IN EACH AO -----
                             MULLIKEN      LOWDIN
              1  C  1  S      1.99160     1.97920
              2  C  1  S      0.68790     0.36277
              3  C  1  X      0.74340     0.65519
              4  C  1  Y      0.72192     0.63479
              5  C  1  Z      0.62810     0.59153
              6  C  1  S      0.57614     0.33665
              7  C  1  X      0.26386     0.39073
              8  C  1  Y      0.24796     0.43852
              9  C  1  Z      0.52799     0.55695
             10  C  1 XX      0.00942     0.18043
             11  C  1 YY      0.01374     0.17254
             12  C  1 ZZ     -0.02634     0.10310
             13  C  1 XY      0.00891     0.01827
             14  C  1 XZ      0.00368     0.00659
             15  C  1 YZ      0.00103     0.00186
             16  C  2  S      1.99171     1.97711
             17  C  2  S      0.71552     0.36108
             18  C  2  X      0.68455     0.59407
             19  C  2  Y      0.74012     0.65081
             20  C  2  Z      0.57454     0.51497
             21  C  2  S      0.42936     0.29706
             22  C  2  X      0.08859     0.26640
             23  C  2  Y      0.19778     0.37496
             24  C  2  Z      0.39195     0.44444
             25  C  2 XX      0.00984     0.19117
             26  C  2 YY      0.01426     0.17830
             27  C  2 ZZ     -0.02752     0.09913
             28  C  2 XY      0.01746     0.03555
             29  C  2 XZ      0.01745     0.03857
             30  C  2 YZ      0.00202     0.00357
             31  O  3  S      1.99237     1.97596
             32  O  3  S      0.90781     0.71407
             33  O  3  X      0.94553     0.88755
             34  O  3  Y      0.87002     0.80224
             35  O  3  Z      1.11253     1.08086
             36  O  3  S      0.95359     0.45131
             37  O  3  X      0.56305     0.60792
             38  O  3  Y      0.46602     0.55001
             39  O  3  Z      0.73517     0.75062
             40  O  3 XX      0.00317     0.17680
             41  O  3 YY      0.02979     0.20050
             42  O  3 ZZ     -0.01115     0.15927
             43  O  3 XY      0.00439     0.00889
             44  O  3 XZ      0.00508     0.00853
             45  O  3 YZ      0.00046     0.00152
             46  H  4  S      0.47436     0.43337
             47  H  4  S      0.12228     0.21364
             48  H  5  S      0.53409     0.49190
             49  H  5  S      0.31492     0.35027
             50  H  6  S      0.52489     0.47474
             51  H  6  S      0.32996     0.35493
             52  H  7  S      0.52633     0.47934
             53  H  7  S      0.34839     0.36949

          ----- MULLIKEN ATOMIC OVERLAP POPULATIONS -----
          (OFF-DIAGONAL ELEMENTS NEED TO BE MULTIPLIED BY 2)

             1           2           3           4           5

    1    5.1411270
    2    0.6462369   4.5737602
    3   -0.0492132   0.3263959   8.1135727
    4   -0.0061060  -0.0329925   0.2385680   0.3830084
    5   -0.0595661   0.3841243  -0.0479430   0.0073936   0.5636809
    6    0.3604170  -0.0133492   0.0029208  -0.0000438  -0.0035125
    7    0.3664158  -0.0365458  -0.0064615   0.0068119   0.0048319

             6           7

    6    0.5447778
    7   -0.0363575   0.5760227

          TOTAL MULLIKEN AND LOWDIN ATOMIC POPULATIONS
       ATOM         MULL.POP.    CHARGE          LOW.POP.     CHARGE
    1 C             6.399311   -0.399311         6.429107   -0.429107
    2 C             5.847630    0.152370         6.027184   -0.027184
    3 O             8.577840   -0.577840         8.376037   -0.376037
    4 H             0.596640    0.403360         0.647011    0.352989
    5 H             0.849009    0.150991         0.842172    0.157828
    6 H             0.854853    0.145147         0.829665    0.170335
    7 H             0.874718    0.125282         0.848824    0.151176

          -------------------------------
          BOND ORDER AND VALENCE ANALYSIS     BOND ORDER THRESHOLD=0.050
          -------------------------------

                   BOND                       BOND                       BOND
  ATOM PAIR DIST  ORDER      ATOM PAIR DIST  ORDER      ATOM PAIR DIST  ORDER
    1   2  1.334  1.891        1   3  2.417  0.099        1   6  1.084  0.934
    1   7  1.088  0.938        2   3  1.363  1.056        2   5  1.087  0.936
    3   4  0.972  0.779

                       TOTAL       BONDED        FREE
      ATOM            VALENCE     VALENCE     VALENCE
    1 C                 3.851       3.851       0.000
    2 C                 3.887       3.887      -0.000
    3 O                 1.940       1.940       0.000
    4 H                 0.806       0.806      -0.000
    5 H                 0.934       0.934       0.000
    6 H                 0.946       0.946       0.000
    7 H                 0.945       0.945       0.000

          ---------------------
          ELECTROSTATIC MOMENTS
          ---------------------

 POINT   1           X           Y           Z (BOHR)    CHARGE
                -0.000018   -0.000010    0.000060        0.00 (A.U.)
         DX          DY          DZ         /D/  (DEBYE)
    -0.452117    0.892372   -0.000296    1.000368
 ...... END OF PROPERTY EVALUATION ......
 STEP CPU TIME =     0.02 TOTAL CPU TIME =        134.5 (      2.2 MIN)
 TOTAL WALL CLOCK TIME=        136.0 SECONDS, CPU UTILIZATION IS    98.91%
  $VIB   
          IVIB=   0 IATOM=   0 ICOORD=   0 E=     -153.7171458265
  1.323816860E-06-1.491734185E-05-2.347790435E-06-2.426463315E-06 1.682201554E-05
  2.255450106E-06 1.776212462E-06-3.285211694E-05 2.957208980E-06-8.087014872E-06
  2.907395342E-05-2.703710640E-06 2.067518882E-06-6.235610720E-06-2.059893843E-06
  1.220505906E-06 5.821106358E-06 9.343225744E-07 4.125424077E-06 2.287994198E-06
  9.644132576E-07
 -4.521165913E-01 8.923717777E-01-2.959520129E-04
 ......END OF GEOMETRY SEARCH......
 STEP CPU TIME =     0.00 TOTAL CPU TIME =        134.5 (      2.2 MIN)
 TOTAL WALL CLOCK TIME=        136.0 SECONDS, CPU UTILIZATION IS    98.90%
                991401  WORDS OF DYNAMIC MEMORY USED
 EXECUTION OF GAMESS TERMINATED NORMALLY Wed Oct 16 08:32:00 2019
 DDI: 263640 bytes (0.3 MB / 0 MWords) used by master data server.

 ----------------------------------------
 CPU timing information for all processes
 ========================================
 0: 132.591 + 1.919 = 134.510
 ----------------------------------------
 ddikick.x: exited gracefully.
----- accounting info -----
Files used on the master node crcfe02.crc.nd.edu were:
-rw-r--r-- 1 cdrisko campus      524 Oct 16 08:29 /afs/crc.nd.edu/user/c/cdrisko/vinylAlcohol_opt2.F05
-rw-r--r-- 1 cdrisko campus   340659 Oct 16 08:32 /afs/crc.nd.edu/user/c/cdrisko/vinylAlcohol_opt2.F07
-rw-r--r-- 1 cdrisko campus 11160992 Oct 16 08:31 /afs/crc.nd.edu/user/c/cdrisko/vinylAlcohol_opt2.F08
-rw-r--r-- 1 cdrisko campus  1701440 Oct 16 08:32 /afs/crc.nd.edu/user/c/cdrisko/vinylAlcohol_opt2.F10
-rw-r--r-- 1 cdrisko campus  2039576 Oct 16 08:31 /afs/crc.nd.edu/user/c/cdrisko/vinylAlcohol_opt2.F22
Wed Oct 16 08:32:03 EDT 2019
0.457u 0.247s 2:19.68 0.4%	0+0k 0+24io 0pf+0w
