----- GAMESS execution script 'rungms' -----
This job is running on host crcfe02.crc.nd.edu
under operating system Linux at Sun Sep 29 10:46:05 EDT 2019
Available scratch disk space (Kbyte units) at beginning of the job is
Filesystem      1K-blocks  Used  Available Use% Mounted on
AFS            2147483647     0 2147483647   0% /afs
GAMESS temporary binary files will be written to /afs/crc.nd.edu/user/c/cdrisko
GAMESS supplementary output files will be written to /afs/crc.nd.edu/user/c/cdrisko/scr
Copying input file SO2.inp to your run's scratch directory...

 Distributed Data Interface kickoff program.
 Initiating 1 compute processes on 1 nodes to run the following command:
 /afs/crc.nd.edu/x86_64_linux/g/gamess/nov-2017/gamess/gamess.00.x SO2 

          ******************************************************
          *         GAMESS VERSION = 11 NOV 2017 (R3)         *
          *             FROM IOWA STATE UNIVERSITY             *
          * M.W.SCHMIDT, K.K.BALDRIDGE, J.A.BOATZ, S.T.ELBERT, *
          *   M.S.GORDON, J.H.JENSEN, S.KOSEKI, N.MATSUNAGA,   *
          *          K.A.NGUYEN, S.J.SU, T.L.WINDUS,           *
          *       TOGETHER WITH M.DUPUIS, J.A.MONTGOMERY       *
          *         J.COMPUT.CHEM.  14, 1347-1363(1993)        *
          **************** 64 BIT INTEL VERSION ****************

  SINCE 1993, STUDENTS AND POSTDOCS WORKING AT IOWA STATE UNIVERSITY
  AND ALSO IN THEIR VARIOUS JOBS AFTER LEAVING ISU HAVE MADE IMPORTANT
  CONTRIBUTIONS TO THE CODE:
     IVANA ADAMOVIC, CHRISTINE AIKENS, YURI ALEXEEV, POOJA ARORA,
     ANDREY ASADCHEV, ROB BELL, PRADIPTA BANDYOPADHYAY, JONATHAN BENTZ,
     BRETT BODE, KURT BRORSEN, CALEB CARLIN, GALINA CHABAN, WEI CHEN,
     CHEOL HO CHOI, PAUL DAY, ALBERT DEFUSCO, NUWAN DESILVA, TIM DUDLEY,
     DMITRI FEDOROV, ALEX FINDLATER, GRAHAM FLETCHER, MARK FREITAG,
     KURT GLAESEMANN, ANASTASIA GUININA,
     DAN KEMP, GRANT MERRILL, NORIYUKI MINEZAWA, JONATHAN MULLIN,
     TAKESHI NAGATA, SEAN NEDD, HEATHER NETZLOFF, BOSILJKA NJEGIC, RYAN OLSON,
     MIKE PAK, BUU PHAM,
     SPENCER PRUITT, LUKE ROSKOP, JIM SHOEMAKER, LYUDMILA SLIPCHENKO,
     TONY SMITH, SAROM SOK LEANG, JIE SONG, TETSUYA TAKETSUGU, SIMON WEBB,
     PENG XU, SOOHAENG YOO, FEDERICO ZAHARIEV

  ADDITIONAL CODE HAS BEEN PROVIDED BY COLLABORATORS IN OTHER GROUPS:
     IOWA STATE UNIVERSITY:
          JOE IVANIC, AARON WEST, LAIMUTIS BYTAUTAS, KLAUS RUEDENBERG
     UNIVERSITY OF TOKYO: KIMIHIKO HIRAO, TAKAHITO NAKAJIMA,
          TAKAO TSUNEDA, MUNEAKI KAMIYA, SUSUMU YANAGISAWA,
          KIYOSHI YAGI, MAHITO CHIBA, SEIKEN TOKURA, NAOAKI KAWAKAMI
     UNIVERSITY OF AARHUS: FRANK JENSEN
     UNIVERSITY OF IOWA: VISVALDAS KAIRYS, HUI LI
     NATIONAL INST. OF STANDARDS AND TECHNOLOGY: WALT STEVENS, DAVID GARMER
     UNIVERSITY OF PISA: BENEDETTA MENNUCCI, JACOPO TOMASI
     UNIVERSITY OF MEMPHIS: HENRY KURTZ, PRAKASHAN KORAMBATH
     UNIVERSITY OF ALBERTA: TOBY ZENG, MARIUSZ KLOBUKOWSKI
     UNIVERSITY OF NEW ENGLAND: MARK SPACKMAN
     MIE UNIVERSITY: HIROAKI UMEDA
     NAT. INST. OF ADVANCED INDUSTRIAL SCIENCE AND TECHNOLOGY: KAZUO KITAURA
     MICHIGAN STATE UNIVERSITY:
          KAROL KOWALSKI, MARTA WLOCH, JEFFREY GOUR, JESSE LUTZ,
          WEI LI, PIOTR PIECUCH
     UNIVERSITY OF SILESIA: MONIKA MUSIAL, STANISLAW KUCHARSKI
     FACULTES UNIVERSITAIRES NOTRE-DAME DE LA PAIX:
          OLIVIER QUINET, BENOIT CHAMPAGNE
     UNIVERSITY OF CALIFORNIA - SANTA BARBARA: BERNARD KIRTMAN
     INSTITUTE FOR MOLECULAR SCIENCE:
          KAZUYA ISHIMURA, MICHIO KATOUDA, AND SHIGERU NAGASE
     UNIVERSITY OF NOTRE DAME: ANNA POMOGAEVA, DAN CHIPMAN
     KYUSHU UNIVERSITY:
          HARUYUKI NAKANO,
          FENG LONG GU, JACEK KORCHOWIEC, MARCIN MAKOWSKI, AND YURIKO AOKI,
          HIROTOSHI MORI AND EISAKU MIYOSHI
     PENNSYLVANIA STATE UNIVERSITY:
          TZVETELIN IORDANOV, CHET SWALINA, JONATHAN SKONE,
          SHARON HAMMES-SCHIFFER
     WASEDA UNIVERSITY:
          MASATO KOBAYASHI, TOMOKO AKAMA, TSUGUKI TOUMA,
          TAKESHI YOSHIKAWA, YASUHIRO IKABATA, JUNJI SEINO,
          YUYA NAKAJIMA, HIROMI NAKAI
     NANJING UNIVERSITY: SHUHUA LI
     UNIVERSITY OF NEBRASKA:
          PEIFENG SU, DEJUN SI, NANDUN THELLAMUREGE, YALI WANG, HUI LI
     UNIVERSITY OF ZURICH: ROBERTO PEVERATI, KIM BALDRIDGE
     N. COPERNICUS UNIVERSITY AND JACKSON STATE UNIVERSITY:
          MARIA BARYSZ
     UNIVERSITY OF COPENHAGEN: Jimmy Kromann, CASPER STEINMANN
     TOKYO INSTITUTE OF TECHNOLOGY: HIROYA NAKATA
     NAGOYA UNIVERSITY: YOSHIO NISHIMOTO, STEPHAN IRLE
     MOSCOW STATE UNIVERSITY: VLADIMIR MIRONOV

 EXECUTION OF GAMESS BEGUN Sun Sep 29 10:46:06 2019

            ECHO OF THE FIRST FEW INPUT CARDS -
 INPUT CARD> $BASIS GBASIS=PCSEG-1 $END                                                     
 INPUT CARD> $CONTRL COORD=ZMT ISPHER=1 RUNTYP=ENERGY DFTTYP=PBE MULT=1 $END                
 INPUT CARD>                                                                                
 INPUT CARD> $DATA                                                                          
 INPUT CARD>Title SO2 single-point calculation template with Z-Matrix                       
 INPUT CARD>C1                                                                              
 INPUT CARD>S                                                                               
 INPUT CARD>O 1 1.40                                                                        
 INPUT CARD>O 1 1.40 2 130                                                                  
 INPUT CARD> $END                                                                           
    1000000 WORDS OF MEMORY AVAILABLE

     BASIS OPTIONS
     -------------
     GBASIS=PCSEG-1      IGAUSS=       0      POLAR=NONE    
     NDFUNC=       0     NFFUNC=       0     DIFFSP=       F
     NPFUNC=       0      DIFFS=       F     BASNAM=        


     RUN TITLE
     ---------
 Title SO2 single-point calculation template with Z-Matrix                       

 THE POINT GROUP OF THE MOLECULE IS C1      
 THE ORDER OF THE PRINCIPAL AXIS IS     0

 YOUR FULLY SUBSTITUTED Z-MATRIX IS
 S   
 O      1   1.4000000
 O      1   1.4000000  2  130.0000

 THE MOMENTS OF INERTIA ARE (AMU-ANGSTROM**2)
 IXX=     5.598   IYY=    51.501   IZZ=    57.099

 ATOM      ATOMIC                      COORDINATES (BOHR)
           CHARGE         X                   Y                   Z
 S          16.0     0.0000000000       -0.5591980379        0.0000000000
 O           8.0     2.3977427293        0.5588877590        0.0000000000
 O           8.0    -2.3977427293        0.5588877590        0.0000000000

          INTERNUCLEAR DISTANCES (ANGS.)
          ------------------------------

                1 S          2 O          3 O     

   1 S       0.0000000    1.4000000 *  1.4000000 *
   2 O       1.4000000 *  0.0000000    2.5376618 *
   3 O       1.4000000 *  2.5376618 *  0.0000000  

  * ... LESS THAN  3.000


     ATOMIC BASIS SET
     ----------------
 THE CONTRACTED PRIMITIVE FUNCTIONS HAVE BEEN UNNORMALIZED
 THE CONTRACTED BASIS FUNCTIONS ARE NOW NORMALIZED TO UNITY

  SHELL TYPE  PRIMITIVE        EXPONENT          CONTRACTION COEFFICIENT(S)

 S         

      1   S       1         49299.4000000    0.000677492991
      1   S       2          7395.8400000    0.005232317766
      1   S       3          1683.3000000    0.026769459077
      1   S       4           476.1440000    0.102869580705
      1   S       5           154.3290000    0.286438127414
      1   S       6            55.0288000    0.454278639081
      1   S       7            20.5029000    0.271743121997

      2   S       8            45.9596000   -0.088421914560
      2   S       9             4.9274000    0.564350486135
      2   S      10             1.9179900    0.505415953466

      3   S      11             0.3684980    1.000000000000

      4   S      12             0.1291650    1.000000000000

      5   P      13           451.6620000    0.003707705453
      5   P      14           106.0980000    0.029219352245
      5   P      15            33.6996000    0.124444551509
      5   P      16            12.3054000    0.321808587656
      5   P      17             4.7141200    0.462822172957
      5   P      18             1.7810500    0.266513371364

      6   P      19             0.8722350    0.349265132972
      6   P      20             0.3102780    0.717115018770

      7   P      21             0.1001940    1.000000000000

      8   D      22             0.5500000    1.000000000000

 O         

      9   S      23          2288.6400000    0.005451138222
      9   S      24           344.4160000    0.040718922842
      9   S      25            78.2538000    0.181369420873
      9   S      26            21.7195000    0.465536820246
      9   S      27             6.5590700    0.451211321214

     10   S      28            10.4656000   -0.150211201174
     10   S      29             0.9643510    1.052867983385

     11   S      30             0.2851270    1.000000000000

     12   P      31            17.0590000    0.068749256972
     12   P      32             3.6899900    0.351671941499
     12   P      33             0.9929960    0.724532099722

     13   P      34             0.2449240    1.000000000000

     14   D      35             1.0000000    1.000000000000

 O         

     15   S      36          2288.6400000    0.005451138222
     15   S      37           344.4160000    0.040718922842
     15   S      38            78.2538000    0.181369420873
     15   S      39            21.7195000    0.465536820246
     15   S      40             6.5590700    0.451211321214

     16   S      41            10.4656000   -0.150211201174
     16   S      42             0.9643510    1.052867983385

     17   S      43             0.2851270    1.000000000000

     18   P      44            17.0590000    0.068749256972
     18   P      45             3.6899900    0.351671941499
     18   P      46             0.9929960    0.724532099722

     19   P      47             0.2449240    1.000000000000

     20   D      48             1.0000000    1.000000000000

 TOTAL NUMBER OF BASIS SET SHELLS             =   20
 NUMBER OF CARTESIAN GAUSSIAN BASIS FUNCTIONS =   49
 NOTE: THIS RUN WILL RESTRICT THE MO VARIATION SPACE TO SPHERICAL HARMONICS.
 THE NUMBER OF ORBITALS KEPT IN THE VARIATIONAL SPACE WILL BE PRINTED LATER.
 NUMBER OF ELECTRONS                          =   32
 CHARGE OF MOLECULE                           =    0
 SPIN MULTIPLICITY                            =    1
 NUMBER OF OCCUPIED ORBITALS (ALPHA)          =   16
 NUMBER OF OCCUPIED ORBITALS (BETA )          =   16
 TOTAL NUMBER OF ATOMS                        =    3
 THE NUCLEAR REPULSION ENERGY IS      110.1097253931

     LEBEDEV GRID-BASED DFT OPTIONS
     ------------------------------
     DFTTYP=PBE     
     NRAD  =      96     NLEB  =     302
     NRAD0 =      24     NLEB0 =     110
     SWOFF =    5.00E-03 (PURE SCF -> DFT)
     SWITCH=    3.00E-04 (COARSE -> TIGHT GRID)
     THRESH=    0.00E+00 GTHRE=    1.00E+00

 GRIMME'S EMPIRICAL DISPERSION CORRECTION= F

     $CONTRL OPTIONS
     ---------------
 SCFTYP=RHF          RUNTYP=ENERGY       EXETYP=RUN     
 MPLEVL=       0     CITYP =NONE         CCTYP =NONE         VBTYP =NONE    
 DFTTYP=PBE          TDDFT =NONE    
 MULT  =       1     ICHARG=       0     NZVAR =       0     COORD =ZMT     
 PP    =NONE         RELWFN=NONE         LOCAL =NONE         NUMGRD=       F
 ISPHER=       1     NOSYM =       0     MAXIT =      30     UNITS =ANGS    
 PLTORB=       F     MOLPLT=       F     AIMPAC=       F     FRIEND=        
 NPRINT=       7     IREST =       0     GEOM  =INPUT   
 NORMF =       0     NORMP =       0     ITOL  =      20     ICUT  =       9
 INTTYP=BEST         GRDTYP=BEST         QMTTOL= 1.0E-06

     $SYSTEM OPTIONS
     ---------------
  REPLICATED MEMORY=     1000000 WORDS (ON EVERY NODE).
 DISTRIBUTED MEMDDI=           0 MILLION WORDS IN AGGREGATE,
 MEMDDI DISTRIBUTED OVER   1 PROCESSORS IS           0 WORDS/PROCESSOR.
 TOTAL MEMORY REQUESTED ON EACH PROCESSOR=     1000000 WORDS.
 TIMLIM=      525600.00 MINUTES, OR     365.0 DAYS.
 PARALL= F  BALTYP=  DLB     KDIAG=    0  COREFL= F
 MXSEQ2=     300 MXSEQ3=     150  mem10=         0

          ----------------
          PROPERTIES INPUT
          ----------------

     MOMENTS            FIELD           POTENTIAL          DENSITY
 IEMOM =       1   IEFLD =       0   IEPOT =       0   IEDEN =       0
 WHERE =COMASS     WHERE =NUCLEI     WHERE =NUCLEI     WHERE =NUCLEI  
 OUTPUT=BOTH       OUTPUT=BOTH       OUTPUT=BOTH       OUTPUT=BOTH    
 IEMINT=       0   IEFINT=       0                     IEDINT=       0
                                                       MORB  =       0
          EXTRAPOLATION IN EFFECT
          DIIS IN EFFECT
 ORBITAL PRINTING OPTION: NPREO=     1    49     2     1

     -------------------------------
     INTEGRAL TRANSFORMATION OPTIONS
     -------------------------------
     NWORD  =            0
     CUTOFF = 1.0E-09     MPTRAN =       0
     DIRTRF =       F     AOINTS =DUP     

          ----------------------
          INTEGRAL INPUT OPTIONS
          ----------------------
 NOPK  =       1 NORDER=       0 SCHWRZ=       F

   --- ENCODED Z MATRIX ---
 COORD  TYPE   I   J   K   L   M   N
    1      1    2   1
    2      1    3   1
    3      2    3   1   2

 THE DETERMINANT OF THE G MATRIX IS 10**(    -4)

 THE DETERMINANT OF THE G MATRIX IS 10**(    -4)
 * * * WARNING * * *
 YOUR B MATRIX HAS A SMALL DETERMINANT.
 THIS SUGGESTS YOU MAY HAVE BADLY CHOSEN COORDINATES.

     ------------------------------------------
     THE POINT GROUP IS C1 , NAXIS= 0, ORDER= 1
     ------------------------------------------

 -- VARIATIONAL SPACE WILL BE RESTRICTED TO PURE SPHERICAL HARMONICS ONLY --
 AFTER EXCLUDING CONTAMINANT COMBINATIONS FROM THE CARTESIAN GAUSSIAN BASIS
 SET, THE NUMBER OF SPHERICAL HARMONICS KEPT IN THE VARIATION SPACE IS   46

     DIMENSIONS OF THE SYMMETRY SUBSPACES ARE
 A   =   46

 ..... DONE SETTING UP THE RUN .....
 STEP CPU TIME =     0.03 TOTAL CPU TIME =          0.0 (      0.0 MIN)
 TOTAL WALL CLOCK TIME=          0.0 SECONDS, CPU UTILIZATION IS    75.00%

          ********************
          1 ELECTRON INTEGRALS
          ********************
 ...... END OF ONE-ELECTRON INTEGRALS ......
 STEP CPU TIME =     0.01 TOTAL CPU TIME =          0.0 (      0.0 MIN)
 TOTAL WALL CLOCK TIME=          0.0 SECONDS, CPU UTILIZATION IS   100.00%

          -------------
          GUESS OPTIONS
          -------------
          GUESS =HUCKEL            NORB  =       0          NORDER=       0
          MIX   =       F          PRTMO =       F          PUNMO =       F
          TOLZ  = 1.0E-08          TOLE  = 1.0E-05
          SYMDEN=       F          PURIFY=       F

 INITIAL GUESS ORBITALS GENERATED BY HUCKEL   ROUTINE.
 HUCKEL GUESS REQUIRES     21634 WORDS.

 STATISTICS FOR GENERATION OF SYMMETRY ORBITAL -Q- MATRIX
 NUMBER OF CARTESIAN ATOMIC ORBITALS=         49
 NUMBER OF SPHERICAL CONTAMINANTS DROPPED=     3
 NUMBER OF LINEARLY DEPENDENT MOS DROPPED=     0
 TOTAL NUMBER OF MOS IN VARIATION SPACE=      46

 SYMMETRIES FOR INITIAL GUESS ORBITALS FOLLOW.   BOTH SET(S).
    16 ORBITALS ARE OCCUPIED (    7 CORE ORBITALS).
     8=A        9=A       10=A       11=A       12=A       13=A       14=A   
    15=A       16=A       17=A       18=A       19=A       20=A       21=A   
    22=A       23=A       24=A       25=A       26=A   
 ...... END OF INITIAL ORBITAL SELECTION ......
 STEP CPU TIME =     0.00 TOTAL CPU TIME =          0.0 (      0.0 MIN)
 TOTAL WALL CLOCK TIME=          0.0 SECONDS, CPU UTILIZATION IS    80.00%

                    ----------------------
                    AO INTEGRAL TECHNOLOGY
                    ----------------------
     S,P,L SHELL ROTATED AXIS INTEGRALS, REPROGRAMMED BY
        KAZUYA ISHIMURA (IMS) AND JOSE SIERRA (SYNSTAR).
     S,P,D,L SHELL ROTATED AXIS INTEGRALS PROGRAMMED BY
        KAZUYA ISHIMURA (INSTITUTE FOR MOLECULAR SCIENCE).
     S,P,D,F,G SHELL TO TOTAL QUARTET ANGULAR MOMENTUM SUM 5,
        ERIC PROGRAM BY GRAHAM FLETCHER (ELORET AND NASA ADVANCED
        SUPERCOMPUTING DIVISION, AMES RESEARCH CENTER).
     S,P,D,F,G,L SHELL GENERAL RYS QUADRATURE PROGRAMMED BY
        MICHEL DUPUIS (PACIFIC NORTHWEST NATIONAL LABORATORY).

          --------------------
          2 ELECTRON INTEGRALS
          --------------------

 THE -PK- OPTION IS OFF, THE INTEGRALS ARE NOT IN SUPERMATRIX FORM.
 STORING   15000 INTEGRALS/RECORD ON DISK, USING 12 BYTES/INTEGRAL.
 TWO ELECTRON INTEGRAL EVALUATION REQUIRES   90606 WORDS OF MEMORY.
 II,JST,KST,LST =  1  1  1  1 NREC =         1 INTLOC =    1
 II,JST,KST,LST =  2  1  1  1 NREC =         1 INTLOC =    2
 II,JST,KST,LST =  3  1  1  1 NREC =         1 INTLOC =    7
 II,JST,KST,LST =  4  1  1  1 NREC =         1 INTLOC =   22
 II,JST,KST,LST =  5  1  1  1 NREC =         1 INTLOC =   56
 II,JST,KST,LST =  6  1  1  1 NREC =         1 INTLOC =  125
 II,JST,KST,LST =  7  1  1  1 NREC =         1 INTLOC =  329
 II,JST,KST,LST =  8  1  1  1 NREC =         1 INTLOC =  776
 II,JST,KST,LST =  9  1  1  1 NREC =         1 INTLOC = 2864
 II,JST,KST,LST = 10  1  1  1 NREC =         1 INTLOC = 4994
 II,JST,KST,LST = 11  1  1  1 NREC =         1 INTLOC = 7662
 II,JST,KST,LST = 12  1  1  1 NREC =         1 INTLOC =10780
 II,JST,KST,LST = 13  1  1  1 NREC =         2 INTLOC = 6712
 II,JST,KST,LST = 14  1  1  1 NREC =         3 INTLOC = 6987
 II,JST,KST,LST = 15  1  1  1 NREC =         6 INTLOC = 9032
 II,JST,KST,LST = 16  1  1  1 NREC =         7 INTLOC = 1705
 II,JST,KST,LST = 17  1  1  1 NREC =         7 INTLOC =13495
 II,JST,KST,LST = 18  1  1  1 NREC =         8 INTLOC =11959
 II,JST,KST,LST = 19  1  1  1 NREC =        11 INTLOC = 7794
 II,JST,KST,LST = 20  1  1  1 NREC =        15 INTLOC =  133
 TOTAL NUMBER OF NONZERO TWO-ELECTRON INTEGRALS =              344033
         23 INTEGRAL RECORDS WERE STORED ON DISK FILE  8.
  ...... END OF TWO-ELECTRON INTEGRALS .....
 STEP CPU TIME =     0.10 TOTAL CPU TIME =          0.1 (      0.0 MIN)
 TOTAL WALL CLOCK TIME=          0.2 SECONDS, CPU UTILIZATION IS    93.33%

          --------------------------
               R-PBE SCF CALCULATION
          --------------------------

     NUCLEAR ENERGY =       110.1097253931
     MAXIT =   30     NPUNCH=    2
     EXTRAP=T  DAMP=F  SHIFT=F  RSTRCT=F  DIIS=T  DEM=F  SOSCF=F
         DENSITY MATRIX CONVERGENCE THRESHOLD=  1.00E-05
     COARSE -> FINE DFT GRID SWITCH THRESHOLD=  3.00E-04 (SWITCH IN $DFT)
                   HF -> DFT SWITCH THRESHOLD=  5.00E-03 (SWOFF IN $DFT)
     MEMORY REQUIRED FOR RHF ITERS=    183108 WORDS.

 DFT CODE IS SWITCHING FROM THE FINE GRID NRAD= 96,  NLEB=  302
                      TO THE COARSE GRID NRAD0= 24, NLEB0=  110

     EXCHANGE FUNCTIONAL   =PBE       
     CORRELATION FUNCTIONAL=PBE       
     DFT THRESHOLD         =.460E-07
     GRID CHANGE THRESHOLD =.300E-03
 FOR AN EULER-MACLAURIN QUADRATURE USING  96 RADIAL POINTS:
 SMALLEST GAUSSIAN PRIMITIVE EXPONENT=        0.1001940000 OF TYPE -P-
 ON ATOM NUMBER   1 HAS RADIAL NORMALIZATION=  1.000000
  LARGEST GAUSSIAN PRIMITIVE EXPONENT=    49299.4000000000 OF TYPE -S-
 ON ATOM NUMBER   1 HAS RADIAL NORMALIZATION=  1.000000
 DFT IS SWITCHED OFF, PERFORMING PURE SCF UNTIL SWOFF THRESHOLD IS REACHED.

 ITER EX DEM     TOTAL ENERGY        E CHANGE  DENSITY CHANGE    DIIS ERROR
   1  0  0     -546.0400844983  -546.0400844983   0.622008522   1.060087836
          * * *   INITIATING DIIS PROCEDURE   * * *
   2  1  0     -546.9089422247    -0.8688577264   0.440662264   0.229067390
   3  2  0     -547.0092203084    -0.1002780837   0.149877157   0.161267078
   4  3  0     -547.0954875942    -0.0862672858   0.035691198   0.014406566
   5  4  0     -547.0971829497    -0.0016953555   0.022419943   0.004384362
   6  5  0     -547.0974885534    -0.0003056036   0.006728065   0.001889141
   7  6  0     -547.0975342399    -0.0000456865   0.000950901   0.000297946
 CONVERGED TO SWOFF, SO DFT CALCULATION IS NOW SWITCHED ON.
          * * *   INITIATING DIIS PROCEDURE   * * *
   8  7  0     -548.2123371478    -1.1148029079   0.271457093   0.095574749
   9  8  0     -548.2280009463    -0.0156637985   0.220315456   0.069532430
  10  9  0     -548.2240901259     0.0039108204   0.091244915   0.069926208
  11 10  0     -548.2428266316    -0.0187365057   0.018989997   0.010519432
  12 11  0     -548.2431926412    -0.0003660097   0.000973577   0.000673061
  13 12  0     -548.2431937241    -0.0000010829   0.000257110   0.000094081
 DFT CODE IS SWITCHING BACK TO THE FINE GRID
          * * *   INITIATING DIIS PROCEDURE   * * *
  14 13  0     -548.2240111095     0.0191826147   0.008919019   0.006602149
  15 14  0     -548.2241356086    -0.0001244991   0.003618667   0.002236364
  16 15  0     -548.2241271319     0.0000084767   0.003398364   0.002681465
  17 16  0     -548.2241460014    -0.0000188694   0.000855085   0.000653105
  18 17  0     -548.2241469180    -0.0000009166   0.000153065   0.000060056
  19 18  0     -548.2241469195    -0.0000000015   0.000061591   0.000078086
  20 19  0     -548.2241469361    -0.0000000166   0.000011340   0.000007975
  21 20  0     -548.2241469363    -0.0000000002   0.000001001   0.000000317
  22 21  0     -548.2241469363    -0.0000000000   0.000000218   0.000000048

          -----------------
          DENSITY CONVERGED
          -----------------
     TIME TO FORM FOCK OPERATORS=       2.5 SECONDS (       0.1 SEC/ITER)
     TIME TO SOLVE SCF EQUATIONS=       0.0 SECONDS (       0.0 SEC/ITER)

 FINAL R-PBE ENERGY IS     -548.2241469363 AFTER  22 ITERATIONS
 DFT EXCHANGE + CORRELATION ENERGY =       -42.6091899466
 TOTAL ELECTRON NUMBER             =        32.0000048608

          ------------
          EIGENVECTORS
          ------------

                      1          2          3          4          5
                  -88.2165   -18.8015   -18.8015    -7.8347    -5.8612
                     A          A          A          A          A   
    1  S  1  S    0.997744  -0.000040  -0.000001  -0.308332  -0.000000
    2  S  1  S    0.008382   0.000233   0.000003   1.031438   0.000000
    3  S  1  S   -0.003597   0.000797   0.000012   0.028470  -0.000000
    4  S  1  S    0.000371   0.008230   0.000120  -0.005272  -0.000000
    5  S  1  X   -0.000000   0.000002  -0.000162  -0.000000   0.994160
    6  S  1  Y    0.000178  -0.000086  -0.000001   0.013561  -0.000000
    7  S  1  Z    0.000000   0.000000   0.000000   0.000000   0.000000
    8  S  1  X    0.000000   0.000013  -0.000924   0.000000   0.018319
    9  S  1  Y   -0.000606   0.001381   0.000020   0.001578  -0.000000
   10  S  1  Z    0.000000   0.000000   0.000000   0.000000   0.000000
   11  S  1  X    0.000000   0.000065  -0.004476   0.000000  -0.002324
   12  S  1  Y   -0.000052   0.002906   0.000042  -0.000257  -0.000000
   13  S  1  Z    0.000000   0.000000   0.000000   0.000000   0.000000
   14  S  1 XX   -0.000518  -0.000400  -0.000006   0.001072  -0.000000
   15  S  1 YY    0.000174   0.000438   0.000006  -0.000510   0.000000
   16  S  1 ZZ    0.000344  -0.000038  -0.000001  -0.000562   0.000000
   17  S  1 XY    0.000000  -0.000012   0.000840   0.000000   0.001803
   18  S  1 XZ    0.000000   0.000000   0.000000   0.000000   0.000000
   19  S  1 YZ    0.000000   0.000000   0.000000   0.000000   0.000000
   20  O  2  S   -0.000028   0.712449  -0.691944  -0.000252  -0.000761
   21  O  2  S   -0.000191   0.024681  -0.023678  -0.000125   0.000549
   22  O  2  S    0.000928  -0.012903   0.011152  -0.000699  -0.001438
   23  O  2  X   -0.000153  -0.001159   0.001097  -0.000073  -0.001226
   24  O  2  Y   -0.000079  -0.000317   0.000537  -0.000023  -0.000654
   25  O  2  Z    0.000000   0.000000   0.000000   0.000000   0.000000
   26  O  2  X   -0.000686   0.003285  -0.001353   0.001050   0.001174
   27  O  2  Y   -0.000325   0.000390  -0.001480   0.000559   0.000620
   28  O  2  Z    0.000000   0.000000   0.000000   0.000000   0.000000
   29  O  2 XX    0.000242  -0.000313  -0.000127   0.000458   0.000972
   30  O  2 YY   -0.000057   0.000212   0.000178  -0.000179  -0.000193
   31  O  2 ZZ   -0.000184   0.000101  -0.000050  -0.000279  -0.000779
   32  O  2 XY    0.000254  -0.000006   0.000118   0.000343   0.001139
   33  O  2 XZ    0.000000   0.000000   0.000000   0.000000   0.000000
   34  O  2 YZ    0.000000   0.000000   0.000000   0.000000   0.000000
   35  O  3  S   -0.000028   0.691970   0.712424  -0.000252   0.000761
   36  O  3  S   -0.000191   0.023980   0.024387  -0.000125  -0.000549
   37  O  3  S    0.000928  -0.012572  -0.011524  -0.000699   0.001438
   38  O  3  X    0.000153   0.001126   0.001130   0.000073  -0.001226
   39  O  3  Y   -0.000079  -0.000301  -0.000546  -0.000023   0.000654
   40  O  3  Z    0.000000   0.000000   0.000000   0.000000   0.000000
   41  O  3  X    0.000686  -0.003244  -0.001448  -0.001050   0.001174
   42  O  3  Y   -0.000325   0.000347   0.001491   0.000559  -0.000620
   43  O  3  Z    0.000000   0.000000   0.000000   0.000000   0.000000
   44  O  3 XX    0.000242  -0.000317   0.000118   0.000458  -0.000972
   45  O  3 YY   -0.000057   0.000217  -0.000171  -0.000179   0.000193
   46  O  3 ZZ   -0.000184   0.000100   0.000053  -0.000279   0.000779
   47  O  3 XY   -0.000254   0.000002   0.000118  -0.000343   0.001139
   48  O  3 XZ    0.000000   0.000000   0.000000   0.000000   0.000000
   49  O  3 YZ    0.000000   0.000000   0.000000   0.000000   0.000000

                      6          7          8          9         10
                   -5.8594    -5.8534    -1.0853    -1.0012    -0.5655
                     A          A          A          A          A   
    1  S  1  S    0.000000   0.004328   0.053917  -0.000000   0.061187
    2  S  1  S    0.000000  -0.014962  -0.328308   0.000000  -0.392418
    3  S  1  S    0.000000   0.000504   0.450335  -0.000001   0.613810
    4  S  1  S    0.000000   0.000769   0.051602  -0.000005   0.197094
    5  S  1  X    0.000000   0.000000  -0.000000  -0.155016   0.000000
    6  S  1  Y    0.000000   0.994759  -0.062374   0.000000   0.036108
    7  S  1  Z    0.994900   0.000000   0.000000   0.000000   0.000000
    8  S  1  X    0.000000   0.000000   0.000002   0.341946  -0.000000
    9  S  1  Y    0.000000   0.016177   0.131227  -0.000001  -0.082885
   10  S  1  Z    0.016129   0.000000   0.000000   0.000000   0.000000
   11  S  1  X    0.000000   0.000000   0.000002  -0.017812  -0.000001
   12  S  1  Y    0.000000  -0.002638  -0.018689  -0.000002  -0.045012
   13  S  1  Z   -0.003011   0.000000   0.000000   0.000000   0.000000
   14  S  1 XX    0.000000  -0.000528   0.062289  -0.000001  -0.013944
   15  S  1 YY    0.000000   0.001193  -0.020079   0.000000  -0.005639
   16  S  1 ZZ    0.000000  -0.000665  -0.042210   0.000001   0.019583
   17  S  1 XY    0.000000   0.000000   0.000001   0.083856  -0.000000
   18  S  1 XZ   -0.000000   0.000000   0.000000   0.000000   0.000000
   19  S  1 YZ    0.000975   0.000000   0.000000   0.000000   0.000000
   20  O  2  S    0.000000  -0.000359  -0.135168  -0.158753   0.114653
   21  O  2  S    0.000000   0.000385   0.272836   0.327086  -0.244717
   22  O  2  S    0.000000  -0.000490   0.219862   0.252584  -0.332187
   23  O  2  X    0.000000  -0.000762  -0.119225  -0.110817  -0.175938
   24  O  2  Y    0.000000  -0.000296  -0.047210  -0.054169  -0.110240
   25  O  2  Z    0.000051   0.000000   0.000000   0.000000   0.000000
   26  O  2  X    0.000000   0.000646  -0.029765  -0.007730  -0.084967
   27  O  2  Y    0.000000  -0.000205  -0.007828  -0.004774  -0.047413
   28  O  2  Z   -0.000308   0.000000   0.000000   0.000000   0.000000
   29  O  2 XX    0.000000   0.000613   0.012898   0.006095   0.006851
   30  O  2 YY    0.000000  -0.000240  -0.006961  -0.001739  -0.000264
   31  O  2 ZZ    0.000000  -0.000373  -0.005936  -0.004357  -0.006587
   32  O  2 XY    0.000000   0.000525   0.007535   0.009087   0.009269
   33  O  2 XZ   -0.000097   0.000000   0.000000   0.000000   0.000000
   34  O  2 YZ   -0.000086   0.000000   0.000000   0.000000   0.000000
   35  O  3  S    0.000000  -0.000359  -0.135168   0.158752   0.114654
   36  O  3  S    0.000000   0.000385   0.272834  -0.327088  -0.244718
   37  O  3  S    0.000000  -0.000490   0.219868  -0.252576  -0.332190
   38  O  3  X    0.000000   0.000762   0.119225  -0.110817   0.175938
   39  O  3  Y    0.000000  -0.000296  -0.047210   0.054169  -0.110240
   40  O  3  Z    0.000051   0.000000   0.000000   0.000000   0.000000
   41  O  3  X    0.000000  -0.000646   0.029767  -0.007726   0.084967
   42  O  3  Y    0.000000  -0.000205  -0.007829   0.004774  -0.047413
   43  O  3  Z   -0.000308   0.000000   0.000000   0.000000   0.000000
   44  O  3 XX    0.000000   0.000613   0.012898  -0.006095   0.006851
   45  O  3 YY    0.000000  -0.000240  -0.006962   0.001739  -0.000264
   46  O  3 ZZ    0.000000  -0.000373  -0.005937   0.004356  -0.006587
   47  O  3 XY    0.000000  -0.000525  -0.007535   0.009086  -0.009269
   48  O  3 XZ    0.000097   0.000000   0.000000   0.000000   0.000000
   49  O  3 YZ   -0.000086   0.000000   0.000000   0.000000   0.000000

                     11         12         13         14         15
                   -0.4652    -0.4539    -0.4485    -0.3528    -0.3327
                     A          A          A          A          A   
    1  S  1  S    0.000000  -0.007533   0.000000   0.000000   0.000000
    2  S  1  S    0.000000   0.047997  -0.000000   0.000000  -0.000000
    3  S  1  S    0.000000  -0.057023  -0.000000   0.000000  -0.000000
    4  S  1  S    0.000000  -0.122296  -0.000000   0.000000   0.000003
    5  S  1  X    0.000000  -0.000001  -0.170029   0.000000  -0.011904
    6  S  1  Y    0.000000  -0.198842   0.000001   0.000000   0.000000
    7  S  1  Z   -0.211493   0.000000   0.000000  -0.000000   0.000000
    8  S  1  X    0.000000   0.000002   0.460886   0.000000   0.023925
    9  S  1  Y    0.000000   0.522013  -0.000002   0.000000  -0.000000
   10  S  1  Z    0.558853   0.000000   0.000000   0.000000   0.000000
   11  S  1  X    0.000000   0.000000  -0.038060   0.000000   0.086485
   12  S  1  Y    0.000000   0.081702  -0.000000   0.000000   0.000001
   13  S  1  Z    0.107394   0.000000   0.000000  -0.000000   0.000000
   14  S  1 XX    0.000000  -0.061169   0.000000   0.000000   0.000000
   15  S  1 YY    0.000000   0.075371  -0.000000   0.000000  -0.000000
   16  S  1 ZZ    0.000000  -0.014201   0.000000   0.000000  -0.000000
   17  S  1 XY    0.000000   0.000000   0.043367   0.000000  -0.138583
   18  S  1 XZ   -0.000000   0.000000   0.000000   0.145400   0.000000
   19  S  1 YZ    0.054561   0.000000   0.000000  -0.000000   0.000000
   20  O  2  S    0.000000   0.026613   0.075796   0.000000  -0.001131
   21  O  2  S    0.000000  -0.055294  -0.157318   0.000000   0.003275
   22  O  2  S    0.000000  -0.090579  -0.281029   0.000000  -0.007573
   23  O  2  X    0.000000  -0.243338  -0.314649   0.000000   0.288658
   24  O  2  Y    0.000000   0.221541  -0.223526   0.000000  -0.367015
   25  O  2  Z    0.316314   0.000000   0.000000   0.461090   0.000000
   26  O  2  X    0.000000  -0.135775  -0.132115   0.000000   0.176844
   27  O  2  Y    0.000000   0.133596  -0.113120   0.000000  -0.257199
   28  O  2  Z    0.181163   0.000000   0.000000   0.317480   0.000000
   29  O  2 XX    0.000000   0.021014   0.007739   0.000000  -0.014416
   30  O  2 YY    0.000000  -0.015408   0.001476   0.000000   0.015154
   31  O  2 ZZ    0.000000  -0.005606  -0.009214   0.000000  -0.000739
   32  O  2 XY    0.000000  -0.008315   0.015520   0.000000   0.015838
   33  O  2 XZ   -0.023159   0.000000   0.000000  -0.019922   0.000000
   34  O  2 YZ   -0.009664   0.000000   0.000000  -0.009172   0.000000
   35  O  3  S    0.000000   0.026612  -0.075795   0.000000   0.001131
   36  O  3  S    0.000000  -0.055294   0.157317   0.000000  -0.003274
   37  O  3  S    0.000000  -0.090575   0.281031   0.000000   0.007570
   38  O  3  X    0.000000   0.243337  -0.314651   0.000000   0.288657
   39  O  3  Y    0.000000   0.221543   0.223525   0.000000   0.367015
   40  O  3  Z    0.316315   0.000000   0.000000  -0.461090   0.000000
   41  O  3  X    0.000000   0.135775  -0.132114   0.000000   0.176842
   42  O  3  Y    0.000000   0.133597   0.113119   0.000000   0.257199
   43  O  3  Z    0.181164   0.000000   0.000000  -0.317480   0.000000
   44  O  3 XX    0.000000   0.021014  -0.007739   0.000000   0.014416
   45  O  3 YY    0.000000  -0.015408  -0.001476   0.000000  -0.015154
   46  O  3 ZZ    0.000000  -0.005606   0.009214   0.000000   0.000739
   47  O  3 XY    0.000000   0.008315   0.015519   0.000000   0.015838
   48  O  3 XZ    0.023159   0.000000   0.000000  -0.019922   0.000000
   49  O  3 YZ   -0.009664   0.000000   0.000000   0.009172   0.000000

                     16         17         18         19         20
                   -0.2697    -0.1402     0.0057     0.0917     0.2046
                     A          A          A          A          A   
    1  S  1  S    0.025698   0.000000   0.019826   0.000000   0.000000
    2  S  1  S   -0.167384   0.000000  -0.133211   0.000000   0.000000
    3  S  1  S    0.196950   0.000000   0.115616  -0.000004   0.000000
    4  S  1  S    0.576051   0.000000   0.922586  -0.000002   0.000000
    5  S  1  X   -0.000000   0.000000   0.000000  -0.111817   0.000000
    6  S  1  Y    0.127056   0.000000  -0.167652  -0.000000   0.000000
    7  S  1  Z    0.000000  -0.230697   0.000000   0.000000   0.245742
    8  S  1  X    0.000000   0.000000   0.000001   0.353955   0.000000
    9  S  1  Y   -0.348812   0.000000   0.548488  -0.000000   0.000000
   10  S  1  Z    0.000000   0.698369   0.000000   0.000000  -0.965785
   11  S  1  X   -0.000001   0.000000  -0.000010   1.359947   0.000000
   12  S  1  Y   -0.046946   0.000000   0.707192   0.000003   0.000000
   13  S  1  Z    0.000000   0.376120   0.000000   0.000000   1.302153
   14  S  1 XX   -0.178224   0.000000  -0.169500  -0.000003   0.000000
   15  S  1 YY    0.094303   0.000000  -0.026442   0.000000   0.000000
   16  S  1 ZZ    0.083922   0.000000   0.195942   0.000003   0.000000
   17  S  1 XY    0.000000   0.000000   0.000001  -0.188538   0.000000
   18  S  1 XZ    0.000000  -0.000000   0.000000   0.000000   0.000000
   19  S  1 YZ    0.000000  -0.063851   0.000000   0.000000  -0.089295
   20  O  2  S    0.011726   0.000000   0.056298   0.064045   0.000000
   21  O  2  S   -0.027409   0.000000  -0.121781  -0.116637   0.000000
   22  O  2  S   -0.081280   0.000000  -0.471929  -0.700840   0.000000
   23  O  2  X    0.142521   0.000000   0.316226   0.019367   0.000000
   24  O  2  Y    0.377794   0.000000  -0.136318   0.216234   0.000000
   25  O  2  Z    0.000000  -0.387569   0.000000   0.000000  -0.021989
   26  O  2  X    0.084488   0.000000   0.346624   0.046841   0.000000
   27  O  2  Y    0.271618   0.000000  -0.144592   0.233391   0.000000
   28  O  2  Z    0.000000  -0.344124   0.000000   0.000000  -0.105244
   29  O  2 XX   -0.002061   0.000000  -0.001225  -0.004369   0.000000
   30  O  2 YY   -0.001460   0.000000  -0.004745   0.004611   0.000000
   31  O  2 ZZ    0.003520   0.000000   0.005969  -0.000242   0.000000
   32  O  2 XY   -0.009229   0.000000  -0.003939  -0.001360   0.000000
   33  O  2 XZ    0.000000   0.002306   0.000000   0.000000   0.023126
   34  O  2 YZ    0.000000  -0.001068   0.000000   0.000000   0.007948
   35  O  3  S    0.011726   0.000000   0.056300  -0.064044   0.000000
   36  O  3  S   -0.027409   0.000000  -0.121785   0.116627   0.000000
   37  O  3  S   -0.081280   0.000000  -0.471935   0.700852   0.000000
   38  O  3  X   -0.142522   0.000000  -0.316228   0.019361   0.000000
   39  O  3  Y    0.377793   0.000000  -0.136316  -0.216235   0.000000
   40  O  3  Z    0.000000  -0.387569   0.000000   0.000000  -0.021989
   41  O  3  X   -0.084488   0.000000  -0.346621   0.046848   0.000000
   42  O  3  Y    0.271618   0.000000  -0.144590  -0.233396   0.000000
   43  O  3  Z    0.000000  -0.344124   0.000000   0.000000  -0.105244
   44  O  3 XX   -0.002061   0.000000  -0.001225   0.004369   0.000000
   45  O  3 YY   -0.001459   0.000000  -0.004745  -0.004611   0.000000
   46  O  3 ZZ    0.003520   0.000000   0.005969   0.000242   0.000000
   47  O  3 XY    0.009229   0.000000   0.003939  -0.001360   0.000000
   48  O  3 XZ    0.000000  -0.002306   0.000000   0.000000  -0.023126
   49  O  3 YZ    0.000000  -0.001068   0.000000   0.000000   0.007948

                     21         22         23         24         25
                    0.2231     0.2781     0.3588     0.5258     0.5372
                     A          A          A          A          A   
    1  S  1  S    0.023729  -0.066944  -0.000000   0.000000   0.005381
    2  S  1  S   -0.173547   0.486602   0.000002   0.000000  -0.040181
    3  S  1  S    0.621851  -1.762806  -0.000009   0.000000   0.118105
    4  S  1  S   -0.682459   2.105706  -0.000002   0.000000   0.184921
    5  S  1  X   -0.000000  -0.000002   0.284601   0.000000  -0.000000
    6  S  1  Y    0.248467   0.079545   0.000001   0.000000  -0.002183
    7  S  1  Z    0.000000   0.000000   0.000000   0.019887   0.000000
    8  S  1  X    0.000000   0.000010  -1.065083   0.000000   0.000002
    9  S  1  Y   -0.972669  -0.267089  -0.000003   0.000000   0.011224
   10  S  1  Z    0.000000   0.000000   0.000000  -0.092780   0.000000
   11  S  1  X   -0.000000  -0.000001   1.116286   0.000000   0.000001
   12  S  1  Y    1.156847   0.546865   0.000000   0.000000   0.156573
   13  S  1  Z    0.000000   0.000000   0.000000   0.141276   0.000000
   14  S  1 XX    0.131570   0.232685  -0.000002   0.000000  -0.065083
   15  S  1 YY   -0.099475  -0.105324   0.000000   0.000000   0.852844
   16  S  1 ZZ   -0.032095  -0.127361   0.000002   0.000000  -0.787761
   17  S  1 XY    0.000000   0.000002   0.455487   0.000000   0.000001
   18  S  1 XZ    0.000000   0.000000   0.000000  -0.000000   0.000000
   19  S  1 YZ    0.000000   0.000000   0.000000   0.960927   0.000000
   20  O  2  S   -0.003575   0.012510  -0.006321   0.000000   0.016696
   21  O  2  S    0.030504   0.027481   0.080457   0.000000  -0.063299
   22  O  2  S   -0.038109  -0.537578  -0.315261   0.000000  -0.106651
   23  O  2  X   -0.056116  -0.233621  -0.234390   0.000000   0.104224
   24  O  2  Y    0.005407  -0.103444  -0.198544   0.000000  -0.222410
   25  O  2  Z    0.000000   0.000000   0.000000  -0.217796   0.000000
   26  O  2  X   -0.043304   0.091660  -0.067950   0.000000   0.109377
   27  O  2  Y   -0.082688   0.028529  -0.078255   0.000000   0.085916
   28  O  2  Z    0.000000   0.000000   0.000000   0.024024   0.000000
   29  O  2 XX   -0.016942  -0.043679  -0.018425   0.000000   0.019953
   30  O  2 YY    0.015599   0.017574  -0.009317   0.000000   0.010265
   31  O  2 ZZ    0.001343   0.026105   0.027742   0.000000  -0.030217
   32  O  2 XY    0.014610  -0.028160  -0.044222   0.000000  -0.036966
   33  O  2 XZ    0.000000   0.000000   0.000000  -0.036118   0.000000
   34  O  2 YZ    0.000000   0.000000   0.000000   0.026401   0.000000
   35  O  3  S   -0.003575   0.012510   0.006321   0.000000   0.016696
   36  O  3  S    0.030503   0.027475  -0.080463   0.000000  -0.063301
   37  O  3  S   -0.038109  -0.537564   0.315273   0.000000  -0.106646
   38  O  3  X    0.056115   0.233620  -0.234392   0.000000  -0.104225
   39  O  3  Y    0.005407  -0.103445   0.198543   0.000000  -0.222410
   40  O  3  Z    0.000000   0.000000   0.000000  -0.217797   0.000000
   41  O  3  X    0.043304  -0.091647  -0.067940   0.000000  -0.109372
   42  O  3  Y   -0.082688   0.028524   0.078252   0.000000   0.085914
   43  O  3  Z    0.000000   0.000000   0.000000   0.024024   0.000000
   44  O  3 XX   -0.016942  -0.043679   0.018425   0.000000   0.019953
   45  O  3 YY    0.015599   0.017574   0.009317   0.000000   0.010265
   46  O  3 ZZ    0.001343   0.026105  -0.027742   0.000000  -0.030217
   47  O  3 XY   -0.014610   0.028160  -0.044222   0.000000   0.036966
   48  O  3 XZ    0.000000   0.000000   0.000000   0.036118   0.000000
   49  O  3 YZ    0.000000   0.000000   0.000000   0.026401   0.000000

                     26         27         28         29         30
                    0.5864     0.6317     0.6538     0.7558     0.8113
                     A          A          A          A          A   
    1  S  1  S    0.000000   0.026038  -0.000000   0.000000   0.006817
    2  S  1  S    0.000000  -0.211315   0.000001   0.000000  -0.057249
    3  S  1  S    0.000000   1.027458  -0.000006   0.000000   0.320503
    4  S  1  S    0.000000   0.829389  -0.000016   0.000000   0.023580
    5  S  1  X    0.000000  -0.000002  -0.209087   0.000000   0.000000
    6  S  1  Y    0.000000  -0.095159   0.000001   0.000000  -0.012794
    7  S  1  Z    0.000000   0.000000   0.000000  -0.000000   0.000000
    8  S  1  X    0.000000   0.000011   1.221619   0.000000  -0.000000
    9  S  1  Y    0.000000   0.576469  -0.000005   0.000000   0.048658
   10  S  1  Z   -0.000000   0.000000   0.000000   0.000000   0.000000
   11  S  1  X    0.000000   0.000006  -0.028538   0.000000   0.000001
   12  S  1  Y    0.000000   0.055402  -0.000003   0.000000  -0.623144
   13  S  1  Z    0.000000   0.000000   0.000000  -0.000000   0.000000
   14  S  1 XX    0.000000   0.525388  -0.000003   0.000000   0.295822
   15  S  1 YY    0.000000  -0.219300   0.000001   0.000000  -0.391778
   16  S  1 ZZ    0.000000  -0.306087   0.000003   0.000000   0.095956
   17  S  1 XY    0.000000   0.000005   0.468521   0.000000  -0.000001
   18  S  1 XZ    0.918252   0.000000   0.000000   0.451492   0.000000
   19  S  1 YZ    0.000000   0.000000   0.000000  -0.000000   0.000000
   20  O  2  S    0.000000   0.063917   0.061792   0.000000  -0.008054
   21  O  2  S    0.000000  -0.142547  -0.152467   0.000000   0.118561
   22  O  2  S    0.000000  -0.616270  -0.525367   0.000000  -0.139423
   23  O  2  X    0.000000  -0.340677  -0.159687   0.000000   0.218685
   24  O  2  Y    0.000000   0.015212  -0.235434   0.000000  -0.517987
   25  O  2  Z   -0.364036   0.000000   0.000000   0.550810   0.000000
   26  O  2  X    0.000000   1.090630   1.000907   0.000000  -0.165066
   27  O  2  Y    0.000000   0.385309   0.582809   0.000000   0.935170
   28  O  2  Z    0.026108   0.000000   0.000000  -0.820207   0.000000
   29  O  2 XX    0.000000   0.001394   0.025164   0.000000  -0.018978
   30  O  2 YY    0.000000   0.002855  -0.011701   0.000000   0.019590
   31  O  2 ZZ    0.000000  -0.004249  -0.013463   0.000000  -0.000612
   32  O  2 XY    0.000000   0.009734   0.020265   0.000000   0.039330
   33  O  2 XZ   -0.047714   0.000000   0.000000  -0.044694   0.000000
   34  O  2 YZ   -0.043276   0.000000   0.000000  -0.027019   0.000000
   35  O  3  S    0.000000   0.063916  -0.061793   0.000000  -0.008054
   36  O  3  S    0.000000  -0.142548   0.152468   0.000000   0.118562
   37  O  3  S    0.000000  -0.616250   0.525384   0.000000  -0.139424
   38  O  3  X    0.000000   0.340665  -0.159698   0.000000  -0.218685
   39  O  3  Y    0.000000   0.015213   0.235439   0.000000  -0.517982
   40  O  3  Z    0.364036   0.000000   0.000000  -0.550810   0.000000
   41  O  3  X    0.000000  -1.090601   1.000934   0.000000   0.165065
   42  O  3  Y    0.000000   0.385299  -0.582820   0.000000   0.935164
   43  O  3  Z   -0.026108   0.000000   0.000000   0.820207   0.000000
   44  O  3 XX    0.000000   0.001393  -0.025164   0.000000  -0.018978
   45  O  3 YY    0.000000   0.002855   0.011701   0.000000   0.019590
   46  O  3 ZZ    0.000000  -0.004249   0.013463   0.000000  -0.000612
   47  O  3 XY    0.000000  -0.009734   0.020265   0.000000  -0.039330
   48  O  3 XZ   -0.047714   0.000000   0.000000  -0.044694   0.000000
   49  O  3 YZ    0.043276   0.000000   0.000000   0.027019   0.000000

                     31         32         33         34         35
                    0.8255     0.8606     1.0739     1.0866     1.4380
                     A          A          A          A          A   
    1  S  1  S    0.000000   0.000000   0.014329   0.000000  -0.000000
    2  S  1  S   -0.000001   0.000000  -0.094344  -0.000000   0.000000
    3  S  1  S    0.000000   0.000000  -0.124099  -0.000001   0.000004
    4  S  1  S   -0.000001   0.000000   0.597675  -0.000011  -0.000017
    5  S  1  X   -0.050363   0.000000   0.000001  -0.159152  -0.053400
    6  S  1  Y   -0.000000   0.000000  -0.088763  -0.000000   0.000001
    7  S  1  Z    0.000000   0.004951   0.000000   0.000000   0.000000
    8  S  1  X    0.287319   0.000000  -0.000001   0.510525   0.565336
    9  S  1  Y    0.000000   0.000000   0.314470  -0.000001  -0.000004
   10  S  1  Z    0.000000  -0.080513   0.000000   0.000000   0.000000
   11  S  1  X   -0.334572   0.000000   0.000007   0.356656   1.086267
   12  S  1  Y   -0.000002   0.000000   0.056260  -0.000005  -0.000005
   13  S  1  Z    0.000000  -0.683552   0.000000   0.000000   0.000000
   14  S  1 XX    0.000003   0.000000   0.998744   0.000004  -0.000008
   15  S  1 YY   -0.000002   0.000000  -0.338713  -0.000002   0.000002
   16  S  1 ZZ   -0.000001   0.000000  -0.660032  -0.000002   0.000006
   17  S  1 XY    0.291672   0.000000  -0.000005   0.887848   0.099274
   18  S  1 XZ    0.000000  -0.000000   0.000000   0.000000   0.000000
   19  S  1 YZ    0.000000  -0.284057   0.000000   0.000000   0.000000
   20  O  2  S   -0.004874   0.000000   0.040022   0.036557  -0.078118
   21  O  2  S    0.109187   0.000000  -0.174185  -0.122689   1.268458
   22  O  2  S   -0.171183   0.000000  -0.377050  -0.457003  -2.083473
   23  O  2  X   -0.235126   0.000000   0.481562   0.626923   0.041926
   24  O  2  Y    0.552012   0.000000   0.343804   0.134251  -0.081390
   25  O  2  Z    0.000000  -0.605325   0.000000   0.000000   0.000000
   26  O  2  X    0.597516   0.000000  -0.161570  -0.259738   0.293367
   27  O  2  Y   -0.655709   0.000000  -0.057486  -0.058557   0.420998
   28  O  2  Z    0.000000   0.981750   0.000000   0.000000   0.000000
   29  O  2 XX    0.041274   0.000000  -0.051559   0.070730   0.054405
   30  O  2 YY   -0.028825   0.000000   0.080586  -0.089416   0.020945
   31  O  2 ZZ   -0.012450   0.000000  -0.029028   0.018686  -0.075350
   32  O  2 XY   -0.016070   0.000000   0.038270  -0.021966   0.121147
   33  O  2 XZ    0.000000   0.047781   0.000000   0.000000   0.000000
   34  O  2 YZ    0.000000   0.009473   0.000000   0.000000   0.000000
   35  O  3  S    0.004874   0.000000   0.040024  -0.036555   0.078117
   36  O  3  S   -0.109179   0.000000  -0.174207   0.122662  -1.268463
   37  O  3  S    0.171175   0.000000  -0.377024   0.457039   2.083496
   38  O  3  X   -0.235134   0.000000  -0.481565   0.626920   0.041931
   39  O  3  Y   -0.552012   0.000000   0.343808  -0.134250   0.081385
   40  O  3  Z    0.000000  -0.605324   0.000000   0.000000   0.000000
   41  O  3  X    0.597524   0.000000   0.161569  -0.259729   0.293372
   42  O  3  Y    0.655712   0.000000  -0.057494   0.058559  -0.420997
   43  O  3  Z    0.000000   0.981750   0.000000   0.000000   0.000000
   44  O  3 XX   -0.041275   0.000000  -0.051557  -0.070731  -0.054405
   45  O  3 YY    0.028825   0.000000   0.080585   0.089417  -0.020947
   46  O  3 ZZ    0.012450   0.000000  -0.029028  -0.018686   0.075352
   47  O  3 XY   -0.016070   0.000000  -0.038270  -0.021966   0.121149
   48  O  3 XZ    0.000000  -0.047781   0.000000   0.000000   0.000000
   49  O  3 YZ    0.000000   0.009473   0.000000   0.000000   0.000000

                     36         37         38         39         40
                    1.4908     2.0422     2.0444     2.0605     2.0819
                     A          A          A          A          A   
    1  S  1  S   -0.003460   0.000000  -0.000000   0.000000  -0.000327
    2  S  1  S    0.040376   0.000000   0.000000   0.000000   0.005780
    3  S  1  S   -0.156631   0.000000  -0.000000   0.000000  -0.062175
    4  S  1  S   -1.968666   0.000000   0.000001   0.000000   0.011047
    5  S  1  X    0.000001   0.000000  -0.004629   0.000000  -0.000000
    6  S  1  Y    0.048572   0.000000  -0.000000   0.000000   0.003336
    7  S  1  Z    0.000000  -0.000000   0.000000  -0.028814   0.000000
    8  S  1  X   -0.000004   0.000000  -0.001160   0.000000   0.000000
    9  S  1  Y   -0.396941   0.000000  -0.000000   0.000000  -0.029606
   10  S  1  Z    0.000000   0.000000   0.000000   0.117892   0.000000
   11  S  1  X   -0.000013   0.000000   0.027225   0.000000  -0.000001
   12  S  1  Y   -0.691277   0.000000   0.000000   0.000000   0.007442
   13  S  1  Z    0.000000  -0.000000   0.000000  -0.003203   0.000000
   14  S  1 XX   -0.223475   0.000000   0.000000   0.000000   0.078542
   15  S  1 YY   -0.003057   0.000000   0.000000   0.000000   0.081885
   16  S  1 ZZ    0.226532   0.000000  -0.000000   0.000000  -0.160426
   17  S  1 XY   -0.000007   0.000000  -0.034352   0.000000  -0.000000
   18  S  1 XZ    0.000000   0.033124   0.000000  -0.000000   0.000000
   19  S  1 YZ    0.000000  -0.000000   0.000000  -0.055543   0.000000
   20  O  2  S    0.068454   0.000000   0.000221   0.000000   0.005297
   21  O  2  S   -1.266317   0.000000  -0.005101   0.000000  -0.056903
   22  O  2  S    2.255416   0.000000   0.005749   0.000000   0.037488
   23  O  2  X    0.013807   0.000000   0.021335   0.000000   0.041633
   24  O  2  Y   -0.088725   0.000000  -0.019592   0.000000   0.013450
   25  O  2  Z    0.000000   0.012546   0.000000   0.025061   0.000000
   26  O  2  X   -0.708758   0.000000  -0.045931   0.000000  -0.042244
   27  O  2  Y   -0.017388   0.000000   0.026849   0.000000  -0.010058
   28  O  2  Z    0.000000  -0.021155   0.000000  -0.040769   0.000000
   29  O  2 XX   -0.157566   0.000000   0.242101   0.000000  -0.058737
   30  O  2 YY    0.084144   0.000000   0.362654   0.000000  -0.537579
   31  O  2 ZZ    0.073422   0.000000  -0.604755   0.000000   0.596316
   32  O  2 XY   -0.054293   0.000000  -0.361083   0.000000   0.262337
   33  O  2 XZ    0.000000   0.420431   0.000000  -0.054170   0.000000
   34  O  2 YZ    0.000000  -0.569102   0.000000   0.707096   0.000000
   35  O  3  S    0.068455   0.000000  -0.000221   0.000000   0.005297
   36  O  3  S   -1.266312   0.000000   0.005101   0.000000  -0.056902
   37  O  3  S    2.255392   0.000000  -0.005750   0.000000   0.037487
   38  O  3  X   -0.013818   0.000000   0.021335   0.000000  -0.041634
   39  O  3  Y   -0.088725   0.000000   0.019592   0.000000   0.013450
   40  O  3  Z    0.000000  -0.012546   0.000000   0.025061   0.000000
   41  O  3  X    0.708764   0.000000  -0.045931   0.000000   0.042245
   42  O  3  Y   -0.017383   0.000000  -0.026849   0.000000  -0.010058
   43  O  3  Z    0.000000   0.021155   0.000000  -0.040769   0.000000
   44  O  3 XX   -0.157563   0.000000  -0.242101   0.000000  -0.058736
   45  O  3 YY    0.084141   0.000000  -0.362655   0.000000  -0.537578
   46  O  3 ZZ    0.073422   0.000000   0.604756   0.000000   0.596314
   47  O  3 XY    0.054293   0.000000  -0.361084   0.000000  -0.262337
   48  O  3 XZ    0.000000   0.420431   0.000000   0.054167   0.000000
   49  O  3 YZ    0.000000   0.569106   0.000000   0.707093   0.000000

                     41         42         43         44         45
                    2.2297     2.2313     2.3863     2.4606     2.8205
                     A          A          A          A          A   
    1  S  1  S    0.000000   0.000000   0.000000  -0.004024  -0.042026
    2  S  1  S    0.000000  -0.000000   0.000000   0.043283   0.379786
    3  S  1  S    0.000000   0.000001   0.000000  -0.233025  -1.450957
    4  S  1  S    0.000000  -0.000001   0.000000  -0.306620  -0.979818
    5  S  1  X    0.000000  -0.035808   0.000000  -0.000000   0.000000
    6  S  1  Y    0.000000  -0.000000   0.000000   0.091439   0.101085
    7  S  1  Z    0.080686   0.000000  -0.000000   0.000000   0.000000
    8  S  1  X    0.000000   0.256929   0.000000   0.000003   0.000000
    9  S  1  Y    0.000000   0.000000   0.000000  -0.452960  -0.740443
   10  S  1  Z   -0.331632   0.000000   0.000000   0.000000   0.000000
   11  S  1  X    0.000000   0.048898   0.000000  -0.000002  -0.000002
   12  S  1  Y    0.000000  -0.000001   0.000000  -0.185276  -0.094942
   13  S  1  Z   -0.067572   0.000000  -0.000000   0.000000   0.000000
   14  S  1 XX    0.000000  -0.000000   0.000000   0.404520  -0.783809
   15  S  1 YY    0.000000   0.000000   0.000000  -0.447791   0.303752
   16  S  1 ZZ    0.000000   0.000000   0.000000   0.043271   0.480057
   17  S  1 XY    0.000000  -0.435488   0.000000   0.000001  -0.000002
   18  S  1 XZ    0.000000   0.000000   0.594502   0.000000   0.000000
   19  S  1 YZ   -0.301875   0.000000   0.000000   0.000000   0.000000
   20  O  2  S    0.000000  -0.014061   0.000000   0.013483  -0.007918
   21  O  2  S    0.000000   0.214953   0.000000  -0.290644  -0.508980
   22  O  2  S    0.000000  -0.241898   0.000000   0.462689   1.485095
   23  O  2  X    0.000000  -0.078407   0.000000   0.094881  -0.097217
   24  O  2  Y    0.000000  -0.088053   0.000000   0.000533  -0.060964
   25  O  2  Z   -0.063317   0.000000   0.021935   0.000000   0.000000
   26  O  2  X    0.000000   0.060305   0.000000  -0.309490  -0.771831
   27  O  2  Y    0.000000   0.208662   0.000000   0.154929  -0.385779
   28  O  2  Z    0.193334   0.000000  -0.194233   0.000000   0.000000
   29  O  2 XX    0.000000   0.388683   0.000000   0.593982   0.523038
   30  O  2 YY    0.000000  -0.572931   0.000000  -0.485149  -0.068655
   31  O  2 ZZ    0.000000   0.184248   0.000000  -0.108833  -0.454383
   32  O  2 XY    0.000000  -0.436342   0.000000  -0.422991   0.669488
   33  O  2 XZ   -0.737385   0.000000   0.624485   0.000000   0.000000
   34  O  2 YZ   -0.068492   0.000000   0.446973   0.000000   0.000000
   35  O  3  S    0.000000   0.014061   0.000000   0.013483  -0.007918
   36  O  3  S    0.000000  -0.214953   0.000000  -0.290645  -0.508982
   37  O  3  S    0.000000   0.241899   0.000000   0.462690   1.485095
   38  O  3  X    0.000000  -0.078407   0.000000  -0.094881   0.097215
   39  O  3  Y    0.000000   0.088053   0.000000   0.000533  -0.060964
   40  O  3  Z   -0.063317   0.000000  -0.021935   0.000000   0.000000
   41  O  3  X    0.000000   0.060305   0.000000   0.309494   0.771833
   42  O  3  Y    0.000000  -0.208661   0.000000   0.154929  -0.385779
   43  O  3  Z    0.193334   0.000000   0.194233   0.000000   0.000000
   44  O  3 XX    0.000000  -0.388684   0.000000   0.593986   0.523037
   45  O  3 YY    0.000000   0.572932   0.000000  -0.485150  -0.068654
   46  O  3 ZZ    0.000000  -0.184248   0.000000  -0.108836  -0.454383
   47  O  3 XY    0.000000  -0.436340   0.000000   0.422988  -0.669489
   48  O  3 XZ    0.737385   0.000000   0.624484   0.000000   0.000000
   49  O  3 YZ   -0.068492   0.000000  -0.446973   0.000000   0.000000

                     46
                    2.9126
                     A   
    1  S  1  S    0.000000
    2  S  1  S   -0.000000
    3  S  1  S    0.000002
    4  S  1  S   -0.000001
    5  S  1  X   -0.257840
    6  S  1  Y   -0.000000
    7  S  1  Z    0.000000
    8  S  1  X    1.754269
    9  S  1  Y    0.000001
   10  S  1  Z    0.000000
   11  S  1  X    0.147583
   12  S  1  Y    0.000000
   13  S  1  Z    0.000000
   14  S  1 XX   -0.000002
   15  S  1 YY    0.000001
   16  S  1 ZZ    0.000001
   17  S  1 XY    0.703925
   18  S  1 XZ    0.000000
   19  S  1 YZ    0.000000
   20  O  2  S    0.012466
   21  O  2  S    0.428050
   22  O  2  S   -1.395847
   23  O  2  X    0.127783
   24  O  2  Y    0.045385
   25  O  2  Z    0.000000
   26  O  2  X    0.801457
   27  O  2  Y    0.360766
   28  O  2  Z    0.000000
   29  O  2 XX   -0.709448
   30  O  2 YY    0.307301
   31  O  2 ZZ    0.402147
   32  O  2 XY   -0.533589
   33  O  2 XZ    0.000000
   34  O  2 YZ    0.000000
   35  O  3  S   -0.012466
   36  O  3  S   -0.428047
   37  O  3  S    1.395844
   38  O  3  X    0.127784
   39  O  3  Y   -0.045386
   40  O  3  Z    0.000000
   41  O  3  X    0.801455
   42  O  3  Y   -0.360766
   43  O  3  Z    0.000000
   44  O  3 XX    0.709446
   45  O  3 YY   -0.307298
   46  O  3 ZZ   -0.402147
   47  O  3 XY   -0.533591
   48  O  3 XZ    0.000000
   49  O  3 YZ    0.000000
 ...... END OF RHF CALCULATION ......
 STEP CPU TIME =     2.52 TOTAL CPU TIME =          2.7 (      0.0 MIN)
 TOTAL WALL CLOCK TIME=          2.7 SECONDS, CPU UTILIZATION IS    98.52%

     ---------------------------------------------------------------------
     PROPERTIES FOR THE PBE      DFT FUNCTIONAL (RHF  TYPE) DENSITY MATRIX
     ---------------------------------------------------------------------

          -----------------
          ENERGY COMPONENTS
          -----------------

         WAVEFUNCTION NORMALIZATION =       1.0000000000

                ONE ELECTRON ENERGY =    -974.0105390602
                TWO ELECTRON ENERGY =     315.6766667308
           NUCLEAR REPULSION ENERGY =     110.1097253931
                                      ------------------
                       TOTAL ENERGY =    -548.2241469363

 ELECTRON-ELECTRON POTENTIAL ENERGY =     315.6766667308
  NUCLEUS-ELECTRON POTENTIAL ENERGY =   -1521.9123202972
   NUCLEUS-NUCLEUS POTENTIAL ENERGY =     110.1097253931
                                      ------------------
             TOTAL POTENTIAL ENERGY =   -1096.1259281733
               TOTAL KINETIC ENERGY =     547.9017812370
                 VIRIAL RATIO (V/T) =       2.0005883640

          ---------------------------------------
          MULLIKEN AND LOWDIN POPULATION ANALYSES
          ---------------------------------------

     ATOMIC MULLIKEN POPULATION IN EACH MOLECULAR ORBITAL

                      1          2          3          4          5

                  2.000000   2.000000   2.000000   2.000000   2.000000

    1             1.999878   0.001362   0.000866   2.001123   2.000119
    2             0.000061   1.028462   0.970424  -0.000561  -0.000059
    3             0.000061   0.970176   1.028710  -0.000561  -0.000059

                      6          7          8          9         10

                  2.000000   2.000000   2.000000   2.000000   2.000000

    1             2.000038   2.000029   0.739165   0.514791   0.779753
    2            -0.000019  -0.000015   0.630413   0.742609   0.610122
    3            -0.000019  -0.000015   0.630422   0.742599   0.610126

                     11         12         13         14         15

                  2.000000   2.000000   2.000000   2.000000   2.000000

    1             0.983556   0.876541   0.361048   0.133624   0.160698
    2             0.508221   0.561730   0.819477   0.933188   0.919652
    3             0.508223   0.561729   0.819475   0.933187   0.919651

                     16

                  2.000000

    1             0.915163
    2             0.542419
    3             0.542418

               ----- POPULATIONS IN EACH AO -----
                             MULLIKEN      LOWDIN
              1  S  1  S      1.99979     1.99922
              2  S  1  S      1.99182     1.88067
              3  S  1  S      1.26132     0.62043
              4  S  1  S      0.65330     0.51083
              5  S  1  X      1.99439     1.95874
              6  S  1  Y      1.99517     1.96710
              7  S  1  Z      1.99373     1.95942
              8  S  1  X      0.84284     0.66190
              9  S  1  Y      1.03436     0.94342
             10  S  1  Z      0.83037     0.72764
             11  S  1  X      0.03143     0.19263
             12  S  1  Y      0.11428     0.25790
             13  S  1  Z      0.14332     0.25492
             14  S  1 XX      0.05734     0.37067
             15  S  1 YY      0.20563     0.31978
             16  S  1 ZZ      0.16885     0.29419
             17  S  1 XY      0.13362     0.19271
             18  S  1 XZ      0.01618     0.16328
             19  S  1 YZ      0.00000     0.01567
             20  O  2  S      1.99543     1.97249
             21  O  2  S      0.94428     0.68313
             22  O  2  S      0.87277     0.50506
             23  O  2  X      0.93452     0.89560
             24  O  2  Y      1.08202     1.05062
             25  O  2  Z      0.87338     0.83157
             26  O  2  X      0.38206     0.53732
             27  O  2  Y      0.59639     0.65560
             28  O  2  Z      0.55953     0.59643
             29  O  2 XX      0.00243     0.21074
             30  O  2 YY      0.00786     0.19419
             31  O  2 ZZ      0.00696     0.19641
             32  O  2 XY      0.00706     0.01375
             33  O  2 XZ      0.00142     0.00967
             34  O  2 YZ      0.00000     0.00187
             35  O  3  S      1.99543     1.97249
             36  O  3  S      0.94428     0.68313
             37  O  3  S      0.87277     0.50506
             38  O  3  X      0.93452     0.89560
             39  O  3  Y      1.08202     1.05062
             40  O  3  Z      0.87338     0.83157
             41  O  3  X      0.38206     0.53732
             42  O  3  Y      0.59639     0.65560
             43  O  3  Z      0.55953     0.59643
             44  O  3 XX      0.00243     0.21074
             45  O  3 YY      0.00786     0.19419
             46  O  3 ZZ      0.00696     0.19641
             47  O  3 XY      0.00706     0.01375
             48  O  3 XZ      0.00142     0.00967
             49  O  3 YZ      0.00000     0.00187

          ----- MULLIKEN ATOMIC OVERLAP POPULATIONS -----
          (OFF-DIAGONAL ELEMENTS NEED TO BE MULTIPLIED BY 2)

             1           2           3

    1   14.7609954
    2    0.3533783   7.9269955
    3    0.3533800  -0.0142500   7.9269924

          TOTAL MULLIKEN AND LOWDIN ATOMIC POPULATIONS
       ATOM         MULL.POP.    CHARGE          LOW.POP.     CHARGE
    1 S            15.467754    0.532246        15.291112    0.708888
    2 O             8.266124   -0.266124         8.354444   -0.354444
    3 O             8.266122   -0.266122         8.354444   -0.354444

          MULLIKEN SPHERICAL HARMONIC POPULATIONS
       ATOM           S       P       D      F      G      H      I    TOTAL
    1 S             5.91    8.98    0.58   0.00   0.00   0.00   0.00   15.47
    2 O             3.81    4.43    0.03   0.00   0.00   0.00   0.00    8.27
    3 O             3.81    4.43    0.03   0.00   0.00   0.00   0.00    8.27

          -------------------------------
          BOND ORDER AND VALENCE ANALYSIS     BOND ORDER THRESHOLD=0.050
          -------------------------------

                   BOND                       BOND                       BOND
  ATOM PAIR DIST  ORDER      ATOM PAIR DIST  ORDER      ATOM PAIR DIST  ORDER
    1   2  1.400  1.956        1   3  1.400  1.956        2   3  2.538  0.218

                       TOTAL       BONDED        FREE
      ATOM            VALENCE     VALENCE     VALENCE
    1 S                 3.912       3.912       0.000
    2 O                 2.174       2.174       0.000
    3 O                 2.174       2.174      -0.000

          ---------------------
          ELECTROSTATIC MOMENTS
          ---------------------

 POINT   1           X           Y           Z (BOHR)    CHARGE
                -0.000000   -0.000000    0.000000        0.00 (A.U.)
         DX          DY          DZ         /D/  (DEBYE)
    -0.000002   -0.948728    0.000000    0.948728
 ...... END OF PROPERTY EVALUATION ......
 STEP CPU TIME =     0.01 TOTAL CPU TIME =          2.7 (      0.0 MIN)
 TOTAL WALL CLOCK TIME=          2.7 SECONDS, CPU UTILIZATION IS    98.52%
                580000  WORDS OF DYNAMIC MEMORY USED
 EXECUTION OF GAMESS TERMINATED NORMALLY Sun Sep 29 10:46:08 2019
 DDI: 263640 bytes (0.3 MB / 0 MWords) used by master data server.

 ----------------------------------------
 CPU timing information for all processes
 ========================================
 0: 2.593 + 0.81 = 2.674
 ----------------------------------------
 ddikick.x: exited gracefully.
----- accounting info -----
Files used on the master node crcfe02.crc.nd.edu were:
-rw-r--r-- 1 cdrisko campus     208 Sep 29 10:46 /afs/crc.nd.edu/user/c/cdrisko/SO2.F05
-rw-r--r-- 1 cdrisko campus   37566 Sep 29 10:46 /afs/crc.nd.edu/user/c/cdrisko/SO2.F07
-rw-r--r-- 1 cdrisko campus 4140368 Sep 29 10:46 /afs/crc.nd.edu/user/c/cdrisko/SO2.F08
-rw-r--r-- 1 cdrisko campus 1766880 Sep 29 10:46 /afs/crc.nd.edu/user/c/cdrisko/SO2.F10
Sun Sep 29 10:46:11 EDT 2019
0.433u 0.235s 0:06.34 10.4%	0+0k 0+24io 0pf+0w
