  12  12   0   0
  0.6189019E+02  0.5880300E-09  0.5880300E-09  0.2480125E-08  0.5000000E-15
  1.000000000000000E-004
  CAR 
 unknown system                          
      9.75112736    -10.74924758  301     -1.20698145      1.00000000
    -10.749  0.0000E+00  0.0000E+00
    -10.681  0.0000E+00  0.0000E+00
    -10.613 -0.1878E-33 -0.1283E-34
    -10.544 -0.1443E-28 -0.9864E-30
    -10.476 -0.4327E-24 -0.2957E-25
    -10.408 -0.5054E-20 -0.3454E-21
    -10.339 -0.2194E-16 -0.1500E-17
    -10.271 -0.3893E-13 -0.2661E-14
    -10.203 -0.2615E-10 -0.1789E-11
    -10.134 -0.6700E-08 -0.4596E-09
    -10.066 -0.6458E-06 -0.4459E-07
     -9.998 -0.2287E-04 -0.1607E-05
     -9.929 -0.2851E-03 -0.2109E-04
     -9.861 -0.1101E-02 -0.9635E-04
     -9.793  0.7949E-03 -0.4203E-04
     -9.724  0.1933E-01  0.1279E-02
     -9.656  0.5458E-01  0.5008E-02
     -9.588  0.4526E-01  0.8101E-02
     -9.519  0.2943E-01  0.1011E-01
     -9.451  0.7004E-01  0.1490E-01
     -9.383  0.8396E-01  0.2064E-01
     -9.314  0.3872E-01  0.2328E-01
     -9.246 -0.6880E-03  0.2323E-01
     -9.178  0.4789E-01  0.2651E-01
     -9.109  0.1142E+00  0.3431E-01
     -9.041  0.7215E-01  0.3924E-01
     -8.973  0.5191E-01  0.4279E-01
     -8.904  0.3791E-01  0.4538E-01
     -8.836  0.8064E-03  0.4543E-01
     -8.768  0.3136E-01  0.4757E-01
     -8.699  0.1249E+00  0.5611E-01
     -8.631  0.1366E+00  0.6544E-01
     -8.563  0.4441E-01  0.6847E-01
     -8.494  0.3271E-01  0.7071E-01
     -8.426  0.5043E-01  0.7415E-01
     -8.358  0.1096E-01  0.7490E-01
     -8.289  0.3473E-01  0.7728E-01
     -8.221  0.1443E+00  0.8714E-01
     -8.153  0.2042E+00  0.1011E+00
     -8.084  0.1490E+00  0.1113E+00
     -8.016  0.7300E-01  0.1163E+00
     -7.948  0.8971E-01  0.1224E+00
     -7.879  0.9166E-01  0.1287E+00
     -7.811  0.1412E+00  0.1383E+00
     -7.743  0.3275E+00  0.1607E+00
     -7.674  0.3260E+00  0.1830E+00
     -7.606  0.2449E+00  0.1997E+00
     -7.538  0.4188E+00  0.2283E+00
     -7.469  0.5859E+00  0.2684E+00
     -7.401  0.4084E+00  0.2963E+00
     -7.333  0.3633E+00  0.3211E+00
     -7.264  0.7014E+00  0.3690E+00
     -7.196  0.7087E+00  0.4174E+00
     -7.128  0.5244E+00  0.4533E+00
     -7.059  0.6830E+00  0.4999E+00
     -6.991  0.1061E+01  0.5725E+00
     -6.923  0.1258E+01  0.6585E+00
     -6.854  0.1228E+01  0.7424E+00
     -6.786  0.1449E+01  0.8415E+00
     -6.718  0.1820E+01  0.9658E+00
     -6.649  0.1484E+01  0.1067E+01
     -6.581  0.8828E+00  0.1128E+01
     -6.513  0.7800E+00  0.1181E+01
     -6.444  0.8409E+00  0.1238E+01
     -6.376  0.6107E+00  0.1280E+01
     -6.307  0.4384E+00  0.1310E+01
     -6.239  0.5895E+00  0.1350E+01
     -6.171  0.7262E+00  0.1400E+01
     -6.102  0.8496E+00  0.1458E+01
     -6.034  0.8657E+00  0.1517E+01
     -5.966  0.5979E+00  0.1558E+01
     -5.897  0.5479E+00  0.1595E+01
     -5.829  0.1303E+01  0.1684E+01
     -5.761  0.1954E+01  0.1818E+01
     -5.692  0.1619E+01  0.1929E+01
     -5.624  0.1125E+01  0.2006E+01
     -5.556  0.1298E+01  0.2094E+01
     -5.487  0.1885E+01  0.2223E+01
     -5.419  0.1903E+01  0.2353E+01
     -5.351  0.1256E+01  0.2439E+01
     -5.282  0.1128E+01  0.2516E+01
     -5.214  0.1579E+01  0.2624E+01
     -5.146  0.1811E+01  0.2748E+01
     -5.077  0.1883E+01  0.2876E+01
     -5.009  0.2003E+01  0.3013E+01
     -4.941  0.1911E+01  0.3144E+01
     -4.872  0.1780E+01  0.3265E+01
     -4.804  0.1440E+01  0.3364E+01
     -4.736  0.1241E+01  0.3449E+01
     -4.667  0.1430E+01  0.3546E+01
     -4.599  0.1469E+01  0.3647E+01
     -4.531  0.1313E+01  0.3736E+01
     -4.462  0.9175E+00  0.3799E+01
     -4.394  0.6370E+00  0.3843E+01
     -4.326  0.9659E+00  0.3909E+01
     -4.257  0.1779E+01  0.4030E+01
     -4.189  0.2190E+01  0.4180E+01
     -4.121  0.2131E+01  0.4325E+01
     -4.052  0.2268E+01  0.4480E+01
     -3.984  0.1920E+01  0.4612E+01
     -3.916  0.1298E+01  0.4700E+01
     -3.847  0.1133E+01  0.4778E+01
     -3.779  0.1118E+01  0.4854E+01
     -3.711  0.1198E+01  0.4936E+01
     -3.642  0.1446E+01  0.5035E+01
     -3.574  0.1267E+01  0.5121E+01
     -3.506  0.1146E+01  0.5200E+01
     -3.437  0.1557E+01  0.5306E+01
     -3.369  0.1742E+01  0.5425E+01
     -3.301  0.1740E+01  0.5544E+01
     -3.232  0.2393E+01  0.5708E+01
     -3.164  0.3007E+01  0.5913E+01
     -3.096  0.1914E+01  0.6044E+01
     -3.027  0.1000E+01  0.6112E+01
     -2.959  0.1085E+01  0.6186E+01
     -2.891  0.9541E+00  0.6252E+01
     -2.822  0.7945E+00  0.6306E+01
     -2.754  0.6026E+00  0.6347E+01
     -2.686  0.2705E+00  0.6366E+01
     -2.617  0.4189E-01  0.6368E+01
     -2.549  0.3311E-01  0.6371E+01
     -2.481  0.4269E-01  0.6374E+01
     -2.412  0.1529E-02  0.6374E+01
     -2.344  0.5999E-03  0.6374E+01
     -2.276  0.9744E-01  0.6380E+01
     -2.207  0.3300E+00  0.6403E+01
     -2.139  0.4810E+00  0.6436E+01
     -2.071  0.4239E+00  0.6465E+01
     -2.002  0.3139E+00  0.6486E+01
     -1.934  0.2099E+00  0.6501E+01
     -1.866  0.1169E+00  0.6509E+01
     -1.797  0.1065E+00  0.6516E+01
     -1.729  0.8155E-01  0.6521E+01
     -1.661  0.1410E-01  0.6522E+01
     -1.592  0.6845E-01  0.6527E+01
     -1.524  0.1547E+00  0.6538E+01
     -1.456  0.9466E-01  0.6544E+01
     -1.387  0.2403E-01  0.6546E+01
     -1.319  0.6598E-01  0.6550E+01
     -1.251  0.3179E+00  0.6572E+01
     -1.182  0.6739E+00  0.6618E+01
     -1.114  0.6059E+00  0.6659E+01
     -1.046  0.2786E+00  0.6679E+01
     -0.977  0.1391E+00  0.6688E+01
     -0.909  0.1102E+00  0.6696E+01
     -0.841  0.1270E+00  0.6704E+01
     -0.772  0.9054E-01  0.6710E+01
     -0.704  0.9178E-01  0.6717E+01
     -0.636  0.1674E+00  0.6728E+01
     -0.567  0.1472E+00  0.6738E+01
     -0.499  0.1492E+00  0.6748E+01
     -0.431  0.1049E+00  0.6756E+01
     -0.362  0.1640E-01  0.6757E+01
     -0.294  0.1912E-01  0.6758E+01
     -0.226  0.1350E+00  0.6767E+01
     -0.157  0.4401E+00  0.6797E+01
     -0.089  0.7402E+00  0.6848E+01
     -0.021  0.5833E+00  0.6888E+01
      0.048  0.2635E+00  0.6906E+01
      0.116  0.1233E+00  0.6914E+01
      0.184  0.1337E+00  0.6923E+01
      0.253  0.1187E+00  0.6931E+01
      0.321  0.5252E-01  0.6935E+01
      0.389  0.4797E-01  0.6938E+01
      0.458  0.5081E-01  0.6942E+01
      0.526  0.7650E-01  0.6947E+01
      0.594  0.1378E+00  0.6956E+01
      0.663  0.8394E-01  0.6962E+01
      0.731  0.6123E-01  0.6966E+01
      0.799  0.3194E+00  0.6988E+01
      0.868  0.4684E+00  0.7020E+01
      0.936  0.3419E+00  0.7043E+01
      1.004  0.2995E+00  0.7064E+01
      1.073  0.4199E+00  0.7093E+01
      1.141  0.3157E+00  0.7114E+01
      1.209  0.8688E-01  0.7120E+01
      1.278  0.7985E-01  0.7126E+01
      1.346  0.1953E+00  0.7139E+01
      1.414  0.1937E+00  0.7152E+01
      1.483  0.6952E-01  0.7157E+01
      1.551  0.4046E-02  0.7157E+01
      1.619  0.6559E-01  0.7162E+01
      1.688  0.1358E+00  0.7171E+01
      1.756  0.2083E+00  0.7185E+01
      1.824  0.3377E+00  0.7208E+01
      1.893  0.2642E+00  0.7226E+01
      1.961  0.6703E-01  0.7231E+01
      2.029  0.1176E-01  0.7232E+01
      2.098  0.1331E+00  0.7241E+01
      2.166  0.3066E+00  0.7262E+01
      2.234  0.4757E+00  0.7294E+01
      2.303  0.4427E+00  0.7325E+01
      2.371  0.2473E+00  0.7341E+01
      2.439  0.1383E+00  0.7351E+01
      2.508  0.5162E-01  0.7354E+01
      2.576  0.1431E+00  0.7364E+01
      2.644  0.3032E+00  0.7385E+01
      2.713  0.2615E+00  0.7403E+01
      2.781  0.1525E+00  0.7413E+01
      2.849  0.1694E+00  0.7425E+01
      2.918  0.2617E+00  0.7443E+01
      2.986  0.2654E+00  0.7461E+01
      3.054  0.2042E+00  0.7475E+01
      3.123  0.3496E+00  0.7499E+01
      3.191  0.3675E+00  0.7524E+01
      3.259  0.2045E+00  0.7538E+01
      3.328  0.1206E+00  0.7546E+01
      3.396  0.7273E-01  0.7551E+01
      3.464  0.1827E+00  0.7563E+01
      3.533  0.2349E+00  0.7579E+01
      3.601  0.1592E+00  0.7590E+01
      3.669  0.1599E+00  0.7601E+01
      3.738  0.3498E+00  0.7625E+01
      3.806  0.6516E+00  0.7670E+01
      3.874  0.6161E+00  0.7712E+01
      3.943  0.3242E+00  0.7734E+01
      4.011  0.1991E+00  0.7748E+01
      4.079  0.1862E+00  0.7760E+01
      4.148  0.3895E+00  0.7787E+01
      4.216  0.5630E+00  0.7825E+01
      4.284  0.4073E+00  0.7853E+01
      4.353  0.3127E+00  0.7875E+01
      4.421  0.3328E+00  0.7897E+01
      4.489  0.4483E+00  0.7928E+01
      4.558  0.5357E+00  0.7965E+01
      4.626  0.5192E+00  0.8000E+01
      4.694  0.4469E+00  0.8031E+01
      4.763  0.2777E+00  0.8050E+01
      4.831  0.3485E+00  0.8073E+01
      4.899  0.4408E+00  0.8104E+01
      4.968  0.3452E+00  0.8127E+01
      5.036  0.3958E+00  0.8154E+01
      5.104  0.4418E+00  0.8184E+01
      5.173  0.3168E+00  0.8206E+01
      5.241  0.3250E+00  0.8228E+01
      5.309  0.4093E+00  0.8256E+01
      5.378  0.3847E+00  0.8282E+01
      5.446  0.5216E+00  0.8318E+01
      5.514  0.8314E+00  0.8375E+01
      5.583  0.7355E+00  0.8425E+01
      5.651  0.3479E+00  0.8449E+01
      5.719  0.1576E+00  0.8460E+01
      5.788  0.2442E+00  0.8476E+01
      5.856  0.3595E+00  0.8501E+01
      5.924  0.5233E+00  0.8537E+01
      5.993  0.7197E+00  0.8586E+01
      6.061  0.7717E+00  0.8639E+01
      6.129  0.6634E+00  0.8684E+01
      6.198  0.5833E+00  0.8724E+01
      6.266  0.4346E+00  0.8754E+01
      6.334  0.1584E+00  0.8764E+01
      6.403  0.1307E+00  0.8773E+01
      6.471  0.4110E+00  0.8801E+01
      6.539  0.6673E+00  0.8847E+01
      6.608  0.9056E+00  0.8909E+01
      6.676  0.9352E+00  0.8973E+01
      6.744  0.5646E+00  0.9011E+01
      6.813  0.3574E+00  0.9036E+01
      6.881  0.4329E+00  0.9065E+01
      6.949  0.3451E+00  0.9089E+01
      7.018  0.1906E+00  0.9102E+01
      7.086  0.4463E+00  0.9132E+01
      7.154  0.7599E+00  0.9184E+01
      7.223  0.7524E+00  0.9236E+01
      7.291  0.5213E+00  0.9271E+01
      7.359  0.5806E+00  0.9311E+01
      7.428  0.7609E+00  0.9363E+01
      7.496  0.6227E+00  0.9406E+01
      7.564  0.6775E+00  0.9452E+01
      7.633  0.7120E+00  0.9501E+01
      7.701  0.5143E+00  0.9536E+01
      7.769  0.3751E+00  0.9561E+01
      7.838  0.2097E+00  0.9576E+01
      7.906  0.3373E-01  0.9578E+01
      7.974  0.4230E-01  0.9581E+01
      8.043  0.8691E-01  0.9587E+01
      8.111  0.6004E-01  0.9591E+01
      8.179  0.1010E-01  0.9592E+01
      8.248 -0.5713E-02  0.9591E+01
      8.316  0.8622E-03  0.9591E+01
      8.384  0.3730E-01  0.9594E+01
      8.453  0.5698E-01  0.9598E+01
      8.521  0.1864E-01  0.9599E+01
      8.589 -0.2791E-02  0.9599E+01
      8.658 -0.1146E-02  0.9599E+01
      8.726  0.5537E-02  0.9599E+01
      8.794  0.9677E-02  0.9600E+01
      8.863  0.3652E-02  0.9600E+01
      8.931 -0.3422E-03  0.9600E+01
      8.999 -0.2383E-03  0.9600E+01
      9.068 -0.2190E-04  0.9600E+01
      9.136 -0.6385E-06  0.9600E+01
      9.204 -0.6679E-08  0.9600E+01
      9.273 -0.2612E-10  0.9600E+01
      9.341 -0.3891E-13  0.9600E+01
      9.409 -0.2407E-16  0.9600E+01
      9.478  0.0000E+00  0.9600E+01
      9.546  0.0000E+00  0.9600E+01
      9.614  0.0000E+00  0.9600E+01
      9.683  0.0000E+00  0.9600E+01
      9.751  0.0000E+00  0.9600E+01
