   12   12   20    1
  0.6189019E+02  0.5880300E-09  0.5880300E-09  0.2480124E-08  0.5000000E-15
  1.000000000000000E-004
  CAR 
 unknown system                          
    132     12     96
 
  0.0000000E+00  0.0000000E+00  0.0000000E+00  0.1234568E-01
    1       -9.749248   1.000000
    2       -8.202504   1.000000
    3       -7.822864   1.000000
    4       -7.535210   1.000000
    5       -7.535209   1.000000
    6       -7.535209   1.000000
    7       -7.275674   1.000000
    8       -7.275674   1.000000
    9       -7.275674   1.000000
   10       -6.956675   1.000000
   11       -6.956675   1.000000
   12       -6.956675   1.000000
   13       -6.808040   1.000000
   14       -6.808040   1.000000
   15       -6.808040   1.000000
   16       -5.763655   1.000000
   17       -5.763655   1.000000
   18       -5.763655   1.000000
   19       -5.612042   1.000000
   20       -5.612042   1.000000
   21       -5.612041   1.000000
   22       -5.527825   1.000000
   23       -5.492558   1.000000
   24       -5.492557   1.000000
   25       -5.180501   1.000000
   26       -5.180501   1.000000
   27       -5.116736   1.000000
   28       -5.116736   1.000000
   29       -5.116736   1.000000
   30       -5.078956   1.000000
   31       -5.010550   1.000000
   32       -5.010550   1.000000
   33       -4.541580   1.000000
   34       -4.541580   1.000000
   35       -4.541580   1.000000
   36       -4.100842   1.000000
   37       -4.100842   1.000000
   38       -4.035714   1.000000
   39       -4.035714   1.000000
   40       -4.035714   1.000000
   41       -3.818092   1.000000
   42       -3.818092   1.000000
   43       -3.818092   1.000000
   44       -3.619055   1.000000
   45       -3.619055   1.000000
   46       -3.292426   1.000000
   47       -3.292426   1.000000
   48       -3.292426   1.000000
   49       -3.184796   1.000000
   50       -3.184796   1.000000
   51       -3.180694   1.000000
   52       -3.180694   1.000000
   53       -3.180694   1.000000
   54       -3.068871   1.000000
   55       -3.068870   1.000000
   56       -3.068870   1.000000
   57       -2.740031   1.000000
   58       -2.740030   1.000000
   59       -2.740030   1.000000
   60       -2.718455   1.000000
   61       -2.711384   1.000000
   62       -2.711383   1.000000
   63       -2.711383   1.000000
   64       -0.848117  -0.000002
   65       -0.848117  -0.000002
   66       -0.848115  -0.000002
   67       -0.704370  -0.000000
   68        0.006334  -0.000000
   69        0.006334  -0.000000
   70        0.006334  -0.000000
   71        0.269552  -0.000000
   72        0.269552  -0.000000
   73        0.269553  -0.000000
   74        2.153774   0.000000
   75        2.153775   0.000000
   76        2.153775   0.000000
   77        2.867634   0.000000
   78        2.867635   0.000000
   79        2.867635   0.000000
   80        3.431914   0.000000
   81        3.632388   0.000000
   82        3.632388   0.000000
   83        3.632388   0.000000
   84        3.922939   0.000000
   85        4.147624   0.000000
   86        5.247226   0.000000
   87        5.429505   0.000000
   88        6.961337   0.000000
   89        6.961337   0.000000
   90        6.961338   0.000000
   91        7.150390   0.000000
   92        7.422040   0.000000
   93        7.547125   0.000000
   94        7.547130   0.000000
   95        7.547130   0.000000
   96        8.751127   0.000000
 
  0.1111111E+00  0.0000000E+00  0.0000000E+00  0.7407407E-01
    1       -9.658712   1.000000
    2       -8.111929   1.000000
    3       -7.742245   1.000000
    4       -7.530728   1.000000
    5       -7.471441   1.000000
    6       -7.471441   1.000000
    7       -7.247930   1.000000
    8       -7.220242   1.000000
    9       -7.220242   1.000000
   10       -6.942091   1.000000
   11       -6.926438   1.000000
   12       -6.926437   1.000000
   13       -6.769059   1.000000
   14       -6.731668   1.000000
   15       -6.731668   1.000000
   16       -5.763951   1.000000
   17       -5.763951   1.000000
   18       -5.751310   1.000000
   19       -5.578832   1.000000
   20       -5.578831   1.000000
   21       -5.576264   1.000000
   22       -5.550985   1.000000
   23       -5.522608   1.000000
   24       -5.438400   1.000000
   25       -5.291355   1.000000
   26       -5.163442   1.000000
   27       -5.163442   1.000000
   28       -5.138393   1.000000
   29       -5.100368   1.000000
   30       -5.035511   1.000000
   31       -5.025933   1.000000
   32       -4.954641   1.000000
   33       -4.607293   1.000000
   34       -4.578446   1.000000
   35       -4.578446   1.000000
   36       -4.121367   1.000000
   37       -4.119048   1.000000
   38       -4.093901   1.000000
   39       -4.093901   1.000000
   40       -4.033045   1.000000
   41       -3.877856   1.000000
   42       -3.852287   1.000000
   43       -3.852287   1.000000
   44       -3.748226   1.000000
   45       -3.620614   1.000000
   46       -3.347825   1.000000
   47       -3.347824   1.000000
   48       -3.314703   1.000000
   49       -3.302289   1.000000
   50       -3.248197   1.000000
   51       -3.210101   1.000000
   52       -3.210100   1.000000
   53       -3.182917   1.000000
   54       -3.175368   1.000000
   55       -3.175367   1.000000
   56       -3.128895   1.000000
   57       -2.903563   1.000000
   58       -2.903562   1.000000
   59       -2.831123   1.000000
   60       -2.831122   1.000000
   61       -2.818171   1.000000
   62       -2.792647   1.000000
   63       -2.549398   1.000000
   64       -1.807014   1.000000
   65       -0.994650  -0.005261
   66       -0.994649  -0.005260
   67       -0.837002  -0.000001
   68       -0.469786  -0.000000
   69       -0.094008  -0.000000
   70       -0.094007  -0.000000
   71        0.786885  -0.000000
   72        0.786885  -0.000000
   73        1.150800  -0.000000
   74        2.133235   0.000000
   75        2.379457   0.000000
   76        2.379457   0.000000
   77        2.644154   0.000000
   78        2.644155   0.000000
   79        3.120615   0.000000
   80        3.489917   0.000000
   81        3.997358   0.000000
   82        4.103853   0.000000
   83        4.103854   0.000000
   84        4.214821   0.000000
   85        4.648596   0.000000
   86        5.319712   0.000000
   87        5.491050   0.000000
   88        6.598253   0.000000
   89        6.874990   0.000000
   90        6.874991   0.000000
   91        7.219885   0.000000
   92        7.245100   0.000000
   93        7.490955   0.000000
   94        7.525767   0.000000
   95        7.525771   0.000000
   96        8.404124   0.000000
 
  0.2222222E+00 -0.2775558E-16  0.0000000E+00  0.7407407E-01
    1       -9.394302   1.000000
    2       -7.852688   1.000000
    3       -7.544957   1.000000
    4       -7.513849   1.000000
    5       -7.287964   1.000000
    6       -7.287963   1.000000
    7       -7.171789   1.000000
    8       -7.068977   1.000000
    9       -7.068976   1.000000
   10       -6.896910   1.000000
   11       -6.831397   1.000000
   12       -6.831397   1.000000
   13       -6.659052   1.000000
   14       -6.513656   1.000000
   15       -6.513656   1.000000
   16       -5.780393   1.000000
   17       -5.780393   1.000000
   18       -5.710866   1.000000
   19       -5.704762   1.000000
   20       -5.540781   1.000000
   21       -5.489305   1.000000
   22       -5.478925   1.000000
   23       -5.478924   1.000000
   24       -5.445655   1.000000
   25       -5.290378   1.000000
   26       -5.290378   1.000000
   27       -5.281301   1.000000
   28       -5.085310   1.000000
   29       -5.053734   1.000000
   30       -5.024594   1.000000
   31       -5.019894   1.000000
   32       -4.794180   1.000000
   33       -4.790564   1.000000
   34       -4.707073   1.000000
   35       -4.707073   1.000000
   36       -4.228134   1.000000
   37       -4.228133   1.000000
   38       -4.223012   1.000000
   39       -4.162456   1.000000
   40       -4.059885   1.000000
   41       -4.036235   1.000000
   42       -3.991752   1.000000
   43       -3.991752   1.000000
   44       -3.957478   1.000000
   45       -3.630187   1.000000
   46       -3.629216   1.000000
   47       -3.629215   1.000000
   48       -3.492900   1.000000
   49       -3.486665   1.000000
   50       -3.485711   1.000000
   51       -3.485711   1.000000
   52       -3.438780   1.000000
   53       -3.351185   1.000000
   54       -3.351184   1.000000
   55       -3.243504   1.000000
   56       -3.177643   1.000000
   57       -3.159109   1.000000
   58       -3.159109   1.000000
   59       -3.051004   1.000000
   60       -2.979467   1.000000
   61       -2.952582   1.000000
   62       -2.952582   1.000000
   63       -2.947031   1.000000
   64       -2.198963   1.000000
   65       -1.990211   1.000000
   66       -1.136501   0.038459
   67       -1.136500   0.038457
   68       -0.126252  -0.000000
   69       -0.126251  -0.000000
   70        0.112034  -0.000000
   71        0.520618  -0.000000
   72        1.649666   0.000000
   73        1.649666   0.000000
   74        2.221434   0.000000
   75        2.221435   0.000000
   76        3.253142   0.000000
   77        3.253143   0.000000
   78        3.309078   0.000000
   79        3.663696   0.000000
   80        4.220475   0.000000
   81        4.289846   0.000000
   82        4.417421   0.000000
   83        4.885232   0.000000
   84        4.885233   0.000000
   85        5.387500   0.000000
   86        5.536916   0.000000
   87        5.677406   0.000000
   88        6.417186   0.000000
   89        6.654518   0.000000
   90        6.654519   0.000000
   91        7.161848   0.000000
   92        7.414123   0.000000
   93        7.414123   0.000000
   94        7.427242   0.000000
   95        7.552633   0.000000
   96        7.696998   0.000000
 
  0.3333333E+00  0.2775558E-16  0.0000000E+00  0.7407407E-01
    1       -8.981236   1.000000
    2       -7.666263   1.000000
    3       -7.477040   1.000000
    4       -7.188012   1.000000
    5       -7.073104   1.000000
    6       -7.019002   1.000000
    7       -7.019001   1.000000
    8       -6.878761   1.000000
    9       -6.878761   1.000000
   10       -6.824268   1.000000
   11       -6.664411   1.000000
   12       -6.664410   1.000000
   13       -6.492045   1.000000
   14       -6.189899   1.000000
   15       -6.189899   1.000000
   16       -5.898668   1.000000
   17       -5.826019   1.000000
   18       -5.826019   1.000000
   19       -5.706195   1.000000
   20       -5.658876   1.000000
   21       -5.503190   1.000000
   22       -5.503190   1.000000
   23       -5.470028   1.000000
   24       -5.441090   1.000000
   25       -5.313174   1.000000
   26       -5.313173   1.000000
   27       -5.158899   1.000000
   28       -5.046227   1.000000
   29       -5.017133   1.000000
   30       -4.995132   1.000000
   31       -4.985428   1.000000
   32       -4.912808   1.000000
   33       -4.912808   1.000000
   34       -4.880239   1.000000
   35       -4.529619   1.000000
   36       -4.421895   1.000000
   37       -4.404434   1.000000
   38       -4.404434   1.000000
   39       -4.342966   1.000000
   40       -4.225665   1.000000
   41       -4.225664   1.000000
   42       -4.183809   1.000000
   43       -4.183809   1.000000
   44       -4.164394   1.000000
   45       -4.161765   1.000000
   46       -4.104330   1.000000
   47       -4.049403   1.000000
   48       -3.820415   1.000000
   49       -3.820415   1.000000
   50       -3.724574   1.000000
   51       -3.652293   1.000000
   52       -3.651744   1.000000
   53       -3.553669   1.000000
   54       -3.553669   1.000000
   55       -3.513545   1.000000
   56       -3.438384   1.000000
   57       -3.381758   1.000000
   58       -3.199751   1.000000
   59       -3.199751   1.000000
   60       -3.170409   1.000000
   61       -3.116839   1.000000
   62       -2.971395   1.000000
   63       -2.971395   1.000000
   64       -2.787587   1.000000
   65       -1.796891   1.000000
   66       -1.176634   0.255822
   67       -1.176634   0.255820
   68       -0.276990  -0.000000
   69       -0.134354  -0.000000
   70       -0.134354  -0.000000
   71        0.876068  -0.000000
   72        1.873663   0.000000
   73        1.873664   0.000000
   74        2.828871   0.000000
   75        2.828872   0.000000
   76        3.466047   0.000000
   77        3.953552   0.000000
   78        4.168296   0.000000
   79        4.168297   0.000000
   80        4.591469   0.000000
   81        4.758115   0.000000
   82        5.264863   0.000000
   83        5.563866   0.000000
   84        5.563866   0.000000
   85        5.804692   0.000000
   86        5.897275   0.000000
   87        5.992866   0.000000
   88        6.177638   0.000000
   89        6.177638   0.000000
   90        6.465459   0.000000
   91        6.657771   0.000000
   92        7.076801   0.000000
   93        7.393487   0.000000
   94        7.393488   0.000000
   95        7.767021   0.000000
   96        7.771551   0.000000
 
  0.4444444E+00 -0.5551115E-16  0.0000000E+00  0.7407407E-01
    1       -8.476305   1.000000
    2       -7.990120   1.000000
    3       -7.133723   1.000000
    4       -7.016448   1.000000
    5       -6.880284   1.000000
    6       -6.781004   1.000000
    7       -6.781004   1.000000
    8       -6.768127   1.000000
    9       -6.745131   1.000000
   10       -6.745131   1.000000
   11       -6.439127   1.000000
   12       -6.439126   1.000000
   13       -6.287654   1.000000
   14       -6.083977   1.000000
   15       -5.998194   1.000000
   16       -5.998194   1.000000
   17       -5.851030   1.000000
   18       -5.821122   1.000000
   19       -5.821122   1.000000
   20       -5.751821   1.000000
   21       -5.683257   1.000000
   22       -5.683257   1.000000
   23       -5.458394   1.000000
   24       -5.409655   1.000000
   25       -5.196826   1.000000
   26       -5.124366   1.000000
   27       -5.124366   1.000000
   28       -5.036246   1.000000
   29       -5.036246   1.000000
   30       -4.984177   1.000000
   31       -4.914873   1.000000
   32       -4.914835   1.000000
   33       -4.890919   1.000000
   34       -4.764736   1.000000
   35       -4.764735   1.000000
   36       -4.680871   1.000000
   37       -4.680871   1.000000
   38       -4.678930   1.000000
   39       -4.665297   1.000000
   40       -4.663483   1.000000
   41       -4.642546   1.000000
   42       -4.342204   1.000000
   43       -4.271984   1.000000
   44       -4.251242   1.000000
   45       -4.251242   1.000000
   46       -4.192296   1.000000
   47       -4.153043   1.000000
   48       -4.073319   1.000000
   49       -4.073318   1.000000
   50       -4.032779   1.000000
   51       -3.831215   1.000000
   52       -3.787536   1.000000
   53       -3.673845   1.000000
   54       -3.635734   1.000000
   55       -3.635734   1.000000
   56       -3.634333   1.000000
   57       -3.385319   1.000000
   58       -3.203000   1.000000
   59       -3.203000   1.000000
   60       -3.168415   1.000000
   61       -3.162777   1.000000
   62       -3.151941   1.000000
   63       -2.967447   1.000000
   64       -2.967447   1.000000
   65       -1.366890   1.023108
   66       -1.180683   0.285746
   67       -1.180683   0.285746
   68       -0.882638  -0.000022
   69       -0.136631  -0.000000
   70       -0.136631  -0.000000
   71        1.733297   0.000000
   72        1.794133   0.000000
   73        1.794133   0.000000
   74        2.628595   0.000000
   75        3.839037   0.000000
   76        3.839037   0.000000
   77        4.361775   0.000000
   78        4.777368   0.000000
   79        4.777368   0.000000
   80        4.887798   0.000000
   81        5.107238   0.000000
   82        5.240210   0.000000
   83        5.447299   0.000000
   84        5.447299   0.000000
   85        5.756039   0.000000
   86        5.864712   0.000000
   87        6.055762   0.000000
   88        6.055762   0.000000
   89        6.390278   0.000000
   90        6.444704   0.000000
   91        6.903730   0.000000
   92        7.041364   0.000000
   93        7.357055   0.000000
   94        7.357057   0.000000
   95        7.603030   0.000000
   96        7.723365   0.000000
 
  0.2222222E+00  0.1111111E+00  0.0000000E+00  0.7407407E-01
    1       -9.481033   1.000000
    2       -7.936341   1.000000
    3       -7.587034   1.000000
    4       -7.467928   1.000000
    5       -7.467927   1.000000
    6       -7.294517   1.000000
    7       -7.165506   1.000000
    8       -7.165506   1.000000
    9       -7.097338   1.000000
   10       -6.894407   1.000000
   11       -6.894407   1.000000
   12       -6.847457   1.000000
   13       -6.660104   1.000000
   14       -6.660104   1.000000
   15       -6.546664   1.000000
   16       -5.786222   1.000000
   17       -5.742176   1.000000
   18       -5.742176   1.000000
   19       -5.658929   1.000000
   20       -5.521562   1.000000
   21       -5.517620   1.000000
   22       -5.511974   1.000000
   23       -5.511973   1.000000
   24       -5.418397   1.000000
   25       -5.329433   1.000000
   26       -5.282575   1.000000
   27       -5.146696   1.000000
   28       -5.146696   1.000000
   29       -5.085774   1.000000
   30       -5.043655   1.000000
   31       -5.022486   1.000000
   32       -4.840239   1.000000
   33       -4.701071   1.000000
   34       -4.701071   1.000000
   35       -4.646286   1.000000
   36       -4.232559   1.000000
   37       -4.193285   1.000000
   38       -4.144016   1.000000
   39       -4.092263   1.000000
   40       -4.092263   1.000000
   41       -3.984435   1.000000
   42       -3.984435   1.000000
   43       -3.915060   1.000000
   44       -3.870728   1.000000
   45       -3.688350   1.000000
   46       -3.535570   1.000000
   47       -3.439015   1.000000
   48       -3.439015   1.000000
   49       -3.414687   1.000000
   50       -3.414686   1.000000
   51       -3.398799   1.000000
   52       -3.352677   1.000000
   53       -3.287639   1.000000
   54       -3.287639   1.000000
   55       -3.217255   1.000000
   56       -3.199607   1.000000
   57       -3.190333   1.000000
   58       -3.040976   1.000000
   59       -3.040975   1.000000
   60       -2.968138   1.000000
   61       -2.968137   1.000000
   62       -2.952704   1.000000
   63       -2.299562   1.000000
   64       -2.122457   1.000000
   65       -2.122457   1.000000
   66       -1.205606   0.488361
   67       -1.205606   0.488358
   68       -0.119653  -0.000000
   69       -0.066701  -0.000000
   70        0.387665  -0.000000
   71        0.882587  -0.000000
   72        1.085641  -0.000000
   73        1.085642  -0.000000
   74        2.219895   0.000000
   75        2.602982   0.000000
   76        2.602983   0.000000
   77        3.110797   0.000000
   78        3.605797   0.000000
   79        3.854875   0.000000
   80        3.855070   0.000000
   81        3.855070   0.000000
   82        4.146149   0.000000
   83        4.349722   0.000000
   84        5.119491   0.000000
   85        5.119491   0.000000
   86        5.464596   0.000000
   87        5.615014   0.000000
   88        6.688566   0.000000
   89        6.688567   0.000000
   90        6.900875   0.000000
   91        6.900875   0.000000
   92        7.334973   0.000000
   93        7.338801   0.000000
   94        7.358393   0.000000
   95        7.628453   0.000000
   96        8.052554   0.000000
 
  0.3333333E+00  0.1111111E+00  0.0000000E+00  0.1481481E+00
    1       -9.140364   1.000000
    2       -7.612013   1.000000
    3       -7.519898   1.000000
    4       -7.303763   1.000000
    5       -7.297487   1.000000
    6       -7.070632   1.000000
    7       -7.023716   1.000000
    8       -6.989606   1.000000
    9       -6.923075   1.000000
   10       -6.830857   1.000000
   11       -6.783374   1.000000
   12       -6.692730   1.000000
   13       -6.526030   1.000000
   14       -6.418332   1.000000
   15       -6.247103   1.000000
   16       -5.850261   1.000000
   17       -5.836675   1.000000
   18       -5.756377   1.000000
   19       -5.697585   1.000000
   20       -5.612825   1.000000
   21       -5.515277   1.000000
   22       -5.435735   1.000000
   23       -5.420216   1.000000
   24       -5.414274   1.000000
   25       -5.387568   1.000000
   26       -5.315965   1.000000
   27       -5.148776   1.000000
   28       -5.144474   1.000000
   29       -5.107847   1.000000
   30       -5.067273   1.000000
   31       -4.921847   1.000000
   32       -4.877703   1.000000
   33       -4.859234   1.000000
   34       -4.811367   1.000000
   35       -4.614448   1.000000
   36       -4.385395   1.000000
   37       -4.321273   1.000000
   38       -4.283194   1.000000
   39       -4.252048   1.000000
   40       -4.224121   1.000000
   41       -4.126580   1.000000
   42       -4.099065   1.000000
   43       -4.084593   1.000000
   44       -4.029120   1.000000
   45       -3.991804   1.000000
   46       -3.938151   1.000000
   47       -3.925790   1.000000
   48       -3.772603   1.000000
   49       -3.764098   1.000000
   50       -3.694707   1.000000
   51       -3.626767   1.000000
   52       -3.490444   1.000000
   53       -3.487346   1.000000
   54       -3.426188   1.000000
   55       -3.397149   1.000000
   56       -3.265997   1.000000
   57       -3.229138   1.000000
   58       -3.208248   1.000000
   59       -3.175415   1.000000
   60       -3.156232   1.000000
   61       -3.029722   1.000000
   62       -3.028247   1.000000
   63       -2.885012   1.000000
   64       -2.224050   1.000000
   65       -2.102505   1.000000
   66       -1.939605   1.000000
   67       -1.262740   0.900070
   68       -0.081899  -0.000000
   69        0.186960  -0.000000
   70        0.593559  -0.000000
   71        0.912759  -0.000000
   72        1.055151  -0.000000
   73        1.325031  -0.000000
   74        2.723227   0.000000
   75        3.073932   0.000000
   76        3.462350   0.000000
   77        3.771859   0.000000
   78        3.837564   0.000000
   79        4.443395   0.000000
   80        4.500697   0.000000
   81        4.518730   0.000000
   82        4.621391   0.000000
   83        4.662192   0.000000
   84        5.525769   0.000000
   85        5.753823   0.000000
   86        5.865933   0.000000
   87        6.072325   0.000000
   88        6.086884   0.000000
   89        6.578542   0.000000
   90        6.578869   0.000000
   91        7.078713   0.000000
   92        7.131742   0.000000
   93        7.159237   0.000000
   94        7.632812   0.000000
   95        7.682775   0.000000
   96        7.774087   0.000000
 
  0.4444444E+00  0.1111111E+00  0.0000000E+00  0.1481481E+00
    1       -8.674019   1.000000
    2       -7.737632   1.000000
    3       -7.226319   1.000000
    4       -7.076615   1.000000
    5       -6.976345   1.000000
    6       -6.966347   1.000000
    7       -6.804090   1.000000
    8       -6.763056   1.000000
    9       -6.746958   1.000000
   10       -6.724739   1.000000
   11       -6.594749   1.000000
   12       -6.474464   1.000000
   13       -6.345888   1.000000
   14       -6.095453   1.000000
   15       -6.045571   1.000000
   16       -6.016314   1.000000
   17       -5.812942   1.000000
   18       -5.811547   1.000000
   19       -5.800677   1.000000
   20       -5.720591   1.000000
   21       -5.652641   1.000000
   22       -5.594356   1.000000
   23       -5.486197   1.000000
   24       -5.479706   1.000000
   25       -5.230936   1.000000
   26       -5.218644   1.000000
   27       -5.197535   1.000000
   28       -5.102454   1.000000
   29       -5.083847   1.000000
   30       -5.038727   1.000000
   31       -4.974793   1.000000
   32       -4.939033   1.000000
   33       -4.884801   1.000000
   34       -4.784230   1.000000
   35       -4.706406   1.000000
   36       -4.574905   1.000000
   37       -4.562151   1.000000
   38       -4.553945   1.000000
   39       -4.533642   1.000000
   40       -4.495832   1.000000
   41       -4.436780   1.000000
   42       -4.296291   1.000000
   43       -4.280079   1.000000
   44       -4.263007   1.000000
   45       -4.226852   1.000000
   46       -4.181894   1.000000
   47       -4.063692   1.000000
   48       -4.035399   1.000000
   49       -4.022879   1.000000
   50       -3.925760   1.000000
   51       -3.741507   1.000000
   52       -3.717867   1.000000
   53       -3.618743   1.000000
   54       -3.537661   1.000000
   55       -3.493188   1.000000
   56       -3.404301   1.000000
   57       -3.389057   1.000000
   58       -3.269386   1.000000
   59       -3.196391   1.000000
   60       -3.195771   1.000000
   61       -3.172487   1.000000
   62       -3.039408   1.000000
   63       -3.027976   1.000000
   64       -2.881426   1.000000
   65       -2.050253   1.000000
   66       -1.534190   1.000019
   67       -1.240200   0.764661
   68       -0.533184  -0.000000
   69       -0.185874  -0.000000
   70        0.816721  -0.000000
   71        1.053639  -0.000000
   72        1.393887  -0.000000
   73        2.268681   0.000000
   74        2.943536   0.000000
   75        3.152142   0.000000
   76        3.752318   0.000000
   77        4.186675   0.000000
   78        4.314158   0.000000
   79        4.840621   0.000000
   80        4.887580   0.000000
   81        5.022261   0.000000
   82        5.032825   0.000000
   83        5.220370   0.000000
   84        5.917502   0.000000
   85        5.991881   0.000000
   86        6.158167   0.000000
   87        6.184038   0.000000
   88        6.248261   0.000000
   89        6.254041   0.000000
   90        6.518279   0.000000
   91        6.531250   0.000000
   92        7.201874   0.000000
   93        7.377702   0.000000
   94        7.510422   0.000000
   95        7.555048   0.000000
   96        7.593360   0.000000
 
 -0.4444444E+00  0.1111111E+00  0.0000000E+00  0.7407407E-01
    1       -8.160962   1.000000
    2       -8.160962   1.000000
    3       -6.982896   1.000000
    4       -6.982896   1.000000
    5       -6.959475   1.000000
    6       -6.737122   1.000000
    7       -6.737122   1.000000
    8       -6.732099   1.000000
    9       -6.673541   1.000000
   10       -6.604124   1.000000
   11       -6.395044   1.000000
   12       -6.298027   1.000000
   13       -6.157320   1.000000
   14       -6.157320   1.000000
   15       -6.108884   1.000000
   16       -6.083750   1.000000
   17       -5.898877   1.000000
   18       -5.898876   1.000000
   19       -5.845856   1.000000
   20       -5.755589   1.000000
   21       -5.673826   1.000000
   22       -5.520900   1.000000
   23       -5.425829   1.000000
   24       -5.425829   1.000000
   25       -5.248195   1.000000
   26       -5.176184   1.000000
   27       -5.176184   1.000000
   28       -5.085078   1.000000
   29       -5.053516   1.000000
   30       -5.043855   1.000000
   31       -5.043855   1.000000
   32       -4.995834   1.000000
   33       -4.942985   1.000000
   34       -4.856264   1.000000
   35       -4.836017   1.000000
   36       -4.836017   1.000000
   37       -4.757887   1.000000
   38       -4.730210   1.000000
   39       -4.664657   1.000000
   40       -4.664657   1.000000
   41       -4.492743   1.000000
   42       -4.492743   1.000000
   43       -4.273017   1.000000
   44       -4.208479   1.000000
   45       -4.208479   1.000000
   46       -4.169751   1.000000
   47       -4.159299   1.000000
   48       -4.105625   1.000000
   49       -3.923364   1.000000
   50       -3.923364   1.000000
   51       -3.845655   1.000000
   52       -3.845655   1.000000
   53       -3.673309   1.000000
   54       -3.663547   1.000000
   55       -3.663546   1.000000
   56       -3.580214   1.000000
   57       -3.271475   1.000000
   58       -3.271475   1.000000
   59       -3.265364   1.000000
   60       -3.199380   1.000000
   61       -3.149783   1.000000
   62       -3.149783   1.000000
   63       -3.040144   1.000000
   64       -3.023442   1.000000
   65       -2.029570   1.000000
   66       -1.226803   0.664146
   67       -1.081424  -0.035317
   68       -1.081424  -0.035317
   69       -0.220180  -0.000000
   70        0.788050  -0.000000
   71        1.021605  -0.000000
   72        2.267079   0.000000
   73        2.267079   0.000000
   74        2.543589   0.000000
   75        3.565071   0.000000
   76        3.716405   0.000000
   77        4.615779   0.000000
   78        4.655496   0.000000
   79        4.655496   0.000000
   80        5.170329   0.000000
   81        5.255362   0.000000
   82        5.473050   0.000000
   83        5.473050   0.000000
   84        5.569652   0.000000
   85        5.586610   0.000000
   86        5.586610   0.000000
   87        5.934412   0.000000
   88        6.585566   0.000000
   89        6.721498   0.000000
   90        6.721498   0.000000
   91        6.776862   0.000000
   92        6.776862   0.000000
   93        7.166997   0.000000
   94        7.280998   0.000000
   95        7.393810   0.000000
   96        7.517501   0.000000
 
  0.4444444E+00  0.2222222E+00  0.0000000E+00  0.7407407E-01
    1       -8.741166   1.000000
    2       -7.420101   1.000000
    3       -7.420101   1.000000
    4       -7.256699   1.000000
    5       -6.992489   1.000000
    6       -6.882085   1.000000
    7       -6.882085   1.000000
    8       -6.766538   1.000000
    9       -6.719179   1.000000
   10       -6.699223   1.000000
   11       -6.699223   1.000000
   12       -6.483164   1.000000
   13       -6.271660   1.000000
   14       -6.271660   1.000000
   15       -6.077168   1.000000
   16       -6.013276   1.000000
   17       -5.824273   1.000000
   18       -5.766717   1.000000
   19       -5.766717   1.000000
   20       -5.735366   1.000000