       N       E                     dE             d eps       ncg     rms          rms(c)
DAV:   1     0.747804042124E+03    0.74780E+03   -0.47818E+04  2304   0.917E+02
DAV:   2    -0.393546730681E+01   -0.75174E+03   -0.69919E+03  2832   0.207E+02
DAV:   3    -0.383371500176E+02   -0.34402E+02   -0.33710E+02  2832   0.448E+01
DAV:   4    -0.387790855334E+02   -0.44194E+00   -0.44181E+00  2784   0.553E+00
DAV:   5    -0.387857634009E+02   -0.66779E-02   -0.66776E-02  3168   0.652E-01    0.226E+01
DAV:   6    -0.360040003819E+02    0.27818E+01   -0.80829E+00  2688   0.103E+01    0.160E+01
DAV:   7    -0.358862332883E+02    0.11777E+00   -0.75077E-01  2592   0.344E+00    0.645E+00
DAV:   8    -0.358760185448E+02    0.10215E-01   -0.23902E-01  2688   0.310E+00    0.135E+00
DAV:   9    -0.358608654896E+02    0.15153E-01   -0.56989E-02  2616   0.160E+00    0.176E-01
DAV:  10    -0.358613539995E+02   -0.48851E-03   -0.38669E-03  2880   0.184E-01    0.703E-02
DAV:  11    -0.358616879084E+02   -0.33391E-03   -0.12357E-04  2472   0.450E-02    0.333E-02
DAV:  12    -0.358621054633E+02   -0.41755E-03   -0.65331E-05  1944   0.229E-02    0.117E-02
DAV:  13    -0.358622334082E+02   -0.12794E-03   -0.84001E-06  2112   0.630E-03    0.558E-03
DAV:  14    -0.358625617396E+02   -0.32833E-03   -0.52288E-05  1920   0.135E-02    0.548E-03
DAV:  15    -0.358626472290E+02   -0.85489E-04   -0.71585E-06  1992   0.584E-03
   1 F= -.35862647E+02 E0= -.35857328E+02  d E =-.358626E+02
       N       E                     dE             d eps       ncg     rms          rms(c)
DAV:   1    -0.358633853939E+02   -0.82365E-03   -0.33168E-01  2472   0.140E+00    0.749E-02
DAV:   2    -0.358637143614E+02   -0.32897E-03   -0.33156E-03  2616   0.201E-01    0.416E-02
DAV:   3    -0.358636959678E+02    0.18394E-04   -0.13022E-04  1584   0.442E-02
   2 F= -.35863696E+02 E0= -.35858372E+02  d E =-.104874E-02
       N       E                     dE             d eps       ncg     rms          rms(c)
DAV:   1    -0.358639510409E+02   -0.23668E-03   -0.15875E+00  2400   0.306E+00    0.168E-01
DAV:   2    -0.358654922771E+02   -0.15412E-02   -0.15891E-02  2592   0.438E-01    0.922E-02
DAV:   3    -0.358653989299E+02    0.93347E-04   -0.68651E-04  2640   0.970E-02
   3 F= -.35865399E+02 E0= -.35860038E+02  d E =-.275170E-02
       N       E                     dE             d eps       ncg     rms          rms(c)
DAV:   1    -0.358655802942E+02   -0.88017E-04   -0.68368E-02  2496   0.639E-01    0.468E-02
DAV:   2    -0.358656410736E+02   -0.60779E-04   -0.74755E-04  2664   0.908E-02
   4 F= -.35865641E+02 E0= -.35860195E+02  d E =-.242144E-03
       N       E                     dE             d eps       ncg     rms          rms(c)
DAV:   1    -0.358658151230E+02   -0.23483E-03   -0.58353E-02  2472   0.587E-01    0.475E-02
DAV:   2    -0.358658694651E+02   -0.54342E-04   -0.59966E-04  2544   0.876E-02
   5 F= -.35865869E+02 E0= -.35860408E+02  d E =-.470535E-03
