 vasp.5.4.1 05Feb16 (build Feb 08 2018 09:21:51) complex                        
  
 executed on             LinuxIFC date 2019.11.21  23:19:13
 running on   24 total cores
 distrk:  each k-point on   24 cores,    1 groups
 distr:  one band on NCORES_PER_BAND=   1 cores,   24 groups


--------------------------------------------------------------------------------------------------------


 INCAR:
 POTCAR:    PAW_PBE Au 04Oct2007                  

 ----------------------------------------------------------------------------- 
|                                                                             |
|           W    W    AA    RRRRR   N    N  II  N    N   GGGG   !!!           |
|           W    W   A  A   R    R  NN   N  II  NN   N  G    G  !!!           |
|           W    W  A    A  R    R  N N  N  II  N N  N  G       !!!           |
|           W WW W  AAAAAA  RRRRR   N  N N  II  N  N N  G  GGG   !            |
|           WW  WW  A    A  R   R   N   NN  II  N   NN  G    G                |
|           W    W  A    A  R    R  N    N  II  N    N   GGGG   !!!           |
|                                                                             |
|      For optimal performance we recommend to set                            |
|        NCORE= 4 - approx SQRT( number of cores)                             |
|      NCORE specifies how many cores store one orbital (NPAR=cpu/NCORE).     |
|      This setting can  greatly improve the performance of VASP for DFT.     |
|      The default, NPAR=number of cores might be grossly inefficient         |
|      on modern multi-core architectures or massively parallel machines.     |
|      Do your own testing !!!!                                               |
|      Unfortunately you need to use the default for GW and RPA calculations. |
|      (for HF NCORE is supported but not extensively tested yet)             |
|                                                                             |
 ----------------------------------------------------------------------------- 

 POTCAR:    PAW_PBE Au 04Oct2007                  
   VRHFIN =Au: s1d10                                                            
   LEXCH  = PE                                                                  
   EATOM  =   926.0867 eV,   68.0654 Ry                                         
                                                                                
   TITEL  = PAW_PBE Au 04Oct2007                                                
   LULTRA =        F    use ultrasoft PP ?                                      
   IUNSCR =        1    unscreen: 0-lin 1-nonlin 2-no                           
   RPACOR =    2.330    partial core radius                                     
   POMASS =  196.966; ZVAL   =   11.000    mass and valenz                      
   RCORE  =    2.500    outmost cutoff radius                                   
   RWIGS  =    2.840; RWIGS  =    1.503    wigner-seitz radius (au A)           
   ENMAX  =  229.943; ENMIN  =  172.457 eV                                      
   ICORE  =        3    local potential                                         
   LCOR   =        T    correct aug charges                                     
   LPAW   =        T    paw PP                                                  
   EAUG   =  356.670                                                            
   DEXC   =    0.000                                                            
   RMAX   =    2.562    core radius for proj-oper                               
   RAUG   =    1.300    factor for augmentation sphere                          
   RDEP   =    2.598    radius for radial grids                                 
   RDEPT  =    2.193    core radius for aug-charge                              
                                                                                
   Atomic configuration                                                         
   16 entries                                                                   
     n  l   j            E        occ.                                          
     1  0  0.50    -80748.5001   2.0000                                         
     2  0  0.50    -14244.7466   2.0000                                         
     2  1  1.50    -12310.9591   6.0000                                         
     3  0  0.50     -3362.1768   2.0000                                         
     3  1  1.50     -2801.5463   6.0000                                         
     3  2  2.50     -2203.8206  10.0000                                         
     4  0  0.50      -729.8168   2.0000                                         
     4  1  1.50      -546.0527   6.0000                                         
     4  2  2.50      -325.7302  10.0000                                         
     4  3  3.50       -81.1472  14.0000                                         
     5  0  0.50      -108.3201   2.0000                                         
     5  1  1.50       -59.7479   6.0000                                         
     5  2  2.50        -6.8783  10.0000                                         
     6  0  0.50        -5.7602   1.0000                                         
     6  1  1.50        -6.8029   0.0000                                         
     5  3  2.50        -1.3606   0.0000                                         
   Description                                                                  
     l       E           TYP  RCUT    TYP  RCUT                                 
     2     -6.8782861     23  2.500                                             
     2     -8.2388687     23  2.500                                             
     0     -5.7601759     23  2.500                                             
     0     -0.8493231     23  2.500                                             
     1     -2.7211652     23  2.500                                             
     1     27.2116520     23  2.500                                             
     3     -1.3605826     23  2.500                                             
  local pseudopotential read in
  partial core-charges read in
  partial kinetic energy density read in
  atomic valenz-charges read in
  non local Contribution for L=           2  read in
    real space projection operators read in
  non local Contribution for L=           2  read in
    real space projection operators read in
  non local Contribution for L=           0  read in
    real space projection operators read in
  non local Contribution for L=           0  read in
    real space projection operators read in
  non local Contribution for L=           1  read in
    real space projection operators read in
  non local Contribution for L=           1  read in
    real space projection operators read in
    PAW grid and wavefunctions read in
 
   number of l-projection  operators is LMAX  =           6
   number of lm-projection operators is LMMAX =          18
 
  PAW_PBE Au 04Oct2007                  :
 energy of atom  1       EATOM= -926.0867
 kinetic energy error for atom=    0.0062 (will be added to EATOM!!)
 
 
 POSCAR: Au                                      
  positions in cartesian coordinates
  No initial velocities read in
 exchange correlation table for  LEXCH =        8
   RHO(1)=    0.500       N(1)  =     2000
   RHO(2)=  100.500       N(2)  =     4000
 


--------------------------------------------------------------------------------------------------------


 ion  position               nearest neighbor table
   1  0.167  0.167  0.403-   8 2.94   5 2.94   3 2.94   3 2.94   4 2.94   4 2.94   2 2.94   2 2.94
                             6 2.94
   2  0.667  0.167  0.403-   7 2.94   6 2.94   4 2.94   3 2.94   4 2.94   3 2.94   1 2.94   1 2.94
                             5 2.94
   3  0.167  0.667  0.403-   6 2.94   7 2.94   1 2.94   1 2.94   2 2.94   2 2.94   4 2.94   4 2.94
                             8 2.94
   4  0.667  0.667  0.403-   5 2.94   8 2.94   2 2.94   1 2.94   2 2.94   1 2.94   3 2.94   3 2.94
                             7 2.94
   5  0.833  0.333  0.500-   4 2.94   1 2.94  11 2.94   9 2.94  12 2.94   7 2.94   7 2.94   8 2.94
                             8 2.94   6 2.94   6 2.94   2 2.94
   6  0.333  0.333  0.500-   3 2.94   2 2.94  12 2.94  11 2.94  10 2.94   8 2.94   7 2.94   8 2.94
                             7 2.94   5 2.94   5 2.94   1 2.94
   7  0.833  0.833  0.500-   2 2.94   3 2.94   9 2.94  10 2.94  11 2.94   5 2.94   5 2.94   6 2.94
                             6 2.94   8 2.94   8 2.94   4 2.94
   8  0.333  0.833  0.500-   1 2.94   4 2.94  10 2.94   9 2.94  12 2.94   6 2.94   5 2.94   6 2.94
                             5 2.94   7 2.94   7 2.94   3 2.94
   9  0.000  0.000  0.597-   7 2.94   5 2.94   8 2.94  11 2.94  11 2.94  12 2.94  12 2.94  10 2.94
                            10 2.94
  10  0.500  0.000  0.597-   8 2.94   7 2.94   6 2.94  12 2.94  11 2.94  12 2.94  11 2.94   9 2.94
                             9 2.94
  11  0.000  0.500  0.597-   5 2.94   6 2.94   7 2.94   9 2.94   9 2.94  10 2.94  10 2.94  12 2.94
                            12 2.94
  12  0.500  0.500  0.597-   6 2.94   5 2.94   8 2.94  10 2.94   9 2.94  10 2.94   9 2.94  11 2.94
                            11 2.94
 
  LATTYP: Found a hexagonal cell.
 ALAT       =     5.8802999923
 C/A-ratio  =     4.2176835996
  
  Lattice vectors:
  
 A1 = (   2.9401499962,  -5.0924891752,   0.0000000000)
 A2 = (  -5.8802999923,   0.0000000000,   0.0000000000)
 A3 = (   0.0000000000,   0.0000000000, -24.8012448386)


Analysis of symmetry for initial positions (statically):
=====================================================================
 Subroutine PRICEL returns following result:
 
  LATTYP: Found a hexagonal cell.
 ALAT       =     2.9401499962
 C/A-ratio  =     8.4353671992
  
  Lattice vectors:
  
 A1 = (   1.4700749981,  -2.5462445876,   0.0000000000)
 A2 = (  -2.9401499962,   0.0000000000,   0.0000000000)
 A3 = (   0.0000000000,   0.0000000000, -24.8012448386)
 
   4 primitive cells build up your supercell.
 

 Routine SETGRP: Setting up the symmetry group for a 
 hexagonal supercell.


 Subroutine GETGRP returns: Found 12 space group operations
 (whereof  6 operations were pure point group operations)
 out of a pool of 24 trial point group operations.


The static configuration has the point symmetry C_3v.
 The point group associated with its full space group is D_3d.


Analysis of symmetry for dynamics (positions and initial velocities):
=====================================================================
 Subroutine PRICEL returns following result:
 
  LATTYP: Found a hexagonal cell.
 ALAT       =     2.9401499962
 C/A-ratio  =     8.4353671992
  
  Lattice vectors:
  
 A1 = (   1.4700749981,  -2.5462445876,   0.0000000000)
 A2 = (  -2.9401499962,   0.0000000000,   0.0000000000)
 A3 = (   0.0000000000,   0.0000000000, -24.8012448386)
 
   4 primitive cells build up your supercell.
 

 Routine SETGRP: Setting up the symmetry group for a 
 hexagonal supercell.


 Subroutine GETGRP returns: Found 12 space group operations
 (whereof  6 operations were pure point group operations)
 out of a pool of 24 trial point group operations.


The dynamic configuration has the point symmetry C_3v.
 The point group associated with its full space group is D_3d.


 Subroutine INISYM returns: Found 12 space group operations
 (whereof  6 operations are pure point group operations),
 and found     4 'primitive' translations

 
 
 KPOINTS: KPOINTS created by Atomic Simulation Env

Automatic generation of k-mesh.
Space group operators:
 irot       det(A)        alpha          n_x          n_y          n_z        tau_x        tau_y        tau_z
    1     1.000000     0.000000     1.000000     0.000000     0.000000     0.000000     0.000000     0.000000
    2     1.000000   120.000000     0.000000     0.000000     1.000000     0.000000     0.000000     0.000000
    3     1.000000   120.000000     0.000000     0.000000    -1.000000     0.000000     0.000000     0.000000
    4    -1.000000   180.000000     0.500000    -0.866025     0.000000     0.000000     0.000000     0.000000
    5    -1.000000   180.000000     1.000000     0.000000     0.000000     0.000000     0.000000     0.000000
    6    -1.000000   180.000000    -0.500000    -0.866025     0.000000     0.000000     0.000000     0.000000
    7    -1.000000     0.000000     1.000000     0.000000     0.000000     0.166667    -0.333333     0.000000
    8    -1.000000   120.000000     0.000000     0.000000     1.000000     0.166667    -0.333333     0.000000
    9    -1.000000   120.000000     0.000000     0.000000    -1.000000     0.166667    -0.333333     0.000000
   10     1.000000   180.000000     0.500000    -0.866025     0.000000     0.166667    -0.333333     0.000000
   11     1.000000   180.000000     1.000000     0.000000     0.000000     0.166667    -0.333333     0.000000
   12     1.000000   180.000000    -0.500000    -0.866025     0.000000     0.166667    -0.333333     0.000000
 
 Subroutine IBZKPT returns following result:
 ===========================================
 
 Found     12 irreducible k-points:
 
 Following reciprocal coordinates:
            Coordinates               Weight
  0.000000  0.000000  0.000000      1.000000
  0.111111  0.000000  0.000000      6.000000
  0.222222 -0.000000  0.000000      6.000000
  0.333333  0.000000  0.000000      6.000000
  0.444444 -0.000000  0.000000      6.000000
  0.222222  0.111111  0.000000      6.000000
  0.333333  0.111111  0.000000     12.000000
  0.444444  0.111111  0.000000     12.000000
 -0.444444  0.111111  0.000000      6.000000
  0.444444  0.222222  0.000000      6.000000
 -0.444444  0.222222  0.000000     12.000000
 -0.333333  0.333333  0.000000      2.000000
 
 Following cartesian coordinates:
            Coordinates               Weight
  0.000000  0.000000  0.000000      1.000000
  0.018895 -0.010909  0.000000      6.000000
  0.037791 -0.021819  0.000000      6.000000
  0.056686 -0.032728  0.000000      6.000000
  0.075582 -0.043637  0.000000      6.000000
  0.037791 -0.000000  0.000000      6.000000
  0.056686 -0.010909  0.000000     12.000000
  0.075582 -0.021819  0.000000     12.000000
 -0.075582  0.065456  0.000000      6.000000
  0.075582  0.000000  0.000000      6.000000
 -0.075582  0.087274  0.000000     12.000000
 -0.056686  0.098184  0.000000      2.000000
 


--------------------------------------------------------------------------------------------------------




 Dimension of arrays:
   k-points           NKPTS =     12   k-points in BZ     NKDIM =     12   number of bands    NBANDS=     96
   number of dos      NEDOS =    301   number of ions     NIONS =     12
   non local maximal  LDIM  =      6   non local SUM 2l+1 LMDIM =     18
   total plane-waves  NPLWV = 113400
   max r-space proj   IRMAX =      1   max aug-charges    IRDMAX=   9536
   dimension x,y,z NGX =    30 NGY =   30 NGZ =  126
   dimension x,y,z NGXF=    60 NGYF=   60 NGZF=  252
   support grid    NGXF=    60 NGYF=   60 NGZF=  252
   ions per type =              12
 NGX,Y,Z   is equivalent  to a cutoff of   8.48,  8.48,  8.45 a.u.
 NGXF,Y,Z  is equivalent  to a cutoff of  16.96, 16.96, 16.89 a.u.


 I would recommend the setting:
   dimension x,y,z NGX =    29 NGY =   29 NGZ =  121
 SYSTEM =  unknown system                          
 POSCAR =  Au                                      

 Startparameter for this run:
   NWRITE =      2    write-flag & timer
   PREC   = normal    normal or accurate (medium, high low for compatibility)
   ISTART =      0    job   : 0-new  1-cont  2-samecut
   ICHARG =      2    charge: 1-file 2-atom 10-const
   ISPIN  =      1    spin polarized calculation?
   LNONCOLLINEAR =      F non collinear calculations
   LSORBIT =      F    spin-orbit coupling
   INIWAV =      1    electr: 0-lowe 1-rand  2-diag
   LASPH  =      F    aspherical Exc in radial PAW
   METAGGA=      F    non-selfconsistent MetaGGA calc.

 Electronic Relaxation 1
   ENCUT  =  400.0 eV  29.40 Ry    5.42 a.u.   9.59  9.59 40.44*2*pi/ulx,y,z
   ENINI  =  400.0     initial cutoff
   ENAUG  =  356.7 eV  augmentation charge cutoff
   NELM   =     60;   NELMIN=  2; NELMDL= -5     # of ELM steps 
   EDIFF  = 0.1E-03   stopping-criterion for ELM
   LREAL  =      F    real-space projection
   NLSPLINE    = F    spline interpolate recip. space projectors
   LCOMPAT=      F    compatible to vasp.4.4
   GGA_COMPAT  = T    GGA compatible to vasp.4.4-vasp.4.6
   LMAXPAW     = -100 max onsite density
   LMAXMIX     =    2 max onsite mixed and CHGCAR
   VOSKOWN=      0    Vosko Wilk Nusair interpolation
   ROPT   =    0.00000
 Ionic relaxation
   EDIFFG = 0.1E-02   stopping-criterion for IOM
   NSW    =     20    number of steps for IOM
   NBLOCK =      1;   KBLOCK =     20    inner block; outer block 
   IBRION =      2    ionic relax: 0-MD 1-quasi-New 2-CG
   NFREE  =      1    steps in history (QN), initial steepest desc. (CG)
   ISIF   =      2    stress and relaxation
   IWAVPR =     11    prediction:  0-non 1-charg 2-wave 3-comb
   ISYM   =      2    0-nonsym 1-usesym 2-fastsym
   LCORR  =      T    Harris-Foulkes like correction to forces

   POTIM  = 0.5000    time-step for ionic-motion
   TEIN   =    0.0    initial temperature
   TEBEG  =    0.0;   TEEND  =   0.0 temperature during run
   SMASS  =  -3.00    Nose mass-parameter (am)
   estimated Nose-frequenzy (Omega)   =  0.10E-29 period in steps =****** mass=  -0.790E-27a.u.
   SCALEE = 1.0000    scale energy and forces
   NPACO  =    256;   APACO  = 16.0  distance and # of slots for P.C.
   PSTRESS=    0.0 pullay stress

  Mass of Ions in am
   POMASS = 196.97
  Ionic Valenz
   ZVAL   =  11.00
  Atomic Wigner-Seitz radii
   RWIGS  =  -1.00
  virtual crystal weights 
   VCA    =   1.00
   NELECT =     132.0000    total number of electrons
   NUPDOWN=      -1.0000    fix difference up-down

 DOS related values:
   EMIN   =  10.00;   EMAX   =-10.00  energy-range for DOS
   EFERMI =   0.00
   ISMEAR =     1;   SIGMA  =   0.10  broadening in eV -4-tet -1-fermi 0-gaus

 Electronic relaxation 2 (details)
   IALGO  =     38    algorithm
   LDIAG  =      T    sub-space diagonalisation (order eigenvalues)
   LSUBROT=      F    optimize rotation matrix (better conditioning)
   TURBO    =      0    0=normal 1=particle mesh
   IRESTART =      0    0=no restart 2=restart with 2 vectors
   NREBOOT  =      0    no. of reboots
   NMIN     =      0    reboot dimension
   EREF     =   0.00    reference energy to select bands
   IMIX   =      4    mixing-type and parameters
     AMIX     =   0.40;   BMIX     =  1.00
     AMIX_MAG =   1.60;   BMIX_MAG =  1.00
     AMIN     =   0.10
     WC   =   100.;   INIMIX=   1;  MIXPRE=   1;  MAXMIX= -45

 Intra band minimization:
   WEIMIN = 0.0010     energy-eigenvalue tresh-hold
   EBREAK =  0.26E-06  absolut break condition
   DEPER  =   0.30     relativ break condition  

   TIME   =   0.40     timestep for ELM

  volume/ion in A,a.u.               =      61.89       417.66
  Fermi-wavevector in a.u.,A,eV,Ry     =   0.920446  1.739391 11.527146  0.847221
  Thomas-Fermi vector in A             =   2.045753
 
 Write flags
   LWAVE  =      F    write WAVECAR
   LCHARG =      F    write CHGCAR
   LVTOT  =      F    write LOCPOT, total local potential
   LVHAR  =      F    write LOCPOT, Hartree potential only
   LELF   =      F    write electronic localiz. function (ELF)
   LORBIT =      0    0 simple, 1 ext, 2 COOP (PROOUT)


 Dipole corrections
   LMONO  =      F    monopole corrections only (constant potential shift)
   LDIPOL =      F    correct potential (dipole corrections)
   IDIPOL =      0    1-x, 2-y, 3-z, 4-all directions 
   EPSILON=  1.0000000 bulk dielectric constant

 Exchange correlation treatment:
   GGA     =    --    GGA type
   LEXCH   =     8    internal setting for exchange type
   VOSKOWN=      0    Vosko Wilk Nusair interpolation
   LHFCALC =     F    Hartree Fock is set to
   LHFONE  =     F    Hartree Fock one center treatment
   AEXX    =    0.0000 exact exchange contribution

 Linear response parameters
   LEPSILON=     F    determine dielectric tensor
   LRPA    =     F    only Hartree local field effects (RPA)
   LNABLA  =     F    use nabla operator in PAW spheres
   LVEL    =     F    velocity operator in full k-point grid
   LINTERFAST=   F  fast interpolation
   KINTER  =     0    interpolate to denser k-point grid
   CSHIFT  =0.1000    complex shift for real part using Kramers Kronig
   OMEGAMAX=  -1.0    maximum frequency
   DEG_THRESHOLD= 0.2000000E-02 threshold for treating states as degnerate
   RTIME   =    0.100 relaxation time in fs

 Orbital magnetization related:
   ORBITALMAG=     F  switch on orbital magnetization
   LCHIMAG   =     F  perturbation theory with respect to B field
   DQ        =  0.001000  dq finite difference perturbation B field



--------------------------------------------------------------------------------------------------------


 conjugate gradient relaxation of ions
 charge density and potential will be updated during run
 non-spin polarized calculation
 Variant of blocked Davidson
 Davidson routine will perform the subspace rotation
 perform sub-space diagonalisation
    after iterative eigenvector-optimisation
 modified Broyden-mixing scheme, WC =      100.0
 initial mixing is a Kerker type mixing with AMIX =  0.4000 and BMIX =      1.0000
 Hartree-type preconditioning will be used
 using additional bands           30
 reciprocal scheme for non local part
 use partial core corrections
 calculate Harris-corrections to forces 
   (improved forces if not selfconsistent)
 use gradient corrections 
 use of overlap-Matrix (Vanderbilt PP)
 Methfessel and Paxton  Order N= 1 SIGMA  =   0.10


--------------------------------------------------------------------------------------------------------


  energy-cutoff  :      400.00
  volume of cell :      742.68
      direct lattice vectors                 reciprocal lattice vectors
     5.880299992  0.000000000  0.000000000     0.170059351 -0.098183812  0.000000000
     2.940149996  5.092489175  0.000000000     0.000000000  0.196367624  0.000000000
     0.000000000  0.000000000 24.801244839     0.000000000  0.000000000  0.040320557

  length of vectors
     5.880299992  5.880299992 24.801244839     0.196367624  0.196367624  0.040320557


 
 k-points in units of 2pi/SCALE and weight: KPOINTS created by Atomic Simulation Env
   0.00000000  0.00000000  0.00000000       0.012
   0.01889548 -0.01090931  0.00000000       0.074
   0.03779097 -0.02181862  0.00000000       0.074
   0.05668645 -0.03272794  0.00000000       0.074
   0.07558193 -0.04363725  0.00000000       0.074
   0.03779097 -0.00000000  0.00000000       0.074
   0.05668645 -0.01090931  0.00000000       0.148
   0.07558193 -0.02181862  0.00000000       0.148
  -0.07558193  0.06545587  0.00000000       0.074
   0.07558193  0.00000000  0.00000000       0.074
  -0.07558193  0.08727450  0.00000000       0.148
  -0.05668645  0.09818381  0.00000000       0.025
 
 k-points in reciprocal lattice and weights: KPOINTS created by Atomic Simulation Env
   0.00000000  0.00000000  0.00000000       0.012
   0.11111111  0.00000000  0.00000000       0.074
   0.22222222 -0.00000000  0.00000000       0.074
   0.33333333  0.00000000  0.00000000       0.074
   0.44444444 -0.00000000  0.00000000       0.074
   0.22222222  0.11111111  0.00000000       0.074
   0.33333333  0.11111111  0.00000000       0.148
   0.44444444  0.11111111  0.00000000       0.148
  -0.44444444  0.11111111  0.00000000       0.074
   0.44444444  0.22222222  0.00000000       0.074
  -0.44444444  0.22222222  0.00000000       0.148
  -0.33333333  0.33333333  0.00000000       0.025
 
 position of ions in fractional coordinates (direct lattice) 
   0.16666667  0.16666667  0.40320557
   0.66666667  0.16666667  0.40320557
   0.16666667  0.66666667  0.40320557
   0.66666667  0.66666667  0.40320557
   0.83333333  0.33333333  0.50000000
   0.33333333  0.33333333  0.50000000
   0.83333333  0.83333333  0.50000000
   0.33333333  0.83333333  0.50000000
   0.00000000  0.00000000  0.59679443
   0.50000000  0.00000000  0.59679443
   0.00000000  0.50000000  0.59679443
   0.50000000  0.50000000  0.59679443
 
 position of ions in cartesian coordinates  (Angst):
   1.47007500  0.84874820 10.00000000
   4.41022499  0.84874820 10.00000000
   2.94015000  3.39499278 10.00000000
   5.88029999  3.39499278 10.00000000
   5.88029999  1.69749639 12.40062242
   2.94015000  1.69749639 12.40062242
   7.35037499  4.24374098 12.40062242
   4.41022499  4.24374098 12.40062242
   0.00000000  0.00000000 14.80124484
   2.94015000  0.00000000 14.80124484
   1.47007500  2.54624459 14.80124484
   4.41022499  2.54624459 14.80124484
 


--------------------------------------------------------------------------------------------------------


 k-point  1 :   0.0000 0.0000 0.0000  plane waves:   13545
 k-point  2 :   0.1111 0.0000 0.0000  plane waves:   13569
 k-point  3 :   0.2222-0.0000 0.0000  plane waves:   13513
 k-point  4 :   0.3333 0.0000 0.0000  plane waves:   13500
 k-point  5 :   0.4444-0.0000 0.0000  plane waves:   13456
 k-point  6 :   0.2222 0.1111 0.0000  plane waves:   13505
 k-point  7 :   0.3333 0.1111 0.0000  plane waves:   13506
 k-point  8 :   0.4444 0.1111 0.0000  plane waves:   13477
 k-point  9 :  -0.4444 0.1111 0.0000  plane waves:   13452
 k-point 10 :   0.4444 0.2222 0.0000  plane waves:   13492
 k-point 11 :  -0.4444 0.2222 0.0000  plane waves:   13483
 k-point 12 :  -0.3333 0.3333 0.0000  plane waves:   13470

 maximum and minimum number of plane-waves per node :     13569    13452

 maximum number of plane-waves:     13569
 maximum index in each direction: 
   IXMAX=   10   IYMAX=    9   IZMAX=   40
   IXMIN=  -10   IYMIN=   -9   IZMIN=  -40

 WARNING: aliasing errors must be expected set NGX to  42 to avoid them
 WARNING: aliasing errors must be expected set NGY to  38 to avoid them
 WARNING: aliasing errors must be expected set NGZ to 162 to avoid them
 aliasing errors are usually negligible using standard VASP settings
 and one can safely disregard these warnings

 serial   3D FFT for wavefunctions
 parallel 3D FFT for charge:
    minimum data exchange during FFTs selected (reduces bandwidth)


 total amount of memory used by VASP on root node    75554. kBytes
========================================================================

   base      :      30000. kBytes
   nonl-proj :      26081. kBytes
   fftplans  :       1950. kBytes
   grid      :       6739. kBytes
   one-center:        186. kBytes
   wavefun   :      10598. kBytes
 
     INWAV:  cpu time    0.0000: real time    0.0001
 Broyden mixing: mesh for mixing (old mesh)
   NGX = 19   NGY = 19   NGZ = 81
  (NGX  = 60   NGY  = 60   NGZ  =252)
  gives a total of  29241 points

 initial charge density was supplied:
 charge density of overlapping atoms calculated
 number of electron     132.0000000 magnetization 
 keeping initial charge density in first step


--------------------------------------------------------------------------------------------------------


 Maximum index for augmentation-charges          714 (set IRDMAX)


--------------------------------------------------------------------------------------------------------


 First call to EWALD:  gamma=   0.196
 Maximum number of real-space cells 5x 5x 1
 Maximum number of reciprocal cells 2x 2x 7

 FEWALD executed in parallel
    FEWALD:  cpu time    0.0017: real time    0.0017


----------------------------------------- Iteration    1(   1)  ---------------------------------------


    POTLOK:  cpu time    0.0573: real time    0.0730
    SETDIJ:  cpu time    0.0272: real time    0.0280
     EDDAV:  cpu time    4.1584: real time    4.1634
       DOS:  cpu time    0.0012: real time    0.0014
    --------------------------------------------
      LOOP:  cpu time    4.2455: real time    4.2687

 eigenvalue-minimisations  :  2304
 total energy-change (2. order) : 0.7478040E+03  (-0.4781774E+04)
 number of electron     132.0000000 magnetization 
 augmentation part      132.0000000 magnetization 

 Free energy of the ion-electron system (eV)
  ---------------------------------------------------
  alpha Z        PSCENC =       225.84438850
  Ewald energy   TEWEN  =     45771.61735042
  -Hartree energ DENC   =    -57086.89166870
  -exchange      EXHF   =         0.00000000
  -V(xc)+E(xc)   XCENC  =       182.16521807
  PAW double counting   =     10489.17004023   -10212.12161789
  entropy T*S    EENTRO =        -0.00350935
  eigenvalues    EBANDS =       265.05761563
  atomic energy  EATOM  =     11112.96622521
  Solvation  Ediel_sol  =         0.00000000
  ---------------------------------------------------
  free energy    TOTEN  =       747.80404212 eV

  energy without entropy =      747.80755148  energy(sigma->0) =      747.80521191


--------------------------------------------------------------------------------------------------------




----------------------------------------- Iteration    1(   2)  ---------------------------------------


     EDDAV:  cpu time    4.2675: real time    4.2702
       DOS:  cpu time    0.0007: real time    0.0007
    --------------------------------------------
      LOOP:  cpu time    4.2705: real time    4.2744

 eigenvalue-minimisations  :  2832
 total energy-change (2. order) :-0.7517395E+03  (-0.6991920E+03)
 number of electron     132.0000000 magnetization 
 augmentation part      132.0000000 magnetization 

 Free energy of the ion-electron system (eV)
  ---------------------------------------------------
  alpha Z        PSCENC =       225.84438850
  Ewald energy   TEWEN  =     45771.61735042
  -Hartree energ DENC   =    -57086.89166870
  -exchange      EXHF   =         0.00000000
  -V(xc)+E(xc)   XCENC  =       182.16521807
  PAW double counting   =     10489.17004023   -10212.12161789
  entropy T*S    EENTRO =        -0.00183711
  eigenvalues    EBANDS =      -486.68356604
  atomic energy  EATOM  =     11112.96622521
  Solvation  Ediel_sol  =         0.00000000
  ---------------------------------------------------
  free energy    TOTEN  =        -3.93546731 eV

  energy without entropy =       -3.93363020  energy(sigma->0) =       -3.93485494


--------------------------------------------------------------------------------------------------------




----------------------------------------- Iteration    1(   3)  ---------------------------------------


     EDDAV:  cpu time    4.0931: real time    4.0940
       DOS:  cpu time    0.0006: real time    0.0006
    --------------------------------------------
      LOOP:  cpu time    4.0948: real time    4.0972

 eigenvalue-minimisations  :  2832
 total energy-change (2. order) :-0.3440168E+02  (-0.3370954E+02)
 number of electron     132.0000000 magnetization 
 augmentation part      132.0000000 magnetization 

 Free energy of the ion-electron system (eV)
  ---------------------------------------------------
  alpha Z        PSCENC =       225.84438850
  Ewald energy   TEWEN  =     45771.61735042
  -Hartree energ DENC   =    -57086.89166870
  -exchange      EXHF   =         0.00000000
  -V(xc)+E(xc)   XCENC  =       182.16521807
  PAW double counting   =     10489.17004023   -10212.12161789
  entropy T*S    EENTRO =        -0.00054613
  eigenvalues    EBANDS =      -521.08653974
  atomic energy  EATOM  =     11112.96622521
  Solvation  Ediel_sol  =         0.00000000
  ---------------------------------------------------
  free energy    TOTEN  =       -38.33715002 eV

  energy without entropy =      -38.33660389  energy(sigma->0) =      -38.33696798


--------------------------------------------------------------------------------------------------------




----------------------------------------- Iteration    1(   4)  ---------------------------------------


     EDDAV:  cpu time    3.9931: real time    3.9947
       DOS:  cpu time    0.0006: real time    0.0006
    --------------------------------------------
      LOOP:  cpu time    3.9949: real time    3.9982

 eigenvalue-minimisations  :  2784
 total energy-change (2. order) :-0.4419355E+00  (-0.4418132E+00)
 number of electron     132.0000000 magnetization 
 augmentation part      132.0000000 magnetization 

 Free energy of the ion-electron system (eV)
  ---------------------------------------------------
  alpha Z        PSCENC =       225.84438850
  Ewald energy   TEWEN  =     45771.61735042
  -Hartree energ DENC   =    -57086.89166870
  -exchange      EXHF   =         0.00000000
  -V(xc)+E(xc)   XCENC  =       182.16521807
  PAW double counting   =     10489.17004023   -10212.12161789
  entropy T*S    EENTRO =        -0.00054646
  eigenvalues    EBANDS =      -521.52847492
  atomic energy  EATOM  =     11112.96622521
  Solvation  Ediel_sol  =         0.00000000
  ---------------------------------------------------
  free energy    TOTEN  =       -38.77908553 eV

  energy without entropy =      -38.77853907  energy(sigma->0) =      -38.77890338


--------------------------------------------------------------------------------------------------------




----------------------------------------- Iteration    1(   5)  ---------------------------------------


     EDDAV:  cpu time    4.4531: real time    4.4536
       DOS:  cpu time    0.0006: real time    0.0006
    CHARGE:  cpu time    0.1430: real time    0.1430
    MIXING:  cpu time    0.0042: real time    0.0147
    --------------------------------------------
      LOOP:  cpu time    4.6022: real time    4.6152

 eigenvalue-minimisations  :  3168
 total energy-change (2. order) :-0.6677867E-02  (-0.6677601E-02)
 number of electron     132.0000164 magnetization 
 augmentation part       46.4170190 magnetization 

 Broyden mixing:
  rms(total) = 0.22607E+01    rms(broyden)= 0.22607E+01
  rms(prec ) = 0.22953E+01
  weight for this iteration     100.00

 Free energy of the ion-electron system (eV)
  ---------------------------------------------------
  alpha Z        PSCENC =       225.84438850
  Ewald energy   TEWEN  =     45771.61735042
  -Hartree energ DENC   =    -57086.89166870
  -exchange      EXHF   =         0.00000000
  -V(xc)+E(xc)   XCENC  =       182.16521807
  PAW double counting   =     10489.17004023   -10212.12161789
  entropy T*S    EENTRO =        -0.00054817
  eigenvalues    EBANDS =      -521.53515108
  atomic energy  EATOM  =     11112.96622521
  Solvation  Ediel_sol  =         0.00000000
  ---------------------------------------------------
  free energy    TOTEN  =       -38.78576340 eV

  energy without entropy =      -38.78521523  energy(sigma->0) =      -38.78558068


--------------------------------------------------------------------------------------------------------




----------------------------------------- Iteration    1(   6)  ---------------------------------------


    POTLOK:  cpu time    0.0297: real time    0.0297
    SETDIJ:  cpu time    0.0037: real time    0.0037
     EDDAV:  cpu time    3.9760: real time    3.9779
       DOS:  cpu time    0.0006: real time    0.0006
    CHARGE:  cpu time    0.1248: real time    0.1248
    MIXING:  cpu time    0.0030: real time    0.0030
    --------------------------------------------
      LOOP:  cpu time    4.1391: real time    4.1428

 eigenvalue-minimisations  :  2688
 total energy-change (2. order) : 0.2781763E+01  (-0.8082899E+00)
 number of electron     132.0000172 magnetization 
 augmentation part       48.0391644 magnetization 

 Broyden mixing:
  rms(total) = 0.15961E+01    rms(broyden)= 0.15961E+01
  rms(prec ) = 0.15986E+01
  weight for this iteration     100.00

 eigenvalues of (default mixing * dielectric matrix)
  average eigenvalue GAMMA=   1.7232
  1.7232

 Free energy of the ion-electron system (eV)
  ---------------------------------------------------
  alpha Z        PSCENC =       225.84438850
  Ewald energy   TEWEN  =     45771.61735042
  -Hartree energ DENC   =    -56966.96534374
  -exchange      EXHF   =         0.00000000
  -V(xc)+E(xc)   XCENC  =       178.07792040
  PAW double counting   =     11011.34471353   -10747.07284822
  entropy T*S    EENTRO =        -0.01595487
  eigenvalues    EBANDS =      -621.80045161
  atomic energy  EATOM  =     11112.96622521
  Solvation  Ediel_sol  =         0.00000000
  ---------------------------------------------------
  free energy    TOTEN  =       -36.00400038 eV

  energy without entropy =      -35.98804551  energy(sigma->0) =      -35.99868209


--------------------------------------------------------------------------------------------------------




----------------------------------------- Iteration    1(   7)  ---------------------------------------


    POTLOK:  cpu time    0.0302: real time    0.0302
    SETDIJ:  cpu time    0.0040: real time    0.0040
     EDDAV:  cpu time    3.9726: real time    3.9766
       DOS:  cpu time    0.0007: real time    0.0007
    CHARGE:  cpu time    0.1247: real time    0.1247
    MIXING:  cpu time    0.0013: real time    0.0013
    --------------------------------------------
      LOOP:  cpu time    4.1348: real time    4.1406

 eigenvalue-minimisations  :  2592
 total energy-change (2. order) : 0.1177671E+00  (-0.7507676E-01)
 number of electron     132.0000173 magnetization 
 augmentation part       48.4372442 magnetization 

 Broyden mixing:
  rms(total) = 0.64509E+00    rms(broyden)= 0.64508E+00
  rms(prec ) = 0.64626E+00
  weight for this iteration     100.00

 eigenvalues of (default mixing * dielectric matrix)
  average eigenvalue GAMMA=   1.7825
  1.1228  2.4422

 Free energy of the ion-electron system (eV)
  ---------------------------------------------------
  alpha Z        PSCENC =       225.84438850
  Ewald energy   TEWEN  =     45771.61735042
  -Hartree energ DENC   =    -56938.78486635
  -exchange      EXHF   =         0.00000000
  -V(xc)+E(xc)   XCENC  =       176.64675156
  PAW double counting   =     11599.85575956   -11344.94768402
  entropy T*S    EENTRO =        -0.00971397
  eigenvalues    EBANDS =      -639.07444420
  atomic energy  EATOM  =     11112.96622521
  Solvation  Ediel_sol  =         0.00000000
  ---------------------------------------------------
  free energy    TOTEN  =       -35.88623329 eV

  energy without entropy =      -35.87651932  energy(sigma->0) =      -35.88299530


--------------------------------------------------------------------------------------------------------




----------------------------------------- Iteration    1(   8)  ---------------------------------------


    POTLOK:  cpu time    0.0285: real time    0.0285
    SETDIJ:  cpu time    0.0034: real time    0.0034
     EDDAV:  cpu time    3.8884: real time    3.8888
       DOS:  cpu time    0.0007: real time    0.0007
    CHARGE:  cpu time    0.1252: real time    0.1253
    MIXING:  cpu time    0.0013: real time    0.0013
    --------------------------------------------
      LOOP:  cpu time    4.0487: real time    4.0509

 eigenvalue-minimisations  :  2688
 total energy-change (2. order) : 0.1021474E-01  (-0.2390217E-01)
 number of electron     132.0000174 magnetization 
 augmentation part       48.4087019 magnetization 

 Broyden mixing:
  rms(total) = 0.13503E+00    rms(broyden)= 0.13503E+00
  rms(prec ) = 0.14082E+00
  weight for this iteration     100.00

 eigenvalues of (default mixing * dielectric matrix)
  average eigenvalue GAMMA=   1.4739
  2.5561  1.1791  0.6865

 Free energy of the ion-electron system (eV)
  ---------------------------------------------------
  alpha Z        PSCENC =       225.84438850
  Ewald energy   TEWEN  =     45771.61735042
  -Hartree energ DENC   =    -56929.29339449
  -exchange      EXHF   =         0.00000000
  -V(xc)+E(xc)   XCENC  =       176.53300711
  PAW double counting   =     11926.59766395   -11675.55571595
  entropy T*S    EENTRO =        -0.02112316
  eigenvalues    EBANDS =      -644.56442014
  atomic energy  EATOM  =     11112.96622521
  Solvation  Ediel_sol  =         0.00000000
  ---------------------------------------------------
  free energy    TOTEN  =       -35.87601854 eV

  energy without entropy =      -35.85489539  energy(sigma->0) =      -35.86897749


--------------------------------------------------------------------------------------------------------




----------------------------------------- Iteration    1(   9)  ---------------------------------------


    POTLOK:  cpu time    0.0284: real time    0.0284
    SETDIJ:  cpu time    0.0034: real time    0.0034
     EDDAV:  cpu time    3.8599: real time    3.8602
       DOS:  cpu time    0.0006: real time    0.0006
    CHARGE:  cpu time    0.1234: real time    0.1234
    MIXING:  cpu time    0.0014: real time    0.0014
    --------------------------------------------
      LOOP:  cpu time    4.0183: real time    4.0205

 eigenvalue-minimisations  :  2616
 total energy-change (2. order) : 0.1515306E-01  (-0.5698911E-02)
 number of electron     132.0000173 magnetization 
 augmentation part       48.3736142 magnetization 

 Broyden mixing:
  rms(total) = 0.17563E-01    rms(broyden)= 0.17555E-01
  rms(prec ) = 0.18008E-01
  weight for this iteration     100.00

 eigenvalues of (default mixing * dielectric matrix)
  average eigenvalue GAMMA=   1.3861
  2.4714  1.2782  1.0987  0.6959

 Free energy of the ion-electron system (eV)
  ---------------------------------------------------
  alpha Z        PSCENC =       225.84438850
  Ewald energy   TEWEN  =     45771.61735042
  -Hartree energ DENC   =    -56932.98926899
  -exchange      EXHF   =         0.00000000
  -V(xc)+E(xc)   XCENC  =       176.55045235
  PAW double counting   =     11957.72729282   -11706.83333089
  entropy T*S    EENTRO =        -0.01573575
  eigenvalues    EBANDS =      -640.72823916
  atomic energy  EATOM  =     11112.96622521
  Solvation  Ediel_sol  =         0.00000000
  ---------------------------------------------------
  free energy    TOTEN  =       -35.86086549 eV

  energy without entropy =      -35.84512974  energy(sigma->0) =      -35.85562024


--------------------------------------------------------------------------------------------------------




----------------------------------------- Iteration    1(  10)  ---------------------------------------


    POTLOK:  cpu time    0.0275: real time    0.0275
    SETDIJ:  cpu time    0.0034: real time    0.0034
     EDDAV:  cpu time    4.0880: real time    4.0885
       DOS:  cpu time    0.0006: real time    0.0006
    CHARGE:  cpu time    0.1212: real time    0.1212
    MIXING:  cpu time    0.0016: real time    0.0016
    --------------------------------------------
      LOOP:  cpu time    4.2437: real time    4.2461

 eigenvalue-minimisations  :  2880
 total energy-change (2. order) :-0.4885099E-03  (-0.3866887E-03)
 number of electron     132.0000173 magnetization 
 augmentation part       48.3698356 magnetization 

 Broyden mixing:
  rms(total) = 0.70312E-02    rms(broyden)= 0.70301E-02
  rms(prec ) = 0.73839E-02
  weight for this iteration     100.00

 eigenvalues of (default mixing * dielectric matrix)
  average eigenvalue GAMMA=   1.3612
  2.4870  1.6133  0.7652  0.7652  1.1752

 Free energy of the ion-electron system (eV)
  ---------------------------------------------------
  alpha Z        PSCENC =       225.84438850
  Ewald energy   TEWEN  =     45771.61735042
  -Hartree energ DENC   =    -56932.02120976
  -exchange      EXHF   =         0.00000000
  -V(xc)+E(xc)   XCENC  =       176.55784079
  PAW double counting   =     11950.38380243   -11699.27025430
  entropy T*S    EENTRO =        -0.01584524
  eigenvalues    EBANDS =      -641.92365206
  atomic energy  EATOM  =     11112.96622521
  Solvation  Ediel_sol  =         0.00000000
  ---------------------------------------------------
  free energy    TOTEN  =       -35.86135400 eV

  energy without entropy =      -35.84550876  energy(sigma->0) =      -35.85607225


--------------------------------------------------------------------------------------------------------




----------------------------------------- Iteration    1(  11)  ---------------------------------------


    POTLOK:  cpu time    0.0275: real time    0.0275
    SETDIJ:  cpu time    0.0034: real time    0.0034
     EDDAV:  cpu time    3.6709: real time    3.6712
       DOS:  cpu time    0.0007: real time    0.0007
    CHARGE:  cpu time    0.1235: real time    0.1235
    MIXING:  cpu time    0.0013: real time    0.0013
    --------------------------------------------
      LOOP:  cpu time    3.8287: real time    3.8308

 eigenvalue-minimisations  :  2472
 total energy-change (2. order) :-0.3339090E-03  (-0.1235670E-04)
 number of electron     132.0000173 magnetization 
 augmentation part       48.3727400 magnetization 

 Broyden mixing:
  rms(total) = 0.33297E-02    rms(broyden)= 0.33297E-02
  rms(prec ) = 0.36611E-02
  weight for this iteration     100.00

 eigenvalues of (default mixing * dielectric matrix)
  average eigenvalue GAMMA=   1.5178
  2.7381  2.3849  0.7348  0.8361  1.2063  1.2063

 Free energy of the ion-electron system (eV)
  ---------------------------------------------------
  alpha Z        PSCENC =       225.84438850
  Ewald energy   TEWEN  =     45771.61735042
  -Hartree energ DENC   =    -56931.30536259
  -exchange      EXHF   =         0.00000000
  -V(xc)+E(xc)   XCENC  =       176.54822409
  PAW double counting   =     11952.65185552   -11701.50867232
  entropy T*S    EENTRO =        -0.01597066
  eigenvalues    EBANDS =      -642.65972608
  atomic energy  EATOM  =     11112.96622521
  Solvation  Ediel_sol  =         0.00000000
  ---------------------------------------------------
  free energy    TOTEN  =       -35.86168791 eV

  energy without entropy =      -35.84571724  energy(sigma->0) =      -35.85636435


--------------------------------------------------------------------------------------------------------




----------------------------------------- Iteration    1(  12)  ---------------------------------------


    POTLOK:  cpu time    0.0273: real time    0.0273
    SETDIJ:  cpu time    0.0034: real time    0.0034
     EDDAV:  cpu time    3.0750: real time    3.0754
       DOS:  cpu time    0.0007: real time    0.0007
    CHARGE:  cpu time    0.1209: real time    0.1209
    MIXING:  cpu time    0.0014: real time    0.0014
    --------------------------------------------
      LOOP:  cpu time    3.2302: real time    3.2324

 eigenvalue-minimisations  :  1944
 total energy-change (2. order) :-0.4175549E-03  (-0.6533071E-05)
 number of electron     132.0000173 magnetization 
 augmentation part       48.3735582 magnetization 

 Broyden mixing:
  rms(total) = 0.11735E-02    rms(broyden)= 0.11735E-02
  rms(prec ) = 0.15342E-02
  weight for this iteration     100.00

 eigenvalues of (default mixing * dielectric matrix)
  average eigenvalue GAMMA=   1.4665
  2.5918  2.4710  1.4347  1.1727  0.7237  0.9357  0.9357

 Free energy of the ion-electron system (eV)
  ---------------------------------------------------
  alpha Z        PSCENC =       225.84438850
  Ewald energy   TEWEN  =     45771.61735042
  -Hartree energ DENC   =    -56930.37911383
  -exchange      EXHF   =         0.00000000
  -V(xc)+E(xc)   XCENC  =       176.54088501
  PAW double counting   =     11953.68143549   -11702.48422008
  entropy T*S    EENTRO =        -0.01596773
  eigenvalues    EBANDS =      -643.63308845
  atomic energy  EATOM  =     11112.96622521
  Solvation  Ediel_sol  =         0.00000000
  ---------------------------------------------------
  free energy    TOTEN  =       -35.86210546 eV

  energy without entropy =      -35.84613773  energy(sigma->0) =      -35.85678289


--------------------------------------------------------------------------------------------------------




----------------------------------------- Iteration    1(  13)  ---------------------------------------


    POTLOK:  cpu time    0.0271: real time    0.0271
    SETDIJ:  cpu time    0.0032: real time    0.0032
     EDDAV:  cpu time    3.3132: real time    3.3136
       DOS:  cpu time    0.0007: real time    0.0007
    CHARGE:  cpu time    0.1245: real time    0.1245
    MIXING:  cpu time    0.0016: real time    0.0016
    --------------------------------------------
      LOOP:  cpu time    3.4715: real time    3.4736

 eigenvalue-minimisations  :  2112
 total energy-change (2. order) :-0.1279449E-03  (-0.8400124E-06)
 number of electron     132.0000173 magnetization 
 augmentation part       48.3738051 magnetization 

 Broyden mixing:
  rms(total) = 0.55754E-03    rms(broyden)= 0.55753E-03
  rms(prec ) = 0.96739E-03
  weight for this iteration     100.00

 eigenvalues of (default mixing * dielectric matrix)
  average eigenvalue GAMMA=   1.6262
  3.1635  2.5597  2.3378  0.7268  1.1913  1.1913  0.9197  0.9197

 Free energy of the ion-electron system (eV)
  ---------------------------------------------------
  alpha Z        PSCENC =       225.84438850
  Ewald energy   TEWEN  =     45771.61735042
  -Hartree energ DENC   =    -56929.97317597
  -exchange      EXHF   =         0.00000000
  -V(xc)+E(xc)   XCENC  =       176.53967850
  PAW double counting   =     11952.92544530   -11701.71992157
  entropy T*S    EENTRO =        -0.01597247
  eigenvalues    EBANDS =      -644.04625133
  atomic energy  EATOM  =     11112.96622521
  Solvation  Ediel_sol  =         0.00000000
  ---------------------------------------------------
  free energy    TOTEN  =       -35.86223341 eV

  energy without entropy =      -35.84626094  energy(sigma->0) =      -35.85690925


--------------------------------------------------------------------------------------------------------




----------------------------------------- Iteration    1(  14)  ---------------------------------------


    POTLOK:  cpu time    0.0272: real time    0.0273
    SETDIJ:  cpu time    0.0034: real time    0.0034
     EDDAV:  cpu time    3.0366: real time    3.0455
       DOS:  cpu time    0.0006: real time    0.0007
    CHARGE:  cpu time    0.1207: real time    0.1210
    MIXING:  cpu time    0.0017: real time    0.0017
    --------------------------------------------
      LOOP:  cpu time    3.1916: real time    3.2027

 eigenvalue-minimisations  :  1920
 total energy-change (2. order) :-0.3283314E-03  (-0.5228788E-05)
 number of electron     132.0000173 magnetization 
 augmentation part       48.3738719 magnetization 

 Broyden mixing:
  rms(total) = 0.54803E-03    rms(broyden)= 0.54801E-03
  rms(prec ) = 0.63949E-03
  weight for this iteration     100.00

 eigenvalues of (default mixing * dielectric matrix)
  average eigenvalue GAMMA=   1.6578
  3.5152  2.4620  2.2644  1.8133  1.1581  1.1581  0.7291  0.9682  0.8516

 Free energy of the ion-electron system (eV)
  ---------------------------------------------------
  alpha Z        PSCENC =       225.84438850
  Ewald energy   TEWEN  =     45771.61735042
  -Hartree energ DENC   =    -56928.89769406
  -exchange      EXHF   =         0.00000000
  -V(xc)+E(xc)   XCENC  =       176.53605203
  PAW double counting   =     11953.18198076   -11701.97180202
  entropy T*S    EENTRO =        -0.01594806
  eigenvalues    EBANDS =      -645.12311452
  atomic energy  EATOM  =     11112.96622521
  Solvation  Ediel_sol  =         0.00000000
  ---------------------------------------------------
  free energy    TOTEN  =       -35.86256174 eV

  energy without entropy =      -35.84661368  energy(sigma->0) =      -35.85724572


--------------------------------------------------------------------------------------------------------




----------------------------------------- Iteration    1(  15)  ---------------------------------------


    POTLOK:  cpu time    0.0272: real time    0.0273
    SETDIJ:  cpu time    0.0033: real time    0.0033
     EDDAV:  cpu time    3.1201: real time    3.1288
       DOS:  cpu time    0.0006: real time    0.0007
    --------------------------------------------
      LOOP:  cpu time    3.1524: real time    3.1635

 eigenvalue-minimisations  :  1992
 total energy-change (2. order) :-0.8548934E-04  (-0.7158481E-06)
 number of electron     132.0000173 magnetization 
 augmentation part       48.3738719 magnetization 

 Free energy of the ion-electron system (eV)
  ---------------------------------------------------
  alpha Z        PSCENC =       225.84438850
  Ewald energy   TEWEN  =     45771.61735042
  -Hartree energ DENC   =    -56928.55341214
  -exchange      EXHF   =         0.00000000
  -V(xc)+E(xc)   XCENC  =       176.53504791
  PAW double counting   =     11953.41724550   -11702.20937709
  entropy T*S    EENTRO =        -0.01595761
  eigenvalues    EBANDS =      -645.46415794
  atomic energy  EATOM  =     11112.96622521
  Solvation  Ediel_sol  =         0.00000000
  ---------------------------------------------------
  free energy    TOTEN  =       -35.86264723 eV

  energy without entropy =      -35.84668962  energy(sigma->0) =      -35.85732803


--------------------------------------------------------------------------------------------------------




 average (electrostatic) potential at core
  the test charge radii are     1.2098
  (the norm of the test charge is              1.0000)
       1 -74.2671       2 -74.2671       3 -74.2671       4 -74.2671       5 -74.6122
       6 -74.6122       7 -74.6122       8 -74.6122       9 -74.2671      10 -74.2671
      11 -74.2671      12 -74.2671
 
 
 
 E-fermi :  -1.2008     XC(G=0):  -4.2731     alpha+bet : -3.8366


 k-point     1 :       0.0000    0.0000    0.0000
  band No.  band energies     occupation 
      1      -9.7686      2.00000
      2      -8.2063      2.00000
      3      -7.8272      2.00000
      4      -7.5475      2.00000
      5      -7.5475      2.00000
      6      -7.5475      2.00000
      7      -7.2906      2.00000
      8      -7.2906      2.00000
      9      -7.2906      2.00000
     10      -6.9748      2.00000
     11      -6.9748      2.00000
     12      -6.9748      2.00000
     13      -6.8103      2.00000
     14      -6.8103      2.00000
     15      -6.8103      2.00000
     16      -5.7708      2.00000
     17      -5.7708      2.00000
     18      -5.7708      2.00000
     19      -5.6031      2.00000
     20      -5.6031      2.00000
     21      -5.6031      2.00000
     22      -5.5157      2.00000
     23      -5.4958      2.00000
     24      -5.4958      2.00000
     25      -5.1900      2.00000
     26      -5.1900      2.00000
     27      -5.1365      2.00000
     28      -5.1365      2.00000
     29      -5.1365      2.00000
     30      -5.0789      2.00000
     31      -5.0109      2.00000
     32      -5.0109      2.00000
     33      -4.5516      2.00000
     34      -4.5516      2.00000
     35      -4.5516      2.00000
     36      -4.1006      2.00000
     37      -4.1006      2.00000
     38      -4.0407      2.00000
     39      -4.0407      2.00000
     40      -4.0407      2.00000
     41      -3.8088      2.00000
     42      -3.8088      2.00000
     43      -3.8088      2.00000
     44      -3.6230      2.00000
     45      -3.6230      2.00000
     46      -3.2805      2.00000
     47      -3.2805      2.00000
     48      -3.2805      2.00000
     49      -3.1732      2.00000
     50      -3.1732      2.00000
     51      -3.1711      2.00000
     52      -3.1711      2.00000
     53      -3.1711      2.00000
     54      -3.0633      2.00000
     55      -3.0633      2.00000
     56      -3.0633      2.00000
     57      -2.7394      2.00000
     58      -2.7394      2.00000
     59      -2.7394      2.00000
     60      -2.7084      2.00000
     61      -2.7084      2.00000
     62      -2.7084      2.00000
     63      -2.7083      2.00000
     64      -0.8505     -0.00001
     65      -0.8505     -0.00001
     66      -0.8505     -0.00001
     67      -0.6921     -0.00000
     68       0.0078     -0.00000
     69       0.0078     -0.00000
     70       0.0078     -0.00000
     71       0.2721     -0.00000
     72       0.2721     -0.00000
     73       0.2721     -0.00000
     74       2.1661      0.00000
     75       2.1661      0.00000
     76       2.1661      0.00000
     77       2.8793      0.00000
     78       2.8793      0.00000
     79       2.8793      0.00000
     80       3.4679      0.00000
     81       3.6626      0.00000
     82       3.6626      0.00000
     83       3.6626      0.00000
     84       3.9784      0.00000
     85       4.0607      0.00000
     86       5.2481      0.00000
     87       5.4616      0.00000
     88       7.0010      0.00000
     89       7.0010      0.00000
     90       7.0010      0.00000
     91       7.1632      0.00000
     92       7.4326      0.00000
     93       7.5836      0.00000
     94       7.5836      0.00000
     95       7.5836      0.00000
     96       8.7685      0.00000

 k-point     2 :       0.1111    0.0000    0.0000
  band No.  band energies     occupation 
      1      -9.6782      2.00000
      2      -8.1159      2.00000
      3      -7.7469      2.00000
      4      -7.5436      2.00000
      5      -7.4841      2.00000
      6      -7.4841      2.00000
      7      -7.2625      2.00000
      8      -7.2354      2.00000
      9      -7.2354      2.00000
     10      -6.9592      2.00000
     11      -6.9442      2.00000
     12      -6.9442      2.00000
     13      -6.7722      2.00000
     14      -6.7341      2.00000
     15      -6.7341      2.00000
     16      -5.7714      2.00000
     17      -5.7714      2.00000
     18      -5.7569      2.00000
     19      -5.5704      2.00000
     20      -5.5704      2.00000
     21      -5.5691      2.00000
     22      -5.5551      2.00000
     23      -5.5117      2.00000
     24      -5.4418      2.00000
     25      -5.3000      2.00000
     26      -5.1825      2.00000
     27      -5.1825      2.00000
     28      -5.1485      2.00000
     29      -5.1201      2.00000
     30      -5.0351      2.00000
     31      -5.0255      2.00000
     32      -4.9550      2.00000
     33      -4.6174      2.00000
     34      -4.5885      2.00000
     35      -4.5885      2.00000
     36      -4.1211      2.00000
     37      -4.1199      2.00000
     38      -4.0977      2.00000
     39      -4.0977      2.00000
     40      -4.0383      2.00000
     41      -3.8698      2.00000
     42      -3.8457      2.00000
     43      -3.8457      2.00000
     44      -3.7512      2.00000
     45      -3.6240      2.00000
     46      -3.3373      2.00000
     47      -3.3373      2.00000
     48      -3.3051      2.00000
     49      -3.2908      2.00000
     50      -3.2394      2.00000
     51      -3.2023      2.00000
     52      -3.2023      2.00000
     53      -3.1711      2.00000
     54      -3.1678      2.00000
     55      -3.1678      2.00000
     56      -3.1217      2.00000
     57      -2.8998      2.00000
     58      -2.8998      2.00000
     59      -2.8276      2.00000
     60      -2.8276      2.00000
     61      -2.8171      2.00000
     62      -2.7892      2.00000
     63      -2.5384      2.00000
     64      -1.8061      2.00000
     65      -0.9953     -0.01331
     66      -0.9953     -0.01331
     67      -0.8334     -0.00000
     68      -0.4567     -0.00000
     69      -0.0925     -0.00000
     70      -0.0925     -0.00000
     71       0.7897     -0.00000
     72       0.7897     -0.00000
     73       1.1644     -0.00000
     74       2.1468      0.00000
     75       2.3968      0.00000
     76       2.3968      0.00000
     77       2.6550      0.00000
     78       2.6550      0.00000
     79       3.1266      0.00000
     80       3.5259      0.00000
     81       4.0530      0.00000
     82       4.1278      0.00000
     83       4.1278      0.00000
     84       4.1281      0.00000
     85       4.6669      0.00000
     86       5.3207      0.00000
     87       5.5225      0.00000
     88       6.6341      0.00000
     89       6.9113      0.00000
     90       6.9113      0.00000
     91       7.2319      0.00000
     92       7.2777      0.00000
     93       7.5016      0.00000
     94       7.5606      0.00000
     95       7.5606      0.00000
     96       8.4154      0.00000

 k-point     3 :       0.2222   -0.0000    0.0000
  band No.  band energies     occupation 
      1      -9.4141      2.00000
      2      -7.8572      2.00000
      3      -7.5598      2.00000
      4      -7.5193      2.00000
      5      -7.3020      2.00000
      6      -7.3020      2.00000
      7      -7.1854      2.00000
      8      -7.0852      2.00000
      9      -7.0852      2.00000
     10      -6.9118      2.00000
     11      -6.8482      2.00000
     12      -6.8482      2.00000
     13      -6.6640      2.00000
     14      -6.5163      2.00000
     15      -6.5163      2.00000
     16      -5.7895      2.00000
     17      -5.7895      2.00000
     18      -5.7141      2.00000
     19      -5.7116      2.00000
     20      -5.5378      2.00000
     21      -5.4858      2.00000
     22      -5.4718      2.00000
     23      -5.4718      2.00000
     24      -5.4496      2.00000
     25      -5.3077      2.00000
     26      -5.3077      2.00000
     27      -5.2852      2.00000
     28      -5.0824      2.00000
     29      -5.0734      2.00000
     30      -5.0364      2.00000
     31      -5.0171      2.00000
     32      -4.8038      2.00000
     33      -4.7909      2.00000
     34      -4.7163      2.00000
     35      -4.7163      2.00000
     36      -4.2298      2.00000
     37      -4.2298      2.00000
     38      -4.2264      2.00000
     39      -4.1618      2.00000
     40      -4.0549      2.00000
     41      -4.0424      2.00000
     42      -3.9906      2.00000
     43      -3.9906      2.00000
     44      -3.9578      2.00000
     45      -3.6323      2.00000
     46      -3.6277      2.00000
     47      -3.6277      2.00000
     48      -3.4815      2.00000
     49      -3.4814      2.00000
     50      -3.4775      2.00000
     51      -3.4775      2.00000
     52      -3.4346      2.00000
     53      -3.3391      2.00000
     54      -3.3391      2.00000
     55      -3.2349      2.00000
     56      -3.1652      2.00000
     57      -3.1506      2.00000
     58      -3.1506      2.00000
     59      -3.0492      2.00000
     60      -2.9720      2.00000
     61      -2.9434      2.00000
     62      -2.9434      2.00000
     63      -2.9420      2.00000
     64      -2.1846      2.00000
     65      -1.9820      2.00000
     66      -1.1365      0.12268
     67      -1.1365      0.12268
     68      -0.1222     -0.00000
     69      -0.1222     -0.00000
     70       0.1269     -0.00000
     71       0.5515     -0.00000
     72       1.6565      0.00000
     73       1.6565      0.00000
     74       2.2397      0.00000
     75       2.2397      0.00000
     76       3.2597      0.00000
     77       3.2597      0.00000
     78       3.3108      0.00000
     79       3.6997      0.00000
     80       4.2765      0.00000
     81       4.2976      0.00000
     82       4.3316      0.00000
     83       4.9047      0.00000
     84       4.9047      0.00000
     85       5.4024      0.00000
     86       5.5380      0.00000
     87       5.7070      0.00000
     88       6.4468      0.00000
     89       6.6825      0.00000
     90       6.6825      0.00000
     91       7.1912      0.00000
     92       7.4370      0.00000
     93       7.4433      0.00000
     94       7.4433      0.00000
     95       7.4849      0.00000
     96       7.7081      0.00000

 k-point     4 :       0.3333    0.0000    0.0000
  band No.  band energies     occupation 
      1      -9.0014      2.00000
      2      -7.6841      2.00000
      3      -7.4827      2.00000
      4      -7.1945      2.00000
      5      -7.0855      2.00000
      6      -7.0361      2.00000
      7      -7.0361      2.00000
      8      -6.8969      2.00000
      9      -6.8969      2.00000
     10      -6.8363      2.00000
     11      -6.6788      2.00000
     12      -6.6788      2.00000
     13      -6.4987      2.00000
     14      -6.1937      2.00000
     15      -6.1937      2.00000
     16      -5.9087      2.00000
     17      -5.8377      2.00000
     18      -5.8377      2.00000
     19      -5.7121      2.00000
     20      -5.6636      2.00000
     21      -5.5187      2.00000
     22      -5.5187      2.00000
     23      -5.4684      2.00000
     24      -5.4410      2.00000
     25      -5.3075      2.00000
     26      -5.3075      2.00000
     27      -5.1548      2.00000
     28      -5.0532      2.00000
     29      -5.0123      2.00000
     30      -5.0050      2.00000
     31      -4.9994      2.00000
     32      -4.9185      2.00000
     33      -4.9185      2.00000
     34      -4.8928      2.00000
     35      -4.5299      2.00000
     36      -4.4251      2.00000
     37      -4.4052      2.00000
     38      -4.4052      2.00000
     39      -4.3423      2.00000
     40      -4.2264      2.00000
     41      -4.2264      2.00000
     42      -4.1847      2.00000
     43      -4.1847      2.00000
     44      -4.1617      2.00000
     45      -4.1597      2.00000
     46      -4.1111      2.00000
     47      -4.0498      2.00000
     48      -3.8112      2.00000
     49      -3.8112      2.00000
     50      -3.7141      2.00000
     51      -3.6521      2.00000
     52      -3.6502      2.00000
     53      -3.5402      2.00000
     54      -3.5402      2.00000
     55      -3.5022      2.00000
     56      -3.4369      2.00000
     57      -3.3780      2.00000
     58      -3.1890      2.00000
     59      -3.1890      2.00000
     60      -3.1570      2.00000
     61      -3.1018      2.00000
     62      -2.9606      2.00000
     63      -2.9606      2.00000
     64      -2.7742      2.00000
     65      -1.7776      2.00000
     66      -1.1764      0.59971
     67      -1.1764      0.59970
     68      -0.2448     -0.00000
     69      -0.1283     -0.00000
     70      -0.1283     -0.00000
     71       0.8926     -0.00000
     72       1.9000      0.00000
     73       1.9000      0.00000
     74       2.8282      0.00000
     75       2.8282      0.00000
     76       3.4819      0.00000
     77       3.9890      0.00000
     78       4.1743      0.00000
     79       4.1743      0.00000
     80       4.6475      0.00000
     81       4.6747      0.00000
     82       5.2760      0.00000
     83       5.5814      0.00000
     84       5.5814      0.00000
     85       5.8264      0.00000
     86       5.8988      0.00000
     87       6.0193      0.00000
     88       6.1909      0.00000
     89       6.1909      0.00000
     90       6.5058      0.00000
     91       6.5849      0.00000
     92       7.1004      0.00000
     93       7.4215      0.00000
     94       7.4215      0.00000
     95       7.7736      0.00000
     96       7.7857      0.00000

 k-point     5 :       0.4444   -0.0000    0.0000
  band No.  band energies     occupation 
      1      -8.4969      2.00000
      2      -8.0103      2.00000
      3      -7.1422      2.00000
      4      -7.0275      2.00000
      5      -6.8873      2.00000
      6      -6.8031      2.00000
      7      -6.8031      2.00000
      8      -6.7768      2.00000
      9      -6.7643      2.00000
     10      -6.7643      2.00000
     11      -6.4500      2.00000
     12      -6.4500      2.00000
     13      -6.2961      2.00000
     14      -6.0950      2.00000
     15      -6.0101      2.00000
     16      -6.0101      2.00000
     17      -5.8601      2.00000
     18      -5.8381      2.00000
     19      -5.8381      2.00000
     20      -5.7647      2.00000
     21      -5.6871      2.00000
     22      -5.6871      2.00000
     23      -5.4513      2.00000
     24      -5.4034      2.00000
     25      -5.1978      2.00000
     26      -5.1232      2.00000
     27      -5.1232      2.00000
     28      -5.0360      2.00000
     29      -5.0360      2.00000
     30      -4.9865      2.00000
     31      -4.9344      2.00000
     32      -4.9117      2.00000
     33      -4.9091      2.00000
     34      -4.7651      2.00000
     35      -4.7651      2.00000
     36      -4.6807      2.00000
     37      -4.6807      2.00000
     38      -4.6791      2.00000
     39      -4.6679      2.00000
     40      -4.6661      2.00000
     41      -4.6437      2.00000
     42      -4.3470      2.00000
     43      -4.2654      2.00000
     44      -4.2478      2.00000
     45      -4.2478      2.00000
     46      -4.1925      2.00000
     47      -4.1418      2.00000
     48      -4.0671      2.00000
     49      -4.0671      2.00000
     50      -4.0310      2.00000
     51      -3.8328      2.00000
     52      -3.7875      2.00000
     53      -3.6718      2.00000
     54      -3.6282      2.00000
     55      -3.6223      2.00000
     56      -3.6223      2.00000
     57      -3.3730      2.00000
     58      -3.1919      2.00000
     59      -3.1919      2.00000
     60      -3.1547      2.00000
     61      -3.1482      2.00000
     62      -3.1363      2.00000
     63      -2.9562      2.00000
     64      -2.9562      2.00000
     65      -1.3421      2.06261
     66      -1.1803      0.66042
     67      -1.1803      0.66042
     68      -0.8530     -0.00001
     69      -0.1297     -0.00000
     70      -0.1297     -0.00000
     71       1.7510      0.00000
     72       1.8211      0.00000
     73       1.8211      0.00000
     74       2.6466      0.00000
     75       3.8387      0.00000
     76       3.8387      0.00000
     77       4.3958      0.00000
     78       4.7791      0.00000
     79       4.7791      0.00000
     80       4.9193      0.00000
     81       5.1500      0.00000
     82       5.1734      0.00000
     83       5.4599      0.00000
     84       5.4599      0.00000
     85       5.7722      0.00000
     86       5.8295      0.00000
     87       6.0692      0.00000
     88       6.0692      0.00000
     89       6.3951      0.00000
     90       6.4646      0.00000
     91       6.9138      0.00000
     92       7.0459      0.00000
     93       7.3845      0.00000
     94       7.3845      0.00000
     95       7.6100      0.00000
     96       7.7408      0.00000

 k-point     6 :       0.2222    0.1111    0.0000
  band No.  band energies     occupation 
      1      -9.5007      2.00000
      2      -7.9406      2.00000
      3      -7.5922      2.00000
      4      -7.4819      2.00000
      5      -7.4819      2.00000
      6      -7.3078      2.00000
      7      -7.1801      2.00000
      8      -7.1801      2.00000
      9      -7.1138      2.00000
     10      -6.9109      2.00000
     11      -6.9109      2.00000
     12      -6.8647      2.00000
     13      -6.6635      2.00000
     14      -6.6635      2.00000
     15      -6.5492      2.00000
     16      -5.7967      2.00000
     17      -5.7474      2.00000
     18      -5.7474      2.00000
     19      -5.6650      2.00000
     20      -5.5131      2.00000
     21      -5.5092      2.00000
     22      -5.5064      2.00000
     23      -5.5064      2.00000
     24      -5.4269      2.00000
     25      -5.3332      2.00000
     26      -5.2996      2.00000
     27      -5.1656      2.00000
     28      -5.1656      2.00000
     29      -5.0898      2.00000
     30      -5.0486      2.00000
     31      -5.0203      2.00000
     32      -4.8406      2.00000
     33      -4.7112      2.00000
     34      -4.7112      2.00000
     35      -4.6558      2.00000
     36      -4.2345      2.00000
     37      -4.1940      2.00000
     38      -4.1458      2.00000
     39      -4.0952      2.00000
     40      -4.0952      2.00000
     41      -3.9814      2.00000
     42      -3.9814      2.00000
     43      -3.9124      2.00000
     44      -3.8713      2.00000
     45      -3.6894      2.00000
     46      -3.5296      2.00000
     47      -3.4349      2.00000
     48      -3.4349      2.00000
     49      -3.4087      2.00000
     50      -3.4087      2.00000
     51      -3.3889      2.00000
     52      -3.3465      2.00000
     53      -3.2765      2.00000
     54      -3.2765      2.00000
     55      -3.2079      2.00000
     56      -3.1875      2.00000
     57      -3.1813      2.00000
     58      -3.0367      2.00000
     59      -3.0367      2.00000
     60      -2.9605      2.00000
     61      -2.9605      2.00000
     62      -2.9441      2.00000
     63      -2.2863      2.00000
     64      -2.1207      2.00000
     65      -2.1207      2.00000
     66      -1.2003      0.99041
     67      -1.2003      0.99041
     68      -0.1216     -0.00000
     69      -0.0523     -0.00000
     70       0.3873     -0.00000
     71       0.8847     -0.00000
     72       1.1128     -0.00000
     73       1.1128     -0.00000
     74       2.2312      0.00000
     75       2.6047      0.00000
     76       2.6047      0.00000
     77       3.1242      0.00000
     78       3.6419      0.00000
     79       3.8604      0.00000
     80       3.8604      0.00000
     81       3.8866      0.00000
     82       4.2021      0.00000
     83       4.2636      0.00000
     84       5.1363      0.00000
     85       5.1363      0.00000
     86       5.4656      0.00000
     87       5.6452      0.00000
     88       6.7199      0.00000
     89       6.7199      0.00000
     90       6.9306      0.00000
     91       6.9306      0.00000
     92       7.3532      0.00000
     93       7.3689      0.00000
     94       7.3769      0.00000
     95       7.6394      0.00000
     96       8.0209      0.00000

 k-point     7 :       0.3333    0.1111    0.0000
  band No.  band energies     occupation 
      1      -9.1604      2.00000
      2      -7.6171      2.00000
      3      -7.5366      2.00000
      4      -7.3138      2.00000
      5      -7.3100      2.00000
      6      -7.0841      2.00000
      7      -7.0390      2.00000
      8      -7.0051      2.00000
      9      -6.9413      2.00000
     10      -6.8452      2.00000
     11      -6.7989      2.00000
     12      -6.7084      2.00000
     13      -6.5308      2.00000
     14      -6.4215      2.00000
     15      -6.2506      2.00000
     16      -5.8642      2.00000
     17      -5.8453      2.00000
     18      -5.7635      2.00000
     19      -5.7018      2.00000
     20      -5.6183      2.00000
     21      -5.5138      2.00000
     22      -5.4350      2.00000
     23      -5.4330      2.00000
     24      -5.4177      2.00000
     25      -5.3820      2.00000
     26      -5.3254      2.00000
     27      -5.1599      2.00000
     28      -5.1503      2.00000
     29      -5.1078      2.00000
     30      -5.0645      2.00000
     31      -4.9326      2.00000
     32      -4.8873      2.00000
     33      -4.8671      2.00000
     34      -4.8185      2.00000
     35      -4.6147      2.00000
     36      -4.3853      2.00000
     37      -4.3232      2.00000
     38      -4.2838      2.00000
     39      -4.2507      2.00000
     40      -4.2246      2.00000
     41      -4.1293      2.00000
     42      -4.0993      2.00000
     43      -4.0902      2.00000
     44      -4.0303      2.00000
     45      -3.9895      2.00000
     46      -3.9375      2.00000
     47      -3.9263      2.00000
     48      -3.7715      2.00000
     49      -3.7548      2.00000
     50      -3.6861      2.00000
     51      -3.6177      2.00000
     52      -3.4824      2.00000
     53      -3.4791      2.00000
     54      -3.4170      2.00000
     55      -3.3850      2.00000
     56      -3.2552      2.00000
     57      -3.2238      2.00000
     58      -3.1955      2.00000
     59      -3.1659      2.00000
     60      -3.1428      2.00000
     61      -3.0200      2.00000
     62      -3.0166      2.00000
     63      -2.8810      2.00000
     64      -2.2151      2.00000
     65      -2.1008      2.00000
     66      -1.9221      2.00000
     67      -1.2564      1.79849
     68      -0.0829     -0.00000
     69       0.2187     -0.00000
     70       0.6096     -0.00000
     71       0.9421     -0.00000
     72       1.0577     -0.00000
     73       1.3260     -0.00000
     74       2.7309      0.00000
     75       3.0953      0.00000
     76       3.4630      0.00000
     77       3.7819      0.00000
     78       3.8733      0.00000
     79       4.4998      0.00000
     80       4.5088      0.00000
     81       4.5366      0.00000
     82       4.5431      0.00000
     83       4.6675      0.00000
     84       5.5413      0.00000
     85       5.7551      0.00000
     86       5.8937      0.00000
     87       6.0910      0.00000
     88       6.1091      0.00000
     89       6.5834      0.00000
     90       6.6055      0.00000
     91       7.0509      0.00000
     92       7.1550      0.00000
     93       7.1680      0.00000
     94       7.6406      0.00000
     95       7.7031      0.00000
     96       7.7127      0.00000

 k-point     8 :       0.4444    0.1111    0.0000
  band No.  band energies     occupation 
      1      -8.6946      2.00000
      2      -7.7572      2.00000
      3      -7.2334      2.00000
      4      -7.0971      2.00000
      5      -6.9886      2.00000
      6      -6.9737      2.00000
      7      -6.8218      2.00000
      8      -6.7819      2.00000
      9      -6.7582      2.00000
     10      -6.7453      2.00000
     11      -6.6068      2.00000
     12      -6.4871      2.00000
     13      -6.3522      2.00000
     14      -6.1008      2.00000
     15      -6.0607      2.00000
     16      -6.0273      2.00000
     17      -5.8197      2.00000
     18      -5.8196      2.00000
     19      -5.8084      2.00000
     20      -5.7319      2.00000
     21      -5.6685      2.00000
     22      -5.6047      2.00000
     23      -5.4854      2.00000
     24      -5.4768      2.00000
     25      -5.2274      2.00000
     26      -5.2164      2.00000
     27      -5.1935      2.00000
     28      -5.1115      2.00000
     29      -5.0862      2.00000
     30      -5.0411      2.00000
     31      -4.9781      2.00000
     32      -4.9476      2.00000
     33      -4.8935      2.00000
     34      -4.7884      2.00000
     35      -4.7071      2.00000
     36      -4.5747      2.00000
     37      -4.5629      2.00000
     38      -4.5543      2.00000
     39      -4.5360      2.00000
     40      -4.4975      2.00000
     41      -4.4376      2.00000
     42      -4.2962      2.00000
     43      -4.2764      2.00000
     44      -4.2612      2.00000
     45      -4.2284      2.00000
     46      -4.1837      2.00000
     47      -4.0570      2.00000
     48      -4.0326      2.00000
     49      -4.0167      2.00000
     50      -3.9153      2.00000
     51      -3.7392      2.00000
     52      -3.7165      2.00000
     53      -3.6063      2.00000
     54      -3.5252      2.00000
     55      -3.4913      2.00000
     56      -3.3978      2.00000
     57      -3.3778      2.00000
     58      -3.2585      2.00000
     59      -3.1858      2.00000
     60      -3.1820      2.00000
     61      -3.1585      2.00000
     62      -3.0271      2.00000
     63      -3.0181      2.00000
     64      -2.8684      2.00000
     65      -2.0486      2.00000
     66      -1.5115      2.00010
     67      -1.2334      1.52022
     68      -0.5019     -0.00000
     69      -0.1863     -0.00000
     70       0.8463     -0.00000
     71       1.0608     -0.00000
     72       1.4113     -0.00000
     73       2.2715      0.00000
     74       2.9600      0.00000
     75       3.1697      0.00000
     76       3.7608      0.00000
     77       4.2214      0.00000
     78       4.3206      0.00000
     79       4.8497      0.00000
     80       4.9409      0.00000
     81       4.9540      0.00000
     82       5.0339      0.00000
[...]
     52      -3.5958      2.00000
     53      -3.5958      2.00000
     54      -3.3937      2.00000
     55      -3.3646      2.00000
     56      -3.3143      2.00000
     57      -3.2653      2.00000
     58      -3.2653      2.00000
     59      -3.2631      2.00000
     60      -3.1846      2.00000
     61      -3.1846      2.00000
     62      -3.1292      2.00000
     63      -2.7933      2.00000
     64      -2.7933      2.00000
     65      -2.2031      2.00000
     66      -2.2031      2.00000
     67      -1.5894      2.00000
     68       0.0228     -0.00000
     69       0.0228     -0.00000
     70       0.9439     -0.00000
     71       1.0002     -0.00000
     72       1.2773     -0.00000
     73       2.2420      0.00000
     74       2.3897      0.00000
     75       3.7957      0.00000
     76       3.7957      0.00000
     77       3.9673      0.00000
     78       4.1286      0.00000
     79       4.3680      0.00000
     80       4.8144      0.00000
     81       4.9638      0.00000
     82       5.3275      0.00000
     83       5.3275      0.00000
     84       5.8162      0.00000
     85       5.9830      0.00000
     86       5.9830      0.00000
     87       6.1147      0.00000
     88       6.1832      0.00000
     89       6.6558      0.00000
     90       6.6558      0.00000
     91       6.8693      0.00000
     92       6.8693      0.00000
     93       7.1396      0.00000
     94       7.1396      0.00000
     95       7.2335      0.00000
     96       7.9694      0.00000

 k-point    11 :      -0.4444    0.2222    0.0000
  band No.  band energies     occupation 
      1      -8.2461      2.00000
      2      -7.7560      2.00000
      3      -7.3194      2.00000
      4      -6.9182      2.00000
      5      -6.8101      2.00000
      6      -6.7265      2.00000
      7      -6.6749      2.00000
      8      -6.6056      2.00000
      9      -6.5981      2.00000
     10      -6.5273      2.00000
     11      -6.4699      2.00000
     12      -6.2300      2.00000
     13      -6.2119      2.00000
     14      -6.1489      2.00000
     15      -6.1152      2.00000
     16      -6.0987      2.00000
     17      -5.9971      2.00000
     18      -5.8951      2.00000
     19      -5.8473      2.00000
     20      -5.7828      2.00000
     21      -5.6065      2.00000
     22      -5.5575      2.00000
     23      -5.4821      2.00000
     24      -5.4340      2.00000
     25      -5.3378      2.00000
     26      -5.3202      2.00000
     27      -5.2445      2.00000
     28      -5.2390      2.00000
     29      -5.2163      2.00000
     30      -5.2045      2.00000
     31      -5.0678      2.00000
     32      -4.9799      2.00000
     33      -4.9664      2.00000
     34      -4.9104      2.00000
     35      -4.8696      2.00000
     36      -4.7736      2.00000
     37      -4.7247      2.00000
     38      -4.6826      2.00000
     39      -4.6780      2.00000
     40      -4.6172      2.00000
     41      -4.5608      2.00000
     42      -4.3495      2.00000
     43      -4.2854      2.00000
     44      -4.2324      2.00000
     45      -4.1260      2.00000
     46      -4.0943      2.00000
     47      -4.0658      2.00000
     48      -4.0648      2.00000
     49      -3.9840      2.00000
     50      -3.8366      2.00000
     51      -3.7906      2.00000
     52      -3.6978      2.00000
     53      -3.6868      2.00000
     54      -3.4783      2.00000
     55      -3.4693      2.00000
     56      -3.3639      2.00000
     57      -3.3526      2.00000
     58      -3.2968      2.00000
     59      -3.2710      2.00000
     60      -3.2332      2.00000
     61      -3.1896      2.00000
     62      -3.1837      2.00000
     63      -3.1662      2.00000
     64      -2.8585      2.00000
     65      -2.7424      2.00000
     66      -2.1682      2.00000
     67      -1.1706      0.42766
     68      -0.6545     -0.00000
     69      -0.0410     -0.00000
     70       0.8114     -0.00000
     71       1.7971      0.00000
     72       2.0842      0.00000
     73       2.1712      0.00000
     74       2.9559      0.00000
     75       3.1351      0.00000
     76       3.7571      0.00000
     77       4.2048      0.00000
     78       4.4931      0.00000
     79       4.5391      0.00000
     80       5.0643      0.00000
     81       5.3309      0.00000
     82       5.4470      0.00000
     83       5.4812      0.00000
     84       5.5153      0.00000
     85       5.9824      0.00000
     86       6.0691      0.00000
     87       6.4662      0.00000
     88       6.4859      0.00000
     89       6.6112      0.00000
     90       6.6254      0.00000
     91       6.6322      0.00000
     92       6.8023      0.00000
     93       7.0608      0.00000
     94       7.2467      0.00000
     95       7.4165      0.00000
     96       7.6025      0.00000

 k-point    12 :      -0.3333    0.3333    0.0000
  band No.  band energies     occupation 
      1      -7.7560      2.00000
      2      -7.7560      2.00000
      3      -7.7560      2.00000
      4      -6.7175      2.00000
      5      -6.7175      2.00000
      6      -6.7175      2.00000
      7      -6.4664      2.00000
      8      -6.4163      2.00000
      9      -6.4163      2.00000
     10      -6.3922      2.00000
     11      -6.3922      2.00000
     12      -6.3922      2.00000
     13      -6.2869      2.00000
     14      -6.2869      2.00000
     15      -6.2869      2.00000
     16      -5.9708      2.00000
     17      -5.9708      2.00000
     18      -5.8033      2.00000
     19      -5.8033      2.00000
     20      -5.8033      2.00000
     21      -5.6236      2.00000
     22      -5.6236      2.00000
     23      -5.6236      2.00000
     24      -5.4458      2.00000
     25      -5.4458      2.00000
     26      -5.4458      2.00000
     27      -5.3669      2.00000
     28      -5.3669      2.00000
     29      -5.3669      2.00000
     30      -5.2519      2.00000
     31      -4.9121      2.00000
     32      -4.9121      2.00000
     33      -4.9043      2.00000
     34      -4.8925      2.00000
     35      -4.8720      2.00000
     36      -4.8720      2.00000
     37      -4.8720      2.00000
     38      -4.7818      2.00000
     39      -4.7818      2.00000
     40      -4.7818      2.00000
     41      -4.3610      2.00000
     42      -4.3610      2.00000
     43      -4.3610      2.00000
     44      -4.1952      2.00000
     45      -4.1952      2.00000
     46      -4.0296      2.00000
     47      -4.0296      2.00000
     48      -4.0296      2.00000
     49      -3.8517      2.00000
     50      -3.8517      2.00000
     51      -3.8517      2.00000
     52      -3.4679      2.00000
     53      -3.4679      2.00000
     54      -3.4679      2.00000
     55      -3.4002      2.00000
     56      -3.4002      2.00000
     57      -3.3536      2.00000
     58      -3.3536      2.00000
     59      -3.3536      2.00000
     60      -3.2878      2.00000
     61      -3.2518      2.00000
     62      -3.2518      2.00000
     63      -3.2518      2.00000
     64      -2.8450      2.00000
     65      -2.8450      2.00000
     66      -2.8450      2.00000
     67      -0.6895     -0.00000
     68      -0.6895     -0.00000
     69      -0.6895     -0.00000
     70       1.5871      0.00000
     71       1.8159      0.00000
     72       1.8159      0.00000
     73       2.8907      0.00000
     74       2.8907      0.00000
     75       2.8907      0.00000
     76       3.9746      0.00000
     77       4.0059      0.00000
     78       4.0059      0.00000
     79       5.0089      0.00000
     80       5.0089      0.00000
     81       5.0089      0.00000
     82       5.9177      0.00000
     83       5.9177      0.00000
     84       5.9177      0.00000
     85       5.9993      0.00000
     86       5.9993      0.00000
     87       5.9993      0.00000
     88       6.0024      0.00000
     89       6.0024      0.00000
     90       6.5509      0.00000
     91       7.0913      0.00000
     92       7.0913      0.00000
     93       7.0913      0.00000
     94       7.1834      0.00000
     95       7.1834      0.00000
     96       7.1834      0.00000


--------------------------------------------------------------------------------------------------------


 soft charge-density along one line, spin component           1
         0         1         2         3         4         5         6         7         8         9
 total charge-density along one line
 
 pseudopotential strength for first ion, spin component:           1
 -8.153  -0.000   0.000  -0.003   0.000  -8.298  -0.000   0.000
 -0.000  -8.120  -0.000   0.000  -0.003  -0.000  -8.265  -0.000
  0.000  -0.000  -8.119  -0.000   0.000   0.000  -0.000  -8.264
 -0.003   0.000  -0.000  -8.120  -0.000  -0.003   0.000  -0.000
  0.000  -0.003   0.000  -0.000  -8.153   0.000  -0.003   0.000
 -8.298  -0.000   0.000  -0.003   0.000  -8.426  -0.000   0.000
 -0.000  -8.265  -0.000   0.000  -0.003  -0.000  -8.394  -0.000
  0.000  -0.000  -8.264  -0.000   0.000   0.000  -0.000  -8.394
 -0.003   0.000  -0.000  -8.265  -0.000  -0.003   0.000  -0.000
  0.000  -0.003   0.000  -0.000  -8.298   0.000  -0.003   0.000
  0.000   0.000  -0.014   0.000   0.000   0.000   0.000  -0.014
  0.000   0.000  -0.020   0.000   0.000   0.000   0.000  -0.020
  0.000  -0.003  -0.000  -0.000   0.000   0.000  -0.002  -0.000
 -0.000  -0.000  -0.005  -0.000  -0.000  -0.000  -0.000  -0.004
  0.000  -0.000  -0.000  -0.003   0.000   0.000  -0.000  -0.000
  0.000  -0.002  -0.000  -0.000   0.000   0.000  -0.002  -0.000
 -0.000  -0.000  -0.004  -0.000  -0.000  -0.000  -0.000  -0.004
  0.000  -0.000  -0.000  -0.002   0.000   0.000  -0.000  -0.000
 total augmentation occupancy for first ion, spin component:           1
  4.048   0.000   0.000   0.057   0.000  -2.023  -0.000  -0.000  -0.100   0.000   0.000   0.000  -0.000   0.000  -0.036   0.000
  0.000   3.662  -0.000  -0.000   0.057  -0.000  -1.453   0.000   0.000  -0.100   0.000   0.000  -0.141   0.000   0.000   0.003
  0.000  -0.000   4.087   0.000  -0.000   0.000   0.000  -1.939  -0.000   0.000   0.592  -0.049   0.000  -0.228  -0.000  -0.000
  0.057  -0.000  -0.000   3.662  -0.000  -0.100   0.000  -0.000  -1.453   0.000  -0.000  -0.000   0.000  -0.000  -0.141  -0.000
 -0.000   0.057  -0.000  -0.000   4.048  -0.000  -0.100   0.000   0.000  -2.023  -0.000   0.000  -0.036   0.000   0.000   0.001
 -2.023  -0.000  -0.000  -0.100   0.000   1.912   0.000   0.000   0.131  -0.000  -0.000   0.000   0.000   0.000   0.033  -0.000
 -0.000  -1.453   0.000   0.000  -0.100   0.000   1.207  -0.000  -0.000   0.131   0.000  -0.000   0.136   0.000  -0.000  -0.006
 -0.000   0.000  -1.939  -0.000   0.000   0.000  -0.000   1.733   0.000  -0.000  -0.534   0.070  -0.000   0.237   0.000   0.000
 -0.100   0.000  -0.000  -1.453   0.000   0.131  -0.000   0.000   1.207  -0.000   0.000   0.000  -0.000   0.000   0.136   0.000
  0.000  -0.100   0.000   0.000  -2.023  -0.000   0.131  -0.000  -0.000   1.912   0.000  -0.000   0.033  -0.000  -0.000  -0.001
  0.000   0.000   0.592  -0.000  -0.000   0.000   0.000  -0.534   0.000   0.000   2.180  -0.471  -0.000   0.127  -0.000   0.000
 -0.000   0.000  -0.049  -0.000   0.000   0.000   0.000   0.070   0.000  -0.000  -0.471   0.153   0.000  -0.058  -0.000   0.000
 -0.000  -0.141   0.000   0.000  -0.036   0.000   0.136  -0.000  -0.000   0.033   0.000   0.000   0.147   0.000  -0.000  -0.005
 -0.000   0.000  -0.228  -0.000   0.000   0.000   0.000   0.237   0.000  -0.000   0.127  -0.058   0.000   0.083  -0.000   0.000
 -0.036   0.000  -0.000  -0.141   0.000   0.033  -0.000   0.000   0.136  -0.000  -0.000  -0.000  -0.000  -0.000   0.147   0.000
  0.000   0.003  -0.000  -0.000   0.001  -0.000  -0.006   0.000   0.000  -0.001  -0.000  -0.000  -0.005   0.000   0.000   0.000
  0.000  -0.000   0.001  -0.000  -0.000  -0.000   0.000  -0.007  -0.000   0.000  -0.008   0.003  -0.000  -0.003  -0.000  -0.000
  0.001  -0.000   0.000   0.003  -0.000  -0.001   0.000  -0.000  -0.006   0.000  -0.000   0.000   0.000  -0.000  -0.005  -0.000


------------------------ aborting loop because EDIFF is reached ----------------------------------------


    CHARGE:  cpu time    0.1211: real time    0.1213
    FORLOC:  cpu time    0.0029: real time    0.0029
    FORNL :  cpu time    2.7818: real time    2.7839
    STRESS:  cpu time    3.7662: real time    3.7715
    FORCOR:  cpu time    0.0275: real time    0.0275
    FORHAR:  cpu time    0.0089: real time    0.0089
    MIXING:  cpu time    0.0015: real time    0.0015
    OFIELD:  cpu time    0.0001: real time    0.0001

  FORCE on cell =-STRESS in cart. coord.  units (eV):
  Direction    XX          YY          ZZ          XY          YZ          ZX
  --------------------------------------------------------------------------------------
  Alpha Z   225.84439   225.84439   225.84439
  Ewald   53220.26816 53220.26816-60837.49758    -0.00000    -0.00000    -0.00000
  Hartree 55765.26593 55765.26593-54769.57684    -0.00000    -0.00000    -0.00000
  E(xc)    -591.42743  -591.42740  -594.83788    -0.00002     0.00000     0.00000
  Local  ************************113313.95845     0.00096    -0.00000    -0.00000
  n-local    -3.44892   -48.35562   -11.76960   -22.82618    -0.75129     0.46391
  augment   810.45467   810.45550   818.30478    -0.00072    -0.00000    -0.00001
  Kinetic  1824.31103  1834.56380  1855.92366     4.32400    -0.37791     0.43560
  Fock        0.00000     0.00000     0.00000     0.00000     0.00000     0.00000
  -------------------------------------------------------------------------------------
  Total     -10.69069   -10.69069     0.34939     0.00000     0.00000     0.00000
  in kB     -23.06287   -23.06287     0.75374     0.00000     0.00000     0.00000
  external pressure =      -15.12 kB  Pullay stress =        0.00 kB


 VOLUME and BASIS-vectors are now :
 -----------------------------------------------------------------------------
  energy-cutoff  :      400.00
  volume of cell :      742.68
      direct lattice vectors                 reciprocal lattice vectors
     5.880299992  0.000000000  0.000000000     0.170059351 -0.098183812  0.000000000
     2.940149996  5.092489175  0.000000000     0.000000000  0.196367624  0.000000000
     0.000000000  0.000000000 24.801244839     0.000000000  0.000000000  0.040320557

  length of vectors
     5.880299992  5.880299992 24.801244839     0.196367624  0.196367624  0.040320557


 FORCES acting on ions
    electron-ion (+dipol)            ewald-force                    non-local-force                 convergence-correction
 -----------------------------------------------------------------------------------------------
   -.103E-08 -.594E-09 0.206E+04   0.225E-11 0.129E-11 -.206E+04   0.434E-18 0.759E-18 -.221E+00   0.262E-08 0.151E-08 -.944E-01
   -.103E-08 -.593E-09 0.206E+04   0.225E-11 0.129E-11 -.206E+04   -.271E-18 -.651E-18 -.221E+00   0.262E-08 0.151E-08 -.944E-01
   -.103E-08 -.594E-09 0.206E+04   0.225E-11 0.125E-11 -.206E+04   0.466E-17 -.867E-18 -.221E+00   0.262E-08 0.151E-08 -.944E-01
   -.103E-08 -.595E-09 0.206E+04   0.225E-11 0.125E-11 -.206E+04   -.287E-17 0.249E-17 -.221E+00   0.262E-08 0.151E-08 -.944E-01
   -.537E-11 -.241E-11 0.608E-10   -.342E-11 -.194E-11 -.398E-12   -.662E-23 0.331E-23 -.331E-23   -.124E-11 0.110E-11 0.237E-11
   -.544E-11 -.316E-11 -.814E-11   -.342E-11 -.194E-11 -.512E-12   0.199E-22 0.000E+00 0.182E-22   0.104E-11 -.901E-12 0.286E-11
   -.421E-11 -.216E-11 0.606E-10   -.343E-11 -.199E-11 -.398E-12   -.132E-22 0.331E-23 -.136E-22   -.164E-11 0.670E-12 0.301E-11
   -.537E-11 -.319E-11 -.820E-11   -.343E-11 -.198E-11 -.284E-12   0.827E-23 0.331E-23 0.331E-23   0.188E-11 -.669E-12 0.289E-11
   0.103E-08 0.598E-09 -.206E+04   0.119E-11 0.713E-12 0.206E+04   -.585E-17 -.217E-18 0.221E+00   -.262E-08 -.151E-08 0.944E-01
   0.104E-08 0.598E-09 -.206E+04   0.119E-11 0.722E-12 0.206E+04   0.651E-18 -.282E-17 0.221E+00   -.262E-08 -.151E-08 0.944E-01
   0.104E-08 0.598E-09 -.206E+04   0.119E-11 0.669E-12 0.206E+04   -.293E-17 0.651E-18 0.221E+00   -.262E-08 -.151E-08 0.944E-01
   0.103E-08 0.598E-09 -.206E+04   0.119E-11 0.668E-12 0.206E+04   -.114E-17 0.651E-18 0.221E+00   -.262E-08 -.151E-08 0.944E-01
 -----------------------------------------------------------------------------------------------
   0.503E-11 0.452E-11 0.327E-10   0.514E-13 0.223E-14 0.909E-12   -.732E-17 0.993E-23 -.583E-15   -.208E-12 0.554E-12 0.584E-11
 
 
 POSITION                                       TOTAL-FORCE (eV/Angst)
 -----------------------------------------------------------------------------------
      1.47007      0.84875      9.98978        -0.000000      0.000000     -0.013551
      4.41022      0.84875      9.98978        -0.000000      0.000000     -0.013551
      2.94015      3.39499      9.98978        -0.000000      0.000000     -0.013551
      5.88030      3.39499      9.98978        -0.000000      0.000000     -0.013551
      5.88030      1.69750     12.40062        -0.000000     -0.000000      0.000000
      2.94015      1.69750     12.40062        -0.000000     -0.000000      0.000000
      7.35037      4.24374     12.40062        -0.000000     -0.000000      0.000000
      4.41022      4.24374     12.40062        -0.000000     -0.000000      0.000000
     -0.00000      0.00000     14.81146         0.000000      0.000000      0.013551
      2.94015     -0.00000     14.81146         0.000000     -0.000000      0.013551
      1.47007      2.54624     14.81146         0.000000      0.000000      0.013551
      4.41022      2.54624     14.81146         0.000000      0.000000      0.013551
 -----------------------------------------------------------------------------------
    total drift:                                0.000000      0.000000      0.000000


--------------------------------------------------------------------------------------------------------



  FREE ENERGIE OF THE ION-ELECTRON SYSTEM (eV)
  ---------------------------------------------------
  free  energy   TOTEN  =       -35.86586947 eV

  energy  without entropy=      -35.84948381  energy(sigma->0) =      -35.86040758
 
 d Force = 0.1150810E-03[ 0.113E-03, 0.117E-03]  d Energy = 0.2283916E-03-0.113E-03
 d Force = 0.1720342E+02[ 0.172E+02, 0.172E+02]  d Ewald  = 0.1720342E+02-0.480E-07


--------------------------------------------------------------------------------------------------------


    POTLOK:  cpu time    0.0322: real time    0.0322


--------------------------------------------------------------------------------------------------------




--------------------------------------------------------------------------------------------------------


  
 reached required accuracy - stopping structural energy minimisation
     LOOP+:  cpu time   15.5946: real time   15.6504
    4ORBIT:  cpu time    0.0000: real time    0.0000

 total amount of memory used by VASP on root node    75554. kBytes
========================================================================

   base      :      30000. kBytes
   nonl-proj :      26081. kBytes
   fftplans  :       1950. kBytes
   grid      :       6739. kBytes
   one-center:        186. kBytes
   wavefun   :      10598. kBytes
 
  
  
 General timing and accounting informations for this job:
 ========================================================
  
                  Total CPU time used (sec):      134.522
                            User time (sec):      132.412
                          System time (sec):        2.110
                         Elapsed time (sec):      135.307
  
                   Maximum memory used (kb):      129180.
                   Average memory used (kb):           0.
  
                          Minor page faults:        73424
                          Major page faults:           47
                 Voluntary context switches:         2595
