unknown system                          
           1
     5.880300    0.000000    0.000000
     2.940150    5.092489    0.000000
     0.000000    0.000000   24.801245
   Au
  12
Direct configuration=     1
   0.16666667  0.16666667  0.40320557
   0.66666667  0.16666667  0.40320557
   0.16666667  0.66666667  0.40320557
   0.66666667  0.66666667  0.40320557
   0.83333333  0.33333333  0.50000000
   0.33333333  0.33333333  0.50000000
   0.83333333  0.83333333  0.50000000
   0.33333333  0.83333333  0.50000000
   0.00000000  0.00000000  0.59679443
   0.50000000  0.00000000  0.59679443
   0.00000000  0.50000000  0.59679443
   0.50000000  0.50000000  0.59679443
Direct configuration=     2
   0.16666667  0.16666667  0.40310380
   0.66666667  0.16666667  0.40310380
   0.16666667  0.66666667  0.40310380
   0.66666667  0.66666667  0.40310380
   0.83333333  0.33333333  0.50000000
   0.33333333  0.33333333  0.50000000
   0.83333333  0.83333333  0.50000000
   0.33333333  0.83333333  0.50000000
  -0.00000000  0.00000000  0.59689620
   0.50000000 -0.00000000  0.59689620
  -0.00000000  0.50000000  0.59689620
   0.50000000  0.50000000  0.59689620
Direct configuration=     3
   0.16666667  0.16666667  0.40288159
   0.66666667  0.16666667  0.40288159
   0.16666667  0.66666667  0.40288159
   0.66666667  0.66666667  0.40288159
   0.83333333  0.33333333  0.50000000
   0.33333333  0.33333333  0.50000000
   0.83333333  0.83333333  0.50000000
   0.33333333  0.83333333  0.50000000
  -0.00000000  0.00000000  0.59711841
   0.50000000 -0.00000000  0.59711841
  -0.00000000  0.50000000  0.59711841
   0.50000000  0.50000000  0.59711841
Direct configuration=     4
   0.16666667  0.16666667  0.40283567
   0.66666667  0.16666667  0.40283567
   0.16666667  0.66666667  0.40283567
   0.66666667  0.66666667  0.40283567
   0.83333333  0.33333333  0.50000000
   0.33333333  0.33333333  0.50000000
   0.83333333  0.83333333  0.50000000
   0.33333333  0.83333333  0.50000000
  -0.00000000  0.00000000  0.59716433
   0.50000000 -0.00000000  0.59716433
  -0.00000000  0.50000000  0.59716433
   0.50000000  0.50000000  0.59716433
Direct configuration=     5
   0.16666667  0.16666667  0.40279360
   0.66666667  0.16666667  0.40279360
   0.16666667  0.66666667  0.40279360
   0.66666667  0.66666667  0.40279360
   0.83333333  0.33333333  0.50000000
   0.33333333  0.33333333  0.50000000
   0.83333333  0.83333333  0.50000000
   0.33333333  0.83333333  0.50000000
  -0.00000000  0.00000000  0.59720640
   0.50000000 -0.00000000  0.59720640
  -0.00000000  0.50000000  0.59720640
   0.50000000  0.50000000  0.59720640
