   4   4   0   0
  0.1785973E+02  0.4149333E-09  0.4149333E-09  0.4149333E-09  0.5000000E-15
  1.000000000000000E-004
  CAR 
 unknown system                          
     14.64852368      0.24055448  301      6.88323315      1.00000000
      0.241  0.0000E+00  0.0000E+00
      0.289  0.0000E+00  0.0000E+00
      0.337  0.0000E+00  0.0000E+00
      0.385  0.0000E+00  0.0000E+00
      0.433 -0.6684E-28 -0.3210E-29
      0.481 -0.1170E-24 -0.5622E-26
      0.529 -0.1286E-21 -0.6183E-23
      0.577 -0.8872E-19 -0.4267E-20
      0.625 -0.3837E-16 -0.1847E-17
      0.673 -0.1007E-13 -0.4854E-15
      0.721 -0.1696E-11 -0.8196E-13
      0.769 -0.1780E-09 -0.8629E-11
      0.817 -0.1159E-07 -0.5652E-09
      0.865 -0.4659E-06 -0.2294E-07
      0.913 -0.1146E-04 -0.5731E-06
      0.961 -0.1697E-03 -0.8722E-05
      1.009 -0.1467E-02 -0.7920E-04
      1.057 -0.6878E-02 -0.4095E-03
      1.105 -0.1312E-01 -0.1040E-02
      1.153  0.1722E-01 -0.2130E-03
      1.201  0.1301E+00  0.6034E-02
      1.249  0.2465E+00  0.1787E-01
      1.297  0.2144E+00  0.2817E-01
      1.345  0.7130E-01  0.3160E-01
      1.393 -0.3481E-01  0.2992E-01
      1.441 -0.3287E-01  0.2835E-01
      1.489  0.1827E+00  0.3712E-01
      1.537  0.5911E+00  0.6550E-01
      1.585  0.7597E+00  0.1020E+00
      1.633  0.4493E+00  0.1236E+00
      1.681  0.5790E-01  0.1264E+00
      1.729 -0.6528E-01  0.1232E+00
      1.777  0.1266E+00  0.1293E+00
      1.825  0.5436E+00  0.1554E+00
      1.873  0.7642E+00  0.1921E+00
      1.921  0.4882E+00  0.2156E+00
      1.970  0.7476E-01  0.2191E+00
      2.018 -0.4345E-01  0.2171E+00
      2.066  0.2505E+00  0.2291E+00
      2.114  0.7789E+00  0.2665E+00
      2.162  0.9687E+00  0.3130E+00
      2.210  0.5461E+00  0.3392E+00
      2.258  0.4516E-01  0.3414E+00
      2.306  0.9672E-01  0.3461E+00
      2.354  0.8143E+00  0.3852E+00
      2.402  0.1466E+01  0.4556E+00
      2.450  0.1212E+01  0.5138E+00
      2.498  0.6074E+00  0.5430E+00
      2.546  0.5594E+00  0.5698E+00
      2.594  0.6867E+00  0.6028E+00
      2.642  0.4023E+00  0.6221E+00
      2.690 -0.2190E-01  0.6211E+00
      2.738 -0.8931E-01  0.6168E+00
      2.786  0.5841E+00  0.6449E+00
      2.834  0.1788E+01  0.7307E+00
      2.882  0.2312E+01  0.8418E+00
      2.930  0.1997E+01  0.9377E+00
      2.978  0.2459E+01  0.1056E+01
      3.026  0.3962E+01  0.1246E+01
      3.074  0.5073E+01  0.1490E+01
      3.122  0.5789E+01  0.1768E+01
      3.170  0.6702E+01  0.2090E+01
      3.218  0.7025E+01  0.2427E+01
      3.266  0.6896E+01  0.2758E+01
      3.314  0.7252E+01  0.3106E+01
      3.362  0.8476E+01  0.3514E+01
      3.410  0.1118E+02  0.4050E+01
      3.458  0.1415E+02  0.4730E+01
      3.506  0.1421E+02  0.5412E+01
      3.554  0.1117E+02  0.5949E+01
      3.602  0.8470E+01  0.6356E+01
      3.650  0.8801E+01  0.6778E+01
      3.698  0.1082E+02  0.7298E+01
      3.746  0.1087E+02  0.7820E+01
      3.795  0.9068E+01  0.8255E+01
      3.843  0.8635E+01  0.8670E+01
      3.891  0.9865E+01  0.9144E+01
      3.939  0.9640E+01  0.9607E+01
      3.987  0.7082E+01  0.9947E+01
      4.035  0.4748E+01  0.1017E+02
      4.083  0.4824E+01  0.1041E+02
      4.131  0.7530E+01  0.1077E+02
      4.179  0.1045E+02  0.1127E+02
      4.227  0.1094E+02  0.1180E+02
      4.275  0.9470E+01  0.1225E+02
      4.323  0.7836E+01  0.1263E+02
      4.371  0.7161E+01  0.1297E+02
      4.419  0.8458E+01  0.1338E+02
      4.467  0.9692E+01  0.1384E+02
      4.515  0.8327E+01  0.1424E+02
      4.563  0.7555E+01  0.1461E+02
      4.611  0.9475E+01  0.1506E+02
      4.659  0.1059E+02  0.1557E+02
      4.707  0.9901E+01  0.1604E+02
      4.755  0.1019E+02  0.1653E+02
      4.803  0.1194E+02  0.1711E+02
      4.851  0.1306E+02  0.1773E+02
      4.899  0.1244E+02  0.1833E+02
      4.947  0.1222E+02  0.1892E+02
      4.995  0.1376E+02  0.1958E+02
      5.043  0.1516E+02  0.2031E+02
      5.091  0.1571E+02  0.2106E+02
      5.139  0.1575E+02  0.2182E+02
      5.187  0.1448E+02  0.2251E+02
      5.235  0.1174E+02  0.2308E+02
      5.283  0.9339E+01  0.2353E+02
      5.331  0.8407E+01  0.2393E+02
      5.379  0.8261E+01  0.2433E+02
      5.427  0.9228E+01  0.2477E+02
      5.475  0.1124E+02  0.2531E+02
      5.523  0.1151E+02  0.2586E+02
      5.572  0.8994E+01  0.2629E+02
      5.620  0.6666E+01  0.2661E+02
      5.668  0.6386E+01  0.2692E+02
      5.716  0.7167E+01  0.2726E+02
      5.764  0.8675E+01  0.2768E+02
      5.812  0.1070E+02  0.2820E+02
      5.860  0.1245E+02  0.2879E+02
      5.908  0.1412E+02  0.2947E+02
      5.956  0.1467E+02  0.3018E+02
      6.004  0.1186E+02  0.3075E+02
      6.052  0.7626E+01  0.3111E+02
      6.100  0.6085E+01  0.3140E+02
      6.148  0.7870E+01  0.3178E+02
      6.196  0.1101E+02  0.3231E+02
      6.244  0.1308E+02  0.3294E+02
      6.292  0.1175E+02  0.3350E+02
      6.340  0.8063E+01  0.3389E+02
      6.388  0.5653E+01  0.3416E+02
      6.436  0.6200E+01  0.3446E+02
      6.484  0.9178E+01  0.3490E+02
      6.532  0.1208E+02  0.3548E+02
      6.580  0.1240E+02  0.3608E+02
      6.628  0.1075E+02  0.3659E+02
      6.676  0.9215E+01  0.3704E+02
      6.724  0.9502E+01  0.3749E+02
      6.772  0.1266E+02  0.3810E+02
      6.820  0.1703E+02  0.3892E+02
      6.868  0.1776E+02  0.3977E+02
      6.916  0.1318E+02  0.4040E+02
      6.964  0.8145E+01  0.4080E+02
      7.012  0.6782E+01  0.4112E+02
      7.060  0.6715E+01  0.4144E+02
      7.108  0.5267E+01  0.4170E+02
      7.156  0.3514E+01  0.4187E+02
      7.204  0.1915E+01  0.4196E+02
      7.252  0.6380E+00  0.4199E+02
      7.300  0.3847E+00  0.4201E+02
      7.348  0.6173E+00  0.4204E+02
      7.397  0.6567E+00  0.4207E+02
      7.445  0.6975E+00  0.4210E+02
      7.493  0.7849E+00  0.4214E+02
      7.541  0.8083E+00  0.4218E+02
      7.589  0.8042E+00  0.4222E+02
      7.637  0.6436E+00  0.4225E+02
      7.685  0.4547E+00  0.4227E+02
      7.733  0.5342E+00  0.4229E+02
      7.781  0.7183E+00  0.4233E+02
      7.829  0.7768E+00  0.4237E+02
      7.877  0.1161E+01  0.4242E+02
      7.925  0.2297E+01  0.4253E+02
      7.973  0.3211E+01  0.4269E+02
      8.021  0.2512E+01  0.4281E+02
      8.069  0.8377E+00  0.4285E+02
      8.117 -0.1617E-02  0.4285E+02
      8.165  0.6007E+00  0.4288E+02
      8.213  0.1815E+01  0.4296E+02
      8.261  0.2140E+01  0.4307E+02
      8.309  0.1201E+01  0.4312E+02
      8.357  0.2093E+00  0.4313E+02
      8.405 -0.1047E+00  0.4313E+02
      8.453 -0.7656E-01  0.4313E+02
      8.501 -0.6251E-01  0.4312E+02
      8.549 -0.7805E-01  0.4312E+02
      8.597  0.1184E+00  0.4312E+02
      8.645  0.7333E+00  0.4316E+02
      8.693  0.1416E+01  0.4323E+02
      8.741  0.1853E+01  0.4332E+02
      8.789  0.2567E+01  0.4344E+02
      8.837  0.3581E+01  0.4361E+02
      8.885  0.3716E+01  0.4379E+02
      8.933  0.2536E+01  0.4391E+02
      8.981  0.1071E+01  0.4396E+02
      9.029  0.1596E+00  0.4397E+02
      9.077 -0.5600E-01  0.4397E+02
      9.125  0.4603E+00  0.4399E+02
      9.173  0.1298E+01  0.4405E+02
      9.222  0.1421E+01  0.4412E+02
      9.270  0.6577E+00  0.4415E+02
      9.318  0.1353E+00  0.4416E+02
      9.366  0.5862E+00  0.4419E+02
      9.414  0.1369E+01  0.4425E+02
      9.462  0.1328E+01  0.4432E+02
      9.510  0.6003E+00  0.4435E+02
      9.558  0.2924E+00  0.4436E+02
      9.606  0.5528E+00  0.4439E+02
      9.654  0.8546E+00  0.4443E+02
      9.702  0.1235E+01  0.4449E+02
      9.750  0.1599E+01  0.4456E+02
      9.798  0.1464E+01  0.4463E+02
      9.846  0.1095E+01  0.4469E+02
      9.894  0.1118E+01  0.4474E+02
      9.942  0.1463E+01  0.4481E+02
      9.990  0.1354E+01  0.4488E+02
     10.038  0.5735E+00  0.4490E+02
     10.086 -0.6051E-01  0.4490E+02
     10.134  0.1946E+00  0.4491E+02
     10.182  0.1488E+01  0.4498E+02
     10.230  0.3278E+01  0.4514E+02
     10.278  0.4492E+01  0.4535E+02
     10.326  0.4080E+01  0.4555E+02
     10.374  0.2161E+01  0.4565E+02
     10.422  0.4031E+00  0.4567E+02
     10.470 -0.1827E+00  0.4566E+02
     10.518 -0.1309E+00  0.4566E+02
     10.566 -0.5871E-01  0.4565E+02
     10.614 -0.7793E-01  0.4565E+02
     10.662 -0.6215E-02  0.4565E+02
     10.710  0.5054E+00  0.4568E+02
     10.758  0.1310E+01  0.4574E+02
     10.806  0.1472E+01  0.4581E+02
     10.854  0.7610E+00  0.4585E+02
     10.902  0.8612E-01  0.4585E+02
     10.950 -0.1281E+00  0.4584E+02
     10.999 -0.1846E+00  0.4583E+02
     11.047 -0.6406E-01  0.4583E+02
     11.095  0.8414E+00  0.4587E+02
     11.143  0.2432E+01  0.4599E+02
     11.191  0.3263E+01  0.4615E+02
     11.239  0.2987E+01  0.4629E+02
     11.287  0.2700E+01  0.4642E+02
     11.335  0.2300E+01  0.4653E+02
     11.383  0.1273E+01  0.4659E+02
     11.431  0.2680E+00  0.4660E+02
     11.479 -0.1212E+00  0.4660E+02
     11.527 -0.1137E+00  0.4659E+02
     11.575  0.7724E-01  0.4660E+02
     11.623  0.4601E+00  0.4662E+02
     11.671  0.6996E+00  0.4665E+02
     11.719  0.4633E+00  0.4667E+02
     11.767  0.3641E+00  0.4669E+02
     11.815  0.1184E+01  0.4675E+02
     11.863  0.2144E+01  0.4685E+02
     11.911  0.1807E+01  0.4694E+02
     11.959  0.7169E+00  0.4697E+02
     12.007  0.5390E+00  0.4700E+02
     12.055  0.1243E+01  0.4706E+02
     12.103  0.1405E+01  0.4712E+02
     12.151  0.6773E+00  0.4716E+02
     12.199 -0.3009E-02  0.4716E+02
     12.247 -0.8960E-01  0.4715E+02
     12.295  0.4529E+00  0.4717E+02
     12.343  0.1289E+01  0.4724E+02
     12.391  0.1474E+01  0.4731E+02
     12.439  0.7589E+00  0.4734E+02
     12.487  0.6299E-01  0.4735E+02
     12.535 -0.3362E-01  0.4735E+02
     12.583  0.3354E+00  0.4736E+02
     12.631  0.7240E+00  0.4740E+02
     12.679  0.6463E+00  0.4743E+02
     12.727  0.2067E+00  0.4744E+02
     12.775 -0.9790E-01  0.4743E+02
     12.824  0.5001E-01  0.4743E+02
     12.872  0.8174E+00  0.4747E+02
     12.920  0.1876E+01  0.4756E+02
     12.968  0.2395E+01  0.4768E+02
     13.016  0.1932E+01  0.4777E+02
     13.064  0.8920E+00  0.4781E+02
     13.112  0.1139E+00  0.4782E+02
     13.160 -0.9552E-01  0.4782E+02
     13.208 -0.5327E-01  0.4781E+02
     13.256 -0.1228E-01  0.4781E+02
     13.304 -0.1564E-02  0.4781E+02
     13.352 -0.5264E-03  0.4781E+02
     13.400 -0.4360E-02  0.4781E+02
     13.448 -0.2576E-01  0.4781E+02
     13.496 -0.7276E-01  0.4781E+02
     13.544 -0.1098E-01  0.4781E+02
     13.592  0.4887E+00  0.4783E+02
     13.640  0.1296E+01  0.4789E+02
     13.688  0.1480E+01  0.4796E+02
     13.736  0.7804E+00  0.4800E+02
     13.784  0.1033E+00  0.4801E+02
     13.832 -0.7875E-01  0.4800E+02
     13.880 -0.4127E-01  0.4800E+02
     13.928 -0.8804E-02  0.4800E+02
     13.976 -0.1018E-02  0.4800E+02
     14.024 -0.6874E-04  0.4800E+02
     14.072 -0.2795E-05  0.4800E+02
     14.120 -0.6953E-07  0.4800E+02
     14.168 -0.1068E-08  0.4800E+02
     14.216 -0.1018E-10  0.4800E+02
     14.264 -0.6068E-13  0.4800E+02
     14.312  0.0000E+00  0.4800E+02
     14.360  0.0000E+00  0.4800E+02
     14.408  0.0000E+00  0.4800E+02
     14.456  0.0000E+00  0.4800E+02
     14.504  0.0000E+00  0.4800E+02
     14.552  0.0000E+00  0.4800E+02
     14.600  0.0000E+00  0.4800E+02
     14.649  0.0000E+00  0.4800E+02
