    4    4    1    1
  0.1785973E+02  0.4149333E-09  0.4149333E-09  0.4149333E-09  0.5000000E-15
  1.000000000000000E-004
  CAR 
 unknown system                          
     40     20     24
 
  0.6250000E-01  0.6250000E-01  0.6250000E-01  0.1562500E-01
    1        1.240554   1.000000
    2        2.986896   1.000000
    3        2.986896   1.000000
    4        2.986896   1.000000
    5        3.190058   1.000000
    6        3.190058   1.000000
    7        3.190058   1.000000
    8        4.774590   1.000000
    9        4.846438   1.000000
   10        4.846438   1.000000
   11        5.971051   1.000000
   12        5.971051   1.000000
   13        6.769914   1.033999
   14        6.769914   1.033999
   15        6.769914   1.033999
   16        6.857483   0.710111
   17        6.857483   0.710111
   18        6.857483   0.710111
   19        7.042463  -0.023422
   20        7.042463  -0.023422
   21        7.042463  -0.023422
   22       10.299592   0.000000
   23       10.299592   0.000000
   24       10.299592   0.000000
 
  0.1875000E+00  0.6250000E-01  0.6250000E-01  0.4687500E-01
    1        1.553407   1.000000
    2        3.107669   1.000000
    3        3.157374   1.000000
    4        3.157374   1.000000
    5        3.298146   1.000000
    6        3.360222   1.000000
    7        3.360222   1.000000
    8        4.647840   1.000000
    9        4.959215   1.000000
   10        4.963175   1.000000
   11        5.836666   1.000000
   12        6.039806   1.000000
   13        6.230218   1.000000
   14        6.230218   1.000000
   15        6.590575   1.000140
   16        6.598190   1.000210
   17        6.598190   1.000210
   18        6.615625   1.000509
   19        6.907017   0.304898
   20        7.027789  -0.029995
   21        7.027789  -0.029995
   22        8.941953  -0.000000
   23       11.147569   0.000000
   24       11.147569   0.000000
 
  0.3125000E+00  0.6250000E-01  0.6250000E-01  0.4687500E-01
    1        2.136247   1.000000
    2        3.280650   1.000000
    3        3.452340   1.000000
    4        3.452340   1.000000
    5        3.503156   1.000000
    6        3.684645   1.000000
    7        3.684645   1.000000
    8        4.401994   1.000000
    9        5.171696   1.000000
   10        5.190408   1.000000
   11        5.452382   1.000000
   12        5.452382   1.000000
   13        5.659219   1.000000
   14        6.108887   1.000000
   15        6.168500   1.000000
   16        6.281116   1.000000
   17        6.281116   1.000000
   18        6.298541   1.000000
   19        6.726867   1.024748
   20        7.022495  -0.032039
   21        7.022495  -0.032039
   22        7.455176  -0.000000
   23       12.351714   0.000000
   24       12.351714   0.000000
 
  0.4375000E+00  0.6250000E-01  0.6250000E-01  0.4687500E-01
    1        2.843926   1.000000
    2        3.296663   1.000000
    3        3.738336   1.000000
    4        3.738336   1.000000
    5        3.780407   1.000000
    6        4.094992   1.000000
    7        4.131649   1.000000
    8        4.131649   1.000000
    9        4.733288   1.000000
   10        4.733288   1.000000
   11        5.276258   1.000000
   12        5.513079   1.000000
   13        5.534490   1.000000
   14        5.802258   1.000000
   15        5.901033   1.000000
   16        5.994565   1.000000
   17        5.994565   1.000000
   18        6.340492   1.000000
   19        6.394422   1.000000
   20        6.533794   1.000005
   21        7.020967  -0.032568
   22        7.020967  -0.032568
   23       13.648524   0.000000
   24       13.648524   0.000000
 
  0.1875000E+00  0.1875000E+00  0.6250000E-01  0.4687500E-01
    1        1.846752   1.000000
    2        3.257792   1.000000
    3        3.278089   1.000000
    4        3.278089   1.000000
    5        3.464830   1.000000
    6        3.464830   1.000000
    7        3.566532   1.000000
    8        4.606969   1.000000
    9        5.005412   1.000000
   10        5.024913   1.000000
   11        5.816586   1.000000
   12        5.913304   1.000000
   13        5.913304   1.000000
   14        5.921668   1.000000
   15        6.060016   1.000000
   16        6.398203   1.000000
   17        6.510802   1.000001
   18        6.510802   1.000001
   19        6.887798   0.461413
   20        6.887798   0.461413
   21        6.915191   0.244256
   22        9.730279   0.000000
   23        9.730279   0.000000
   24       11.839231   0.000000
 
  0.3125000E+00  0.1875000E+00  0.6250000E-01  0.9375000E-01
    1        2.388933   1.000000
    2        3.449391   1.000000
    3        3.487823   1.000000
    4        3.576363   1.000000
    5        3.666048   1.000000
    6        3.777341   1.000000
    7        3.886480   1.000000
    8        4.434458   1.000000
    9        5.102996   1.000000
   10        5.186334   1.000000
   11        5.189818   1.000000
   12        5.341322   1.000000
   13        5.461035   1.000000
   14        5.731955   1.000000
   15        6.143830   1.000000
   16        6.212338   1.000000
   17        6.253048   1.000000
   18        6.267209   1.000000
   19        6.688129   1.009335
   20        6.832572   0.873709
   21        6.837446   0.846091
   22        8.233427  -0.000000
   23       10.765882   0.000000
   24       12.905764   0.000000
 
  0.4375000E+00  0.1875000E+00  0.6250000E-01  0.9375000E-01
    1        3.044492   1.000000
    2        3.473457   1.000000
    3        3.814028   1.000000
    4        3.894984   1.000000
    5        3.918062   1.000000
    6        4.138779   1.000000
    7        4.165747   1.000000
    8        4.183127   1.000000
    9        4.608620   1.000000
   10        4.748438   1.000000
   11        5.032749   1.000000
   12        5.068961   1.000000
   13        5.471380   1.000000
   14        5.826651   1.000000
   15        5.925914   1.000000
   16        5.945980   1.000000
   17        5.983095   1.000000
   18        6.375700   1.000000
   19        6.569734   1.000043
   20        6.808174   0.976307
   21        6.808540   0.975197
   22        7.140832  -0.000819
   23       11.859596   0.000000
   24       12.984264   0.000000
 
  0.3125000E+00  0.3125000E+00  0.6250000E-01  0.4687500E-01
    1        2.841037   1.000000
    2        3.622664   1.000000
    3        3.728491   1.000000
    4        3.728491   1.000000
    5        3.984133   1.000000
    6        3.984133   1.000000
    7        4.169615   1.000000
    8        4.426012   1.000000
    9        4.841151   1.000000
   10        4.841151   1.000000
   11        5.060345   1.000000
   12        5.082263   1.000000
   13        5.262053   1.000000
   14        5.669376   1.000000
   15        5.926418   1.000000
   16        6.076993   1.000000
   17        6.076993   1.000000
   18        6.550949   1.000014
   19        6.550949   1.000014
   20        6.594974   1.000177
   21        6.633699   1.001182
   22        9.179600  -0.000000
   23        9.179600  -0.000000
   24       12.624376   0.000000
 
  0.4375000E+00  0.3125000E+00  0.6250000E-01  0.9375000E-01
    1        3.365634   1.000000
    2        3.726978   1.000000
    3        3.869156   1.000000
    4        4.045664   1.000000
    5        4.207179   1.000000
    6        4.217132   1.000000
    7        4.318173   1.000000
    8        4.332223   1.000000
    9        4.509577   1.000000
   10        4.678472   1.000000
   11        4.753885   1.000000
   12        4.893557   1.000000
   13        5.441249   1.000000
   14        5.746124   1.000000
   15        5.761375   1.000000
   16        5.824485   1.000000
   17        5.850557   1.000000
   18        6.201116   1.000000
   19        6.483384   1.000000
   20        6.509851   1.000001
   21        7.135578  -0.001042
   22        7.952041  -0.000000
   23       10.195188   0.000000
   24       11.318088   0.000000
 
  0.4375000E+00  0.4375000E+00  0.6250000E-01  0.4687500E-01
    1        3.672097   1.000000
    2        3.899894   1.000000
    3        3.899894   1.000000
    4        3.907374   1.000000
    5        4.438394   1.000000
    6        4.441002   1.000000
    7        4.441002   1.000000
    8        4.444790   1.000000
    9        4.614809   1.000000
   10        4.614809   1.000000
   11        4.764518   1.000000
   12        4.846632   1.000000
   13        5.401790   1.000000
   14        5.566578   1.000000
   15        5.590569   1.000000
   16        5.590569   1.000000
   17        5.849990   1.000000
   18        6.129365   1.000000
   19        6.129365   1.000000
   20        6.249748   1.000000
   21        7.880277  -0.000000
   22        8.866761  -0.000000
   23        8.866761  -0.000000
   24        9.957183   0.000000
 
  0.1875000E+00  0.1875000E+00  0.1875000E+00  0.1562500E-01
    1        2.103181   1.000000
    2        3.345864   1.000000
    3        3.345864   1.000000
    4        3.345864   1.000000
    5        3.688970   1.000000
    6        3.688970   1.000000
    7        3.688970   1.000000
    8        4.643784   1.000000
    9        5.024791   1.000000
   10        5.024791   1.000000
   11        5.670245   1.000000
   12        5.670245   1.000000
   13        5.670245   1.000000
   14        5.966695   1.000000
   15        5.966695   1.000000
   16        6.147324   1.000000
   17        6.147324   1.000000
   18        6.147324   1.000000
   19        6.952572   0.042454
   20        6.952572   0.042454
   21        6.952572   0.042454
   22       10.298882   0.000000
   23       10.298882   0.000000
   24       10.298882   0.000000
 
  0.3125000E+00  0.1875000E+00  0.1875000E+00  0.4687500E-01
    1        2.562274   1.000000
    2        3.448699   1.000000
    3        3.538239   1.000000
    4        3.538239   1.000000
    5        3.932884   1.000000
    6        3.999368   1.000000
    7        3.999368   1.000000
    8        4.589013   1.000000
    9        5.065589   1.000000
   10        5.102398   1.000000
   11        5.173593   1.000000
   12        5.173593   1.000000
   13        5.274556   1.000000
   14        5.822371   1.000000
   15        5.947774   1.000000
   16        5.947774   1.000000
   17        5.950596   1.000000
   18        6.209747   1.000000
   19        6.872784   0.587897
   20        6.872784   0.587897
   21        6.894995   0.401219
   22        8.667095  -0.000000
   23       11.158783   0.000000
   24       11.158783   0.000000
 
  0.4375000E+00  0.1875000E+00  0.1875000E+00  0.4687500E-01
    1        3.085570   1.000000
    2        3.421155   1.000000
    3        3.830665   1.000000
    4        3.830665   1.000000
    5        4.127451   1.000000
    6        4.127451   1.000000
    7        4.231107   1.000000
    8        4.447057   1.000000
    9        4.850190   1.000000
   10        4.850190   1.000000
   11        4.949892   1.000000
   12        4.960346   1.000000
   13        5.264559   1.000000
   14        5.512207   1.000000
   15        5.772861   1.000000
   16        5.772861   1.000000
   17        6.384086   1.000000
   18        6.481819   1.000000
   19        6.726830   1.024731
   20        6.791932   1.013586
   21        6.791932   1.013586
   22        7.320349  -0.000000
   23       12.059649   0.000000
   24       12.059649   0.000000
 
  0.3125000E+00  0.3125000E+00  0.1875000E+00  0.4687500E-01
    1        2.852082   1.000000
    2        3.543775   1.000000
    3        3.543775   1.000000
    4        3.579676   1.000000
    5        4.234345   1.000000
    6        4.250040   1.000000
    7        4.250040   1.000000
    8        4.787942   1.000000
    9        4.966733   1.000000
   10        4.966733   1.000000
   11        5.049803   1.000000
   12        5.069358   1.000000
   13        5.123540   1.000000
   14        5.651113   1.000000
   15        5.656984   1.000000
   16        5.656984   1.000000
   17        5.996626   1.000000
   18        6.477362   1.000000
   19        6.802577   0.991708
   20        6.831683   0.878492
   21        6.831683   0.878492
   22        9.411421  -0.000000
   23        9.411421  -0.000000
   24       11.652462   0.000000
 
  0.4375000E+00  0.3125000E+00  0.1875000E+00  0.9375000E-01
    1        3.168286   1.000000
    2        3.421229   1.000000
    3        3.668522   1.000000
    4        3.668816   1.000000
    5        4.299956   1.000000
    6        4.313203   1.000000
    7        4.597561   1.000000
    8        4.821877   1.000000
    9        4.847026   1.000000
   10        4.931969   1.000000
   11        4.994403   1.000000
   12        5.115062   1.000000
   13        5.163620   1.000000
   14        5.372138   1.000000
   15        5.493752   1.000000
   16        5.533361   1.000000
   17        6.260121   1.000000
   18        6.635522   1.001282
   19        6.696414   1.011951
   20        6.705402   1.015279
   21        7.013772  -0.034562
   22        7.975115  -0.000000
   23       10.304119   0.000000
   24       11.255527   0.000000
 
  0.4375000E+00  0.4375000E+00  0.1875000E+00  0.4687500E-01
    1        3.294627   1.000000
    2        3.465692   1.000000
    3        3.465692   1.000000
    4        3.544370   1.000000
    5        4.468160   1.000000
    6        4.569046   1.000000
    7        4.569046   1.000000
    8        4.753215   1.000000
    9        5.108731   1.000000
   10        5.130125   1.000000
   11        5.130125   1.000000
   12        5.283164   1.000000
   13        5.285378   1.000000
   14        5.315231   1.000000
   15        5.335983   1.000000
   16        5.335983   1.000000
   17        6.220161   1.000000
   18        6.482174   1.000000
   19        6.482174   1.000000
   20        6.528598   1.000003
   21        7.771935  -0.000000
   22        8.845248  -0.000000
   23        8.845248  -0.000000
   24        9.934734   0.000000
 
  0.3125000E+00  0.3125000E+00  0.3125000E+00  0.1562500E-01
    1        2.911506   1.000000
    2        3.431470   1.000000
    3        3.431470   1.000000
    4        3.431470   1.000000
    5        4.422317   1.000000
    6        4.422317   1.000000
    7        4.422317   1.000000
    8        4.963791   1.000000
    9        4.963791   1.000000
   10        5.228817   1.000000
   11        5.228817   1.000000
   12        5.228817   1.000000
   13        5.348174   1.000000
   14        5.348174   1.000000
   15        5.348174   1.000000
   16        5.439883   1.000000
   17        6.348335   1.000000
   18        6.348335   1.000000
   19        6.897799   0.378171
   20        6.897799   0.378171
   21        6.897799   0.378171
   22        9.831035   0.000000
   23        9.831035   0.000000
   24        9.831035   0.000000
 
  0.4375000E+00  0.3125000E+00  0.3125000E+00  0.4687500E-01
    1        3.039651   1.000000
    2        3.226697   1.000000
    3        3.382322   1.000000
    4        3.382322   1.000000
    5        4.464547   1.000000
    6        4.464547   1.000000
    7        4.663561   1.000000
    8        4.854323   1.000000
    9        4.976913   1.000000
   10        5.110436   1.000000
   11        5.203162   1.000000
   12        5.203162   1.000000
   13        5.417276   1.000000
   14        5.511840   1.000000
   15        5.511840   1.000000
   16        5.639006   1.000000
   17        6.650357   1.002404
   18        6.817007   0.946000
   19        6.817007   0.946000
   20        6.846426   0.789331
   21        6.898946   0.368834
   22        8.199911  -0.000000
   23       10.243258   0.000000
   24       10.243258   0.000000
 
  0.4375000E+00  0.4375000E+00  0.3125000E+00  0.4687500E-01
    1        3.034898   1.000000
    2        3.155014   1.000000
    3        3.155014   1.000000
    4        3.207905   1.000000
    5        4.602053   1.000000
    6        4.664131   1.000000
    7        4.664131   1.000000
    8        4.814111   1.000000
    9        4.899258   1.000000
   10        4.991249   1.000000
   11        4.991249   1.000000
   12        5.018809   1.000000
   13        5.902378   1.000000
   14        5.902378   1.000000
   15        5.906724   1.000000
   16        6.161903   1.000000
   17        6.559124   1.000023
   18        6.766559   1.034897
   19        6.768059   1.034553
   20        6.768059   1.034553
   21        7.574057  -0.000000
   22        8.783557  -0.000000
   23        8.783557  -0.000000
   24        9.604882  -0.000000
 
  0.4375000E+00  0.4375000E+00  0.4375000E+00  0.1562500E-01
    1        2.934220   1.000000
    2        2.995165   1.000000
    3        2.995165   1.000000
    4        2.995165   1.000000
    5        4.734482   1.000000
    6        4.734482   1.000000
    7        4.734482   1.000000
    8        4.810344   1.000000
    9        4.810344   1.000000
   10        4.852389   1.000000
   11        4.852389   1.000000
   12        4.852389   1.000000
   13        6.459622   1.000000
   14        6.459622   1.000000
   15        6.459622   1.000000
   16        6.790259   1.016215
   17        6.790259   1.016215
   18        6.864168   0.658140
   19        6.864168   0.658140
   20        6.864168   0.658140
   21        7.678996  -0.000000
   22        8.694213  -0.000000
   23        8.694213  -0.000000
   24        8.694213  -0.000000
