       N       E                     dE             d eps       ncg     rms          rms(c)
DAV:   1     0.142555670669E+03    0.14256E+03   -0.18238E+04   960   0.128E+03
DAV:   2    -0.201453080481E+02   -0.16270E+03   -0.16247E+03  1560   0.237E+02
DAV:   3    -0.210634391970E+02   -0.91813E+00   -0.91438E+00   960   0.273E+01
DAV:   4    -0.210688558659E+02   -0.54167E-02   -0.54162E-02  1224   0.156E+00
DAV:   5    -0.210689023493E+02   -0.46483E-04   -0.46483E-04   984   0.133E-01    0.906E+00
DAV:   6    -0.202400298527E+02    0.82887E+00   -0.56299E+00   960   0.150E+01    0.445E+00
DAV:   7    -0.202287610952E+02    0.11269E-01   -0.22057E-02   960   0.127E+00    0.252E+00
DAV:   8    -0.202237794493E+02    0.49816E-02   -0.31419E-03   984   0.363E-01    0.618E-02
DAV:   9    -0.202238251461E+02   -0.45697E-04   -0.35052E-05   648   0.390E-02
   1 F= -.20223825E+02 E0= -.20221790E+02  d E =-.610434E-02
