<?xml version="1.0" encoding="ISO-8859-1"?>
<modeling>
 <generator>
  <i name="program" type="string">vasp </i>
  <i name="version" type="string">5.4.1  </i>
  <i name="subversion" type="string">05Feb16 (build Feb 08 2018 09:21:51) complex                          parallel </i>
  <i name="platform" type="string">LinuxIFC </i>
  <i name="date" type="string">2019 11 20 </i>
  <i name="time" type="string">21:33:36 </i>
 </generator>
 <incar>
  <i type="string" name="PREC">normal</i>
  <i name="ENCUT">    400.00000000</i>
  <i type="int" name="ISMEAR">     1</i>
  <i name="SIGMA">      0.10000000</i>
  <i type="logical" name="LWAVE"> F  </i>
  <i type="logical" name="LCHARG"> F  </i>
  <v type="int" name="KPOINT_BSE">    -1     0     0     0</v>
 </incar>
 <kpoints>
  <generation param="Monkhorst-Pack">
   <v type="int" name="divisions">       8        8        8 </v>
   <v name="usershift">      0.00000000       0.00000000       0.00000000 </v>
   <v name="genvec1">      0.12500000       0.00000000       0.00000000 </v>
   <v name="genvec2">      0.00000000       0.12500000       0.00000000 </v>
   <v name="genvec3">      0.00000000       0.00000000       0.12500000 </v>
   <v name="shift">      0.50000000       0.50000000       0.50000000 </v>
  </generation>
  <varray name="kpointlist" >
   <v>       0.06250000       0.06250000       0.06250000 </v>
   <v>       0.18750000       0.06250000       0.06250000 </v>
   <v>       0.31250000       0.06250000       0.06250000 </v>
   <v>       0.43750000       0.06250000       0.06250000 </v>
   <v>       0.18750000       0.18750000       0.06250000 </v>
   <v>       0.31250000       0.18750000       0.06250000 </v>
   <v>       0.43750000       0.18750000       0.06250000 </v>
   <v>       0.31250000       0.31250000       0.06250000 </v>
   <v>       0.43750000       0.31250000       0.06250000 </v>
   <v>       0.43750000       0.43750000       0.06250000 </v>
   <v>       0.18750000       0.18750000       0.18750000 </v>
   <v>       0.31250000       0.18750000       0.18750000 </v>
   <v>       0.43750000       0.18750000       0.18750000 </v>
   <v>       0.31250000       0.31250000       0.18750000 </v>
   <v>       0.43750000       0.31250000       0.18750000 </v>
   <v>       0.43750000       0.43750000       0.18750000 </v>
   <v>       0.31250000       0.31250000       0.31250000 </v>
   <v>       0.43750000       0.31250000       0.31250000 </v>
   <v>       0.43750000       0.43750000       0.31250000 </v>
   <v>       0.43750000       0.43750000       0.43750000 </v>
  </varray>
  <varray name="weights" >
   <v>       0.01562500 </v>
   <v>       0.04687500 </v>
   <v>       0.04687500 </v>
   <v>       0.04687500 </v>
   <v>       0.04687500 </v>
   <v>       0.09375000 </v>
   <v>       0.09375000 </v>
   <v>       0.04687500 </v>
   <v>       0.09375000 </v>
   <v>       0.04687500 </v>
   <v>       0.01562500 </v>
   <v>       0.04687500 </v>
   <v>       0.04687500 </v>
   <v>       0.04687500 </v>
   <v>       0.09375000 </v>
   <v>       0.04687500 </v>
   <v>       0.01562500 </v>
   <v>       0.04687500 </v>
   <v>       0.04687500 </v>
   <v>       0.01562500 </v>
  </varray>
 </kpoints>
 <parameters>
  <separator name="general" >
   <i type="string" name="SYSTEM">unknown system</i>
   <i type="logical" name="LCOMPAT"> F  </i>
  </separator>
  <separator name="electronic" >
   <i type="string" name="PREC">normal</i>
   <i name="ENMAX">    400.00000000</i>
   <i name="ENAUG">    416.23000000</i>
   <i name="EDIFF">      0.00010000</i>
   <i type="int" name="IALGO">    38</i>
   <i type="int" name="IWAVPR">    10</i>
   <i type="int" name="NBANDS">    24</i>
   <i name="NELECT">     40.00000000</i>
   <i type="int" name="TURBO">     0</i>
   <i type="int" name="IRESTART">     0</i>
   <i type="int" name="NREBOOT">     0</i>
   <i type="int" name="NMIN">     0</i>
   <i name="EREF">      0.00000000</i>
   <separator name="electronic smearing" >
    <i type="int" name="ISMEAR">     1</i>
    <i name="SIGMA">      0.10000000</i>
    <i name="KSPACING">      0.50000000</i>
    <i type="logical" name="KGAMMA"> T  </i>
   </separator>
   <separator name="electronic projectors" >
    <i type="logical" name="LREAL"> F  </i>
    <v name="ROPT">      0.00000000</v>
    <i type="int" name="LMAXPAW">  -100</i>
    <i type="int" name="LMAXMIX">     2</i>
    <i type="logical" name="NLSPLINE"> F  </i>
   </separator>
   <separator name="electronic startup" >
    <i type="int" name="ISTART">     0</i>
    <i type="int" name="ICHARG">     2</i>
    <i type="int" name="INIWAV">     1</i>
   </separator>
   <separator name="electronic spin" >
    <i type="int" name="ISPIN">     1</i>
    <i type="logical" name="LNONCOLLINEAR"> F  </i>
    <v name="MAGMOM">      1.00000000      1.00000000      1.00000000      1.00000000</v>
    <i name="NUPDOWN">     -1.00000000</i>
    <i type="logical" name="LSORBIT"> F  </i>
    <v name="SAXIS">      0.00000000      0.00000000      1.00000000</v>
    <i type="logical" name="LSPIRAL"> F  </i>
    <v name="QSPIRAL">      0.00000000      0.00000000      0.00000000</v>
    <i type="logical" name="LZEROZ"> F  </i>
   </separator>
   <separator name="electronic exchange-correlation" >
    <i type="logical" name="LASPH"> F  </i>
    <i type="logical" name="LMETAGGA"> F  </i>
   </separator>
   <separator name="electronic convergence" >
    <i type="int" name="NELM">    60</i>
    <i type="int" name="NELMDL">    -5</i>
    <i type="int" name="NELMIN">     2</i>
    <i name="ENINI">    400.00000000</i>
    <separator name="electronic convergence detail" >
     <i type="logical" name="LDIAG"> T  </i>
     <i type="logical" name="LSUBROT"> F  </i>
     <i name="WEIMIN">      0.00000000</i>
     <i name="EBREAK">      0.00000104</i>
     <i name="DEPER">      0.30000000</i>
     <i type="int" name="NRMM">     4</i>
     <i name="TIME">      0.40000000</i>
    </separator>
   </separator>
   <separator name="electronic mixer" >
    <i name="AMIX">      0.40000000</i>
    <i name="BMIX">      1.00000000</i>
    <i name="AMIN">      0.10000000</i>
    <i name="AMIX_MAG">      1.60000000</i>
    <i name="BMIX_MAG">      1.00000000</i>
    <separator name="electronic mixer details" >
     <i type="int" name="IMIX">     4</i>
     <i type="logical" name="MIXFIRST"> F  </i>
     <i type="int" name="MAXMIX">   -45</i>
     <i name="WC">    100.00000000</i>
     <i type="int" name="INIMIX">     1</i>
     <i type="int" name="MIXPRE">     1</i>
     <i type="int" name="MREMOVE">     5</i>
    </separator>
   </separator>
   <separator name="electronic dipolcorrection" >
    <i type="logical" name="LDIPOL"> F  </i>
    <i type="logical" name="LMONO"> F  </i>
    <i type="int" name="IDIPOL">     0</i>
    <i name="EPSILON">      1.00000000</i>
    <v name="DIPOL">   -100.00000000   -100.00000000   -100.00000000</v>
    <i name="EFIELD">      0.00000000</i>
   </separator>
  </separator>
  <separator name="grids" >
   <i type="int" name="NGX">    20</i>
   <i type="int" name="NGY">    20</i>
   <i type="int" name="NGZ">    20</i>
   <i type="int" name="NGXF">    40</i>
   <i type="int" name="NGYF">    40</i>
   <i type="int" name="NGZF">    40</i>
   <i type="logical" name="ADDGRID"> F  </i>
  </separator>
  <separator name="ionic" >
   <i type="int" name="NSW">     0</i>
   <i type="int" name="IBRION">    -1</i>
   <i type="int" name="ISIF">     2</i>
   <i name="PSTRESS">      0.00000000</i>
   <i name="EDIFFG">      0.00100000</i>
   <i type="int" name="NFREE">     0</i>
   <i name="POTIM">      0.50000000</i>
   <i name="SMASS">     -3.00000000</i>
   <i name="SCALEE">      1.00000000</i>
  </separator>
  <separator name="ionic md" >
   <i name="TEBEG">      0.00010000</i>
   <i name="TEEND">      0.00010000</i>
   <i type="int" name="NBLOCK">     1</i>
   <i type="int" name="KBLOCK">     1</i>
   <i type="int" name="NPACO">   256</i>
   <i name="APACO">     16.00000000</i>
  </separator>
  <separator name="symmetry" >
   <i type="int" name="ISYM">     2</i>
   <i name="SYMPREC">      0.00001000</i>
  </separator>
  <separator name="dos" >
   <i type="logical" name="LORBIT"> F  </i>
   <v name="RWIGS">     -1.00000000</v>
   <i type="int" name="NEDOS">   301</i>
   <i name="EMIN">     10.00000000</i>
   <i name="EMAX">    -10.00000000</i>
   <i name="EFERMI">      0.00000000</i>
  </separator>
  <separator name="writing" >
   <i type="int" name="NWRITE">     2</i>
   <i type="logical" name="LWAVE"> F  </i>
   <i type="logical" name="LCHARG"> F  </i>
   <i type="logical" name="LPARD"> F  </i>
   <i type="logical" name="LVTOT"> F  </i>
   <i type="logical" name="LVHAR"> F  </i>
   <i type="logical" name="LELF"> F  </i>
   <i type="logical" name="LOPTICS"> F  </i>
   <v name="STM">      0.00000000      0.00000000      0.00000000      0.00000000      0.00000000      0.00000000      0.00000000</v>
  </separator>
  <separator name="performance" >
   <i type="int" name="NPAR">    24</i>
   <i type="int" name="NSIM">     4</i>
   <i type="int" name="NBLK">    -1</i>
   <i type="logical" name="LPLANE"> T  </i>
   <i type="logical" name="LSCALAPACK"> F  </i>
   <i type="logical" name="LSCAAWARE"> F  </i>
   <i type="logical" name="LSCALU"> F  </i>
   <i type="logical" name="LASYNC"> F  </i>
   <i type="logical" name="LORBITALREAL"> F  </i>
  </separator>
  <separator name="miscellaneous" >
   <i type="int" name="IDIOT">     3</i>
   <i type="logical" name="LMUSIC"> F  </i>
   <v name="POMASS">    106.42000000</v>
   <v name="DARWINR">      0.00000000</v>
   <v name="DARWINV">      1.00000000</v>
   <i type="logical" name="LCORR"> T  </i>
  </separator>
  <i type="logical" name="GGA_COMPAT"> T  </i>
  <i type="logical" name="LBERRY"> F  </i>
  <i type="int" name="ICORELEVEL">     0</i>
  <i type="logical" name="LDAU"> F  </i>
  <i type="int" name="I_CONSTRAINED_M">     0</i>
  <separator name="electronic exchange-correlation" >
   <i type="string" name="GGA">--</i>
   <i type="int" name="VOSKOWN">     0</i>
   <i type="logical" name="LHFCALC"> F  </i>
   <i type="string" name="PRECFOCK"></i>
   <i type="logical" name="LSYMGRAD"> F  </i>
   <i type="logical" name="LHFONE"> F  </i>
   <i type="logical" name="LRHFCALC"> F  </i>
   <i type="logical" name="LTHOMAS"> F  </i>
   <i type="logical" name="LMODELHF"> F  </i>
   <i name="ENCUT4O">     -1.00000000</i>
   <i type="int" name="EXXOEP">     0</i>
   <i type="int" name="FOURORBIT">     0</i>
   <i name="AEXX">      0.00000000</i>
   <i name="HFALPHA">      0.00000000</i>
   <i name="MCALPHA">      0.00000000</i>
   <i name="ALDAX">      1.00000000</i>
   <i name="AGGAX">      1.00000000</i>
   <i name="ALDAC">      1.00000000</i>
   <i name="AGGAC">      1.00000000</i>
   <i type="int" name="NKREDX">     1</i>
   <i type="int" name="NKREDY">     1</i>
   <i type="int" name="NKREDZ">     1</i>
   <i type="logical" name="SHIFTRED"> F  </i>
   <i type="logical" name="ODDONLY"> F  </i>
   <i type="logical" name="EVENONLY"> F  </i>
   <i type="int" name="LMAXFOCK">     0</i>
   <i type="int" name="NMAXFOCKAE">     0</i>
   <i type="logical" name="LFOCKAEDFT"> F  </i>
   <i name="HFSCREEN">      0.00000000</i>
   <i name="HFSCREENC">      0.00000000</i>
   <i type="int" name="NBANDSGWLOW">     0</i>
  </separator>
  <separator name="vdW DFT" >
   <i type="logical" name="LUSE_VDW"> F  </i>
   <i name="Zab_VDW">     -0.84910000</i>
   <i name="PARAM1">      0.12340000</i>
   <i name="PARAM2">      1.00000000</i>
   <i name="PARAM3">      0.00000000</i>
  </separator>
  <separator name="model GW" >
   <i type="int" name="MODEL_GW">     0</i>
   <i name="MODEL_EPS0">     10.71584033</i>
   <i name="MODEL_ALPHA">      1.00000000</i>
  </separator>
  <separator name="linear response parameters" >
   <i type="logical" name="LEPSILON"> F  </i>
   <i type="logical" name="LRPA"> F  </i>
   <i type="logical" name="LNABLA"> F  </i>
   <i type="logical" name="LVEL"> F  </i>
   <i type="int" name="KINTER">     0</i>
   <i name="CSHIFT">      0.10000000</i>
   <i name="OMEGAMAX">     -1.00000000</i>
   <i name="DEG_THRESHOLD">      0.00200000</i>
  </separator>
  <separator name="orbital magnetization" >
   <i type="logical" name="NUCIND"> F  </i>
   <v name="MAGPOS">      0.00000000      0.00000000      0.00000000</v>
   <i type="logical" name="LNICSALL"> T  </i>
   <i type="logical" name="ORBITALMAG"> F  </i>
   <i type="logical" name="LMAGBLOCH"> F  </i>
   <i type="logical" name="LCHIMAG"> F  </i>
   <i type="logical" name="LGAUGE"> T  </i>
   <i type="int" name="MAGATOM">     0</i>
   <v name="MAGDIPOL">      0.00000000      0.00000000      0.00000000</v>
   <v name="AVECCONST">      0.00000000      0.00000000      0.00000000</v>
  </separator>
  <separator name="response functions" >
   <i type="logical" name="LADDER"> F  </i>
   <i type="logical" name="LFXC"> F  </i>
   <i type="logical" name="LHARTREE"> T  </i>
   <i type="int" name="IBSE">     0</i>
   <v type="int" name="KPOINT">    -1     0     0     0</v>
   <i type="logical" name="LTCTE"> F  </i>
   <i type="logical" name="LTETE"> F  </i>
   <i type="logical" name="LTRIPLET"> F  </i>
   <i type="logical" name="LFXCEPS"> F  </i>
   <i type="logical" name="LFXHEG"> F  </i>
   <i type="int" name="NATURALO">     0</i>
   <i type="logical" name="L2ORDER"> F  </i>
   <i type="logical" name="LUSEW"> F  </i>
   <i name="ENCUTGW">     -2.00000000</i>
   <i name="ENCUTGWSOFT">     -2.00000000</i>
   <i name="ENCUTLF">     -1.00000000</i>
   <i type="int" name="LMAXMP2">    -1</i>
   <i name="SCISSOR">      0.00000000</i>
   <i type="int" name="NOMEGA">     0</i>
   <i type="int" name="NOMEGAR">     0</i>
   <i type="int" name="NBANDSGW">    -1</i>
   <i type="int" name="NBANDSO">    -1</i>
   <i type="int" name="NBANDSV">    -1</i>
   <i type="int" name="NELM">     1</i>
   <i type="int" name="NELMHF">     1</i>
   <i type="int" name="DIM">     3</i>
   <i type="int" name="ANTIRES">     0</i>
   <i name="OMEGAMAX">    -30.00000000</i>
   <i name="OMEGAMIN">    -30.00000000</i>
   <i name="OMEGATL">   -200.00000000</i>
   <i type="int" name="OMEGAGRID">     0</i>
   <i name="CSHIFT">     -0.10000000</i>
   <i type="logical" name="SELFENERGY"> F  </i>
   <i type="logical" name="LSPECTRAL"> F  </i>
   <i type="logical" name="LSPECTRALGW"> F  </i>
   <i type="logical" name="LSINGLES"> F  </i>
   <i type="logical" name="LFERMIGW"> F  </i>
   <i type="logical" name="ODDONLYGW"> F  </i>
   <i type="logical" name="EVENONLYGW"> F  </i>
   <i type="int" name="NKREDLFX">     1</i>
   <i type="int" name="NKREDLFY">     1</i>
   <i type="int" name="NKREDLFZ">     1</i>
   <i type="int" name="MAXMEM">  1800</i>
   <i type="int" name="TELESCOPE">     0</i>
   <i type="int" name="TAUPAR">     1</i>
   <i type="int" name="OMEGAPAR">    -1</i>
   <i name="LAMBDA">      1.00000000</i>
  </separator>
  <separator name="External order field" >
   <i name="OFIELD_KAPPA">      0.00000000</i>
   <v name="OFIELD_K">      0.00000000      0.00000000      0.00000000</v>
   <i name="OFIELD_Q6_NEAR">      0.00000000</i>
   <i name="OFIELD_Q6_FAR">      0.00000000</i>
   <i name="OFIELD_A">      0.00000000</i>
  </separator>
 </parameters>
 <atominfo>
  <atoms>       4 </atoms>
  <types>       1 </types>
  <array name="atoms" >
   <dimension dim="1">ion</dimension>
   <field type="string">element</field>
   <field type="int">atomtype</field>
   <set>
    <rc><c>Pd</c><c>   1</c></rc>
    <rc><c>Pd</c><c>   1</c></rc>
    <rc><c>Pd</c><c>   1</c></rc>
    <rc><c>Pd</c><c>   1</c></rc>
   </set>
  </array>
  <array name="atomtypes" >
   <dimension dim="1">type</dimension>
   <field type="int">atomspertype</field>
   <field type="string">element</field>
   <field>mass</field>
   <field>valence</field>
   <field type="string">pseudopotential</field>
   <set>
    <rc><c>   4</c><c>Pd</c><c>    106.42000000</c><c>     10.00000000</c><c>  PAW_PBE Pd 04Jan2005                  </c></rc>
   </set>
  </array>
 </atominfo>
 <structure name="initialpos" >
  <crystal>
   <varray name="basis" >
    <v>       4.14933333       0.00000000       0.00000000 </v>
    <v>       0.00000000       4.14933333       0.00000000 </v>
    <v>       0.00000000       0.00000000       4.14933333 </v>
   </varray>
   <i name="volume">     71.43893553 </i>
   <varray name="rec_basis" >
    <v>       0.24100257       0.00000000       0.00000000 </v>
    <v>       0.00000000       0.24100257       0.00000000 </v>
    <v>       0.00000000       0.00000000       0.24100257 </v>
   </varray>
  </crystal>
  <varray name="positions" >
   <v>       0.00000000       0.00000000       0.00000000 </v>
   <v>       0.00000000       0.50000000       0.50000000 </v>
   <v>       0.50000000       0.00000000       0.50000000 </v>
   <v>       0.50000000       0.50000000       0.00000000 </v>
  </varray>
 </structure>
 <calculation>
  <scstep>
   <time name="dav">    1.70    1.70</time>
   <time name="total">    2.81    2.81</time>
   <energy>
    <i name="alphaZ">    145.97132393 </i>
    <i name="ewald">  -3182.24801207 </i>
    <i name="hartreedc">   -578.83493003 </i>
    <i name="XCdc">   -118.81114370 </i>
    <i name="pawpsdc">   3226.95325816 </i>
    <i name="pawaedc">  -2978.06409795 </i>
    <i name="eentropy">     -0.00315689 </i>
    <i name="bandstr">    388.61685889 </i>
    <i name="atom">   3238.97557032 </i>
    <i name="e_fr_energy">    142.55567067 </i>
    <i name="e_wo_entrp">    142.55882755 </i>
    <i name="e_0_energy">    142.55672296 </i>
   </energy>
  </scstep>
  <scstep>
   <time name="dav">    0.24    0.24</time>
   <time name="total">    0.24    0.24</time>
   <energy>
    <i name="e_fr_energy">    -20.14530805 </i>
    <i name="e_wo_entrp">    -20.13792392 </i>
    <i name="e_0_energy">    -20.14284667 </i>
   </energy>
  </scstep>
  <scstep>
   <time name="dav">    0.20    0.20</time>
   <time name="total">    0.20    0.21</time>
   <energy>
    <i name="e_fr_energy">    -21.06343920 </i>
    <i name="e_wo_entrp">    -21.05469170 </i>
    <i name="e_0_energy">    -21.06052336 </i>
   </energy>
  </scstep>
  <scstep>
   <time name="dav">    0.18    0.18</time>
   <time name="total">    0.18    0.18</time>
   <energy>
    <i name="e_fr_energy">    -21.06885587 </i>
    <i name="e_wo_entrp">    -21.06011602 </i>
    <i name="e_0_energy">    -21.06594258 </i>
   </energy>
  </scstep>
  <scstep>
   <time name="dav">    0.13    0.13</time>
   <time name="total">    0.14    0.14</time>
   <energy>
    <i name="e_fr_energy">    -21.06890235 </i>
    <i name="e_wo_entrp">    -21.06016201 </i>
    <i name="e_0_energy">    -21.06598890 </i>
   </energy>
  </scstep>
  <scstep>
   <time name="dav">    0.12    0.12</time>
   <time name="total">    0.14    0.14</time>
   <energy>
    <i name="e_fr_energy">    -20.24002985 </i>
    <i name="e_wo_entrp">    -20.23416867 </i>
    <i name="e_0_energy">    -20.23807612 </i>
   </energy>
  </scstep>
  <scstep>
   <time name="dav">    0.12    0.12</time>
   <time name="total">    0.14    0.14</time>
   <energy>
    <i name="e_fr_energy">    -20.22876110 </i>
    <i name="e_wo_entrp">    -20.22254815 </i>
    <i name="e_0_energy">    -20.22669011 </i>
   </energy>
  </scstep>
  <scstep>
   <time name="dav">    0.13    0.13</time>
   <time name="total">    0.14    0.14</time>
   <energy>
    <i name="e_fr_energy">    -20.22377945 </i>
    <i name="e_wo_entrp">    -20.21767216 </i>
    <i name="e_0_energy">    -20.22174369 </i>
   </energy>
  </scstep>
  <scstep>
   <time name="dav">    0.13    0.13</time>
   <time name="total">    0.28    0.29</time>
   <energy>
    <i name="alphaZ">    145.97132393 </i>
    <i name="ewald">  -3182.24801207 </i>
    <i name="hartreedc">   -544.71078599 </i>
    <i name="XCdc">   -119.86906046 </i>
    <i name="pawpsdc">   3564.30759176 </i>
    <i name="pawaedc">  -3321.63961033 </i>
    <i name="eentropy">     -0.00610434 </i>
    <i name="bandstr">    198.99526204 </i>
    <i name="atom">   3238.97557032 </i>
    <i name="e_fr_energy">    -20.22382515 </i>
    <i name="e_wo_entrp">    -20.21772080 </i>
    <i name="e_0_energy">    -20.22179036 </i>
   </energy>
  </scstep>
  <structure>
   <crystal>
    <varray name="basis" >
     <v>       4.14933333       0.00000000       0.00000000 </v>
     <v>       0.00000000       4.14933333       0.00000000 </v>
     <v>       0.00000000       0.00000000       4.14933333 </v>
    </varray>
    <i name="volume">     71.43893553 </i>
    <varray name="rec_basis" >
     <v>       0.24100257       0.00000000       0.00000000 </v>
     <v>       0.00000000       0.24100257       0.00000000 </v>
     <v>       0.00000000       0.00000000       0.24100257 </v>
    </varray>
   </crystal>
   <varray name="positions" >
    <v>       0.00000000       0.00000000       0.00000000 </v>
    <v>       0.00000000       0.50000000       0.50000000 </v>
    <v>       0.50000000       0.00000000       0.50000000 </v>
    <v>       0.50000000       0.50000000       0.00000000 </v>
   </varray>
  </structure>
  <varray name="forces" >
   <v>      -0.00000000       0.00000000      -0.00000000 </v>
   <v>       0.00000000      -0.00000000      -0.00000000 </v>
   <v>       0.00000000       0.00000000       0.00000000 </v>
   <v>       0.00000000      -0.00000000       0.00000000 </v>
  </varray>
  <varray name="stress" >
   <v>    -172.88004367      -0.00000000      -0.00000000 </v>
   <v>      -0.00000000    -172.88004367      -0.00000000 </v>
   <v>       0.00000000       0.00000000    -172.88004367 </v>
  </varray>
  <energy>
   <i name="e_fr_energy">    -20.22382515 </i>
   <i name="e_wo_entrp">    -20.22179036 </i>
   <i name="e_0_energy">     -0.00610434 </i>
  </energy>
  <time name="totalsc">    4.61    4.74</time>
  <eigenvalues>
   <array>
    <dimension dim="1">band</dimension>
    <dimension dim="2">kpoint</dimension>
    <dimension dim="3">spin</dimension>
    <field>eigene</field>
    <field>occ</field>
    <set>
     <set comment="spin 1">
      <set comment="kpoint 1">
       <r>    1.2406    1.0000 </r>
       <r>    2.9869    1.0000 </r>
       <r>    2.9869    1.0000 </r>
       <r>    2.9869    1.0000 </r>
       <r>    3.1901    1.0000 </r>
       <r>    3.1901    1.0000 </r>
       <r>    3.1901    1.0000 </r>
       <r>    4.7746    1.0000 </r>
       <r>    4.8464    1.0000 </r>
       <r>    4.8464    1.0000 </r>
       <r>    5.9711    1.0000 </r>
       <r>    5.9711    1.0000 </r>
       <r>    6.7699    1.0340 </r>
       <r>    6.7699    1.0340 </r>
       <r>    6.7699    1.0340 </r>
       <r>    6.8575    0.7101 </r>
       <r>    6.8575    0.7101 </r>
       <r>    6.8575    0.7101 </r>
       <r>    7.0425   -0.0234 </r>
       <r>    7.0425   -0.0234 </r>
       <r>    7.0425   -0.0234 </r>
       <r>   10.2996    0.0000 </r>
       <r>   10.2996    0.0000 </r>
       <r>   10.2996    0.0000 </r>
      </set>
      <set comment="kpoint 2">
       <r>    1.5534    1.0000 </r>
       <r>    3.1077    1.0000 </r>
       <r>    3.1574    1.0000 </r>
       <r>    3.1574    1.0000 </r>
       <r>    3.2981    1.0000 </r>
       <r>    3.3602    1.0000 </r>
       <r>    3.3602    1.0000 </r>
       <r>    4.6478    1.0000 </r>
       <r>    4.9592    1.0000 </r>
       <r>    4.9632    1.0000 </r>
       <r>    5.8367    1.0000 </r>
       <r>    6.0398    1.0000 </r>
       <r>    6.2302    1.0000 </r>
       <r>    6.2302    1.0000 </r>
       <r>    6.5906    1.0001 </r>
       <r>    6.5982    1.0002 </r>
       <r>    6.5982    1.0002 </r>
       <r>    6.6156    1.0005 </r>
       <r>    6.9070    0.3049 </r>
       <r>    7.0278   -0.0300 </r>
       <r>    7.0278   -0.0300 </r>
       <r>    8.9420   -0.0000 </r>
       <r>   11.1476    0.0000 </r>
       <r>   11.1476    0.0000 </r>
      </set>
      <set comment="kpoint 3">
       <r>    2.1362    1.0000 </r>
       <r>    3.2806    1.0000 </r>
       <r>    3.4523    1.0000 </r>
       <r>    3.4523    1.0000 </r>
       <r>    3.5032    1.0000 </r>
       <r>    3.6846    1.0000 </r>
       <r>    3.6846    1.0000 </r>
       <r>    4.4020    1.0000 </r>
       <r>    5.1717    1.0000 </r>
       <r>    5.1904    1.0000 </r>
       <r>    5.4524    1.0000 </r>
       <r>    5.4524    1.0000 </r>
       <r>    5.6592    1.0000 </r>
       <r>    6.1089    1.0000 </r>
       <r>    6.1685    1.0000 </r>
       <r>    6.2811    1.0000 </r>
       <r>    6.2811    1.0000 </r>
       <r>    6.2985    1.0000 </r>
       <r>    6.7269    1.0247 </r>
       <r>    7.0225   -0.0320 </r>
       <r>    7.0225   -0.0320 </r>
       <r>    7.4552   -0.0000 </r>
       <r>   12.3517    0.0000 </r>
       <r>   12.3517    0.0000 </r>
      </set>
      <set comment="kpoint 4">
       <r>    2.8439    1.0000 </r>
       <r>    3.2967    1.0000 </r>
       <r>    3.7383    1.0000 </r>
       <r>    3.7383    1.0000 </r>
       <r>    3.7804    1.0000 </r>
       <r>    4.0950    1.0000 </r>
       <r>    4.1316    1.0000 </r>
       <r>    4.1316    1.0000 </r>
       <r>    4.7333    1.0000 </r>
       <r>    4.7333    1.0000 </r>
       <r>    5.2763    1.0000 </r>
       <r>    5.5131    1.0000 </r>
       <r>    5.5345    1.0000 </r>
       <r>    5.8023    1.0000 </r>
       <r>    5.9010    1.0000 </r>
       <r>    5.9946    1.0000 </r>
       <r>    5.9946    1.0000 </r>
       <r>    6.3405    1.0000 </r>
       <r>    6.3944    1.0000 </r>
       <r>    6.5338    1.0000 </r>
       <r>    7.0210   -0.0326 </r>
       <r>    7.0210   -0.0326 </r>
       <r>   13.6485    0.0000 </r>
       <r>   13.6485    0.0000 </r>
      </set>
      <set comment="kpoint 5">
       <r>    1.8468    1.0000 </r>
       <r>    3.2578    1.0000 </r>
       <r>    3.2781    1.0000 </r>
       <r>    3.2781    1.0000 </r>
       <r>    3.4648    1.0000 </r>
       <r>    3.4648    1.0000 </r>
       <r>    3.5665    1.0000 </r>
       <r>    4.6070    1.0000 </r>
       <r>    5.0054    1.0000 </r>
       <r>    5.0249    1.0000 </r>
       <r>    5.8166    1.0000 </r>
       <r>    5.9133    1.0000 </r>
       <r>    5.9133    1.0000 </r>
       <r>    5.9217    1.0000 </r>
       <r>    6.0600    1.0000 </r>
       <r>    6.3982    1.0000 </r>
       <r>    6.5108    1.0000 </r>
       <r>    6.5108    1.0000 </r>
       <r>    6.8878    0.4614 </r>
       <r>    6.8878    0.4614 </r>
       <r>    6.9152    0.2443 </r>
       <r>    9.7303    0.0000 </r>
       <r>    9.7303    0.0000 </r>
       <r>   11.8392    0.0000 </r>
      </set>
      <set comment="kpoint 6">
       <r>    2.3889    1.0000 </r>
       <r>    3.4494    1.0000 </r>
       <r>    3.4878    1.0000 </r>
       <r>    3.5764    1.0000 </r>
       <r>    3.6660    1.0000 </r>
       <r>    3.7773    1.0000 </r>
       <r>    3.8865    1.0000 </r>
       <r>    4.4345    1.0000 </r>
       <r>    5.1030    1.0000 </r>
       <r>    5.1863    1.0000 </r>
       <r>    5.1898    1.0000 </r>
       <r>    5.3413    1.0000 </r>
       <r>    5.4610    1.0000 </r>
       <r>    5.7320    1.0000 </r>
       <r>    6.1438    1.0000 </r>
       <r>    6.2123    1.0000 </r>
       <r>    6.2530    1.0000 </r>
       <r>    6.2672    1.0000 </r>
       <r>    6.6881    1.0093 </r>
       <r>    6.8326    0.8737 </r>
       <r>    6.8374    0.8461 </r>
       <r>    8.2334   -0.0000 </r>
       <r>   10.7659    0.0000 </r>
       <r>   12.9058    0.0000 </r>
      </set>
      <set comment="kpoint 7">
       <r>    3.0445    1.0000 </r>
       <r>    3.4735    1.0000 </r>
       <r>    3.8140    1.0000 </r>
       <r>    3.8950    1.0000 </r>
       <r>    3.9181    1.0000 </r>
       <r>    4.1388    1.0000 </r>
       <r>    4.1657    1.0000 </r>
       <r>    4.1831    1.0000 </r>
       <r>    4.6086    1.0000 </r>
       <r>    4.7484    1.0000 </r>
       <r>    5.0327    1.0000 </r>
       <r>    5.0690    1.0000 </r>
       <r>    5.4714    1.0000 </r>
       <r>    5.8267    1.0000 </r>
       <r>    5.9259    1.0000 </r>
       <r>    5.9460    1.0000 </r>
       <r>    5.9831    1.0000 </r>
       <r>    6.3757    1.0000 </r>
       <r>    6.5697    1.0000 </r>
       <r>    6.8082    0.9763 </r>
       <r>    6.8085    0.9752 </r>
       <r>    7.1408   -0.0008 </r>
       <r>   11.8596    0.0000 </r>
       <r>   12.9843    0.0000 </r>
      </set>
      <set comment="kpoint 8">
       <r>    2.8410    1.0000 </r>
       <r>    3.6227    1.0000 </r>
       <r>    3.7285    1.0000 </r>
       <r>    3.7285    1.0000 </r>
       <r>    3.9841    1.0000 </r>
       <r>    3.9841    1.0000 </r>
       <r>    4.1696    1.0000 </r>
       <r>    4.4260    1.0000 </r>
       <r>    4.8412    1.0000 </r>
       <r>    4.8412    1.0000 </r>
       <r>    5.0603    1.0000 </r>
       <r>    5.0823    1.0000 </r>
       <r>    5.2621    1.0000 </r>
       <r>    5.6694    1.0000 </r>
       <r>    5.9264    1.0000 </r>
       <r>    6.0770    1.0000 </r>
       <r>    6.0770    1.0000 </r>
       <r>    6.5509    1.0000 </r>
       <r>    6.5509    1.0000 </r>
       <r>    6.5950    1.0002 </r>
       <r>    6.6337    1.0012 </r>
       <r>    9.1796   -0.0000 </r>
       <r>    9.1796   -0.0000 </r>
       <r>   12.6244    0.0000 </r>
      </set>
      <set comment="kpoint 9">
       <r>    3.3656    1.0000 </r>
       <r>    3.7270    1.0000 </r>
       <r>    3.8692    1.0000 </r>
       <r>    4.0457    1.0000 </r>
       <r>    4.2072    1.0000 </r>
       <r>    4.2171    1.0000 </r>
       <r>    4.3182    1.0000 </r>
       <r>    4.3322    1.0000 </r>
       <r>    4.5096    1.0000 </r>
       <r>    4.6785    1.0000 </r>
       <r>    4.7539    1.0000 </r>
       <r>    4.8936    1.0000 </r>
       <r>    5.4412    1.0000 </r>
       <r>    5.7461    1.0000 </r>
       <r>    5.7614    1.0000 </r>
       <r>    5.8245    1.0000 </r>
       <r>    5.8506    1.0000 </r>
       <r>    6.2011    1.0000 </r>
       <r>    6.4834    1.0000 </r>
       <r>    6.5099    1.0000 </r>
       <r>    7.1356   -0.0010 </r>
       <r>    7.9520   -0.0000 </r>
       <r>   10.1952    0.0000 </r>
       <r>   11.3181    0.0000 </r>
      </set>
      <set comment="kpoint 10">
       <r>    3.6721    1.0000 </r>
       <r>    3.8999    1.0000 </r>
       <r>    3.8999    1.0000 </r>
       <r>    3.9074    1.0000 </r>
       <r>    4.4384    1.0000 </r>
       <r>    4.4410    1.0000 </r>
       <r>    4.4410    1.0000 </r>
       <r>    4.4448    1.0000 </r>
       <r>    4.6148    1.0000 </r>
       <r>    4.6148    1.0000 </r>
       <r>    4.7645    1.0000 </r>
       <r>    4.8466    1.0000 </r>
       <r>    5.4018    1.0000 </r>
       <r>    5.5666    1.0000 </r>
       <r>    5.5906    1.0000 </r>
       <r>    5.5906    1.0000 </r>
       <r>    5.8500    1.0000 </r>
       <r>    6.1294    1.0000 </r>
       <r>    6.1294    1.0000 </r>
       <r>    6.2497    1.0000 </r>
       <r>    7.8803   -0.0000 </r>
       <r>    8.8668   -0.0000 </r>
       <r>    8.8668   -0.0000 </r>
       <r>    9.9572    0.0000 </r>
      </set>
      <set comment="kpoint 11">
       <r>    2.1032    1.0000 </r>
       <r>    3.3459    1.0000 </r>
       <r>    3.3459    1.0000 </r>
       <r>    3.3459    1.0000 </r>
       <r>    3.6890    1.0000 </r>
       <r>    3.6890    1.0000 </r>
       <r>    3.6890    1.0000 </r>
       <r>    4.6438    1.0000 </r>
       <r>    5.0248    1.0000 </r>
       <r>    5.0248    1.0000 </r>
       <r>    5.6702    1.0000 </r>
       <r>    5.6702    1.0000 </r>
       <r>    5.6702    1.0000 </r>
       <r>    5.9667    1.0000 </r>
       <r>    5.9667    1.0000 </r>
       <r>    6.1473    1.0000 </r>
       <r>    6.1473    1.0000 </r>
       <r>    6.1473    1.0000 </r>
       <r>    6.9526    0.0425 </r>
       <r>    6.9526    0.0425 </r>
       <r>    6.9526    0.0425 </r>
       <r>   10.2989    0.0000 </r>
       <r>   10.2989    0.0000 </r>
       <r>   10.2989    0.0000 </r>
      </set>
      <set comment="kpoint 12">
       <r>    2.5623    1.0000 </r>
       <r>    3.4487    1.0000 </r>
       <r>    3.5382    1.0000 </r>
       <r>    3.5382    1.0000 </r>
       <r>    3.9329    1.0000 </r>
       <r>    3.9994    1.0000 </r>
       <r>    3.9994    1.0000 </r>
       <r>    4.5890    1.0000 </r>
       <r>    5.0656    1.0000 </r>
       <r>    5.1024    1.0000 </r>
       <r>    5.1736    1.0000 </r>
       <r>    5.1736    1.0000 </r>
       <r>    5.2746    1.0000 </r>
       <r>    5.8224    1.0000 </r>
       <r>    5.9478    1.0000 </r>
       <r>    5.9478    1.0000 </r>
       <r>    5.9506    1.0000 </r>
       <r>    6.2097    1.0000 </r>
       <r>    6.8728    0.5879 </r>
       <r>    6.8728    0.5879 </r>
       <r>    6.8950    0.4012 </r>
       <r>    8.6671   -0.0000 </r>
       <r>   11.1588    0.0000 </r>
       <r>   11.1588    0.0000 </r>
      </set>
      <set comment="kpoint 13">
       <r>    3.0856    1.0000 </r>
       <r>    3.4212    1.0000 </r>
       <r>    3.8307    1.0000 </r>
       <r>    3.8307    1.0000 </r>
       <r>    4.1275    1.0000 </r>
       <r>    4.1275    1.0000 </r>
       <r>    4.2311    1.0000 </r>
       <r>    4.4471    1.0000 </r>
       <r>    4.8502    1.0000 </r>
       <r>    4.8502    1.0000 </r>
       <r>    4.9499    1.0000 </r>
       <r>    4.9603    1.0000 </r>
       <r>    5.2646    1.0000 </r>
       <r>    5.5122    1.0000 </r>
       <r>    5.7729    1.0000 </r>
       <r>    5.7729    1.0000 </r>
       <r>    6.3841    1.0000 </r>
       <r>    6.4818    1.0000 </r>
       <r>    6.7268    1.0247 </r>
       <r>    6.7919    1.0136 </r>
       <r>    6.7919    1.0136 </r>
       <r>    7.3203   -0.0000 </r>
       <r>   12.0596    0.0000 </r>
       <r>   12.0596    0.0000 </r>
      </set>
      <set comment="kpoint 14">
       <r>    2.8521    1.0000 </r>
       <r>    3.5438    1.0000 </r>
       <r>    3.5438    1.0000 </r>
       <r>    3.5797    1.0000 </r>
       <r>    4.2343    1.0000 </r>
       <r>    4.2500    1.0000 </r>
       <r>    4.2500    1.0000 </r>
       <r>    4.7879    1.0000 </r>
       <r>    4.9667    1.0000 </r>
       <r>    4.9667    1.0000 </r>
       <r>    5.0498    1.0000 </r>
       <r>    5.0694    1.0000 </r>
       <r>    5.1235    1.0000 </r>
       <r>    5.6511    1.0000 </r>
       <r>    5.6570    1.0000 </r>
       <r>    5.6570    1.0000 </r>
       <r>    5.9966    1.0000 </r>
       <r>    6.4774    1.0000 </r>
       <r>    6.8026    0.9917 </r>
       <r>    6.8317    0.8785 </r>
       <r>    6.8317    0.8785 </r>
       <r>    9.4114   -0.0000 </r>
       <r>    9.4114   -0.0000 </r>
       <r>   11.6525    0.0000 </r>
      </set>
      <set comment="kpoint 15">
       <r>    3.1683    1.0000 </r>
       <r>    3.4212    1.0000 </r>
       <r>    3.6685    1.0000 </r>
       <r>    3.6688    1.0000 </r>
       <r>    4.3000    1.0000 </r>
       <r>    4.3132    1.0000 </r>
       <r>    4.5976    1.0000 </r>
       <r>    4.8219    1.0000 </r>
       <r>    4.8470    1.0000 </r>
       <r>    4.9320    1.0000 </r>
       <r>    4.9944    1.0000 </r>
       <r>    5.1151    1.0000 </r>
       <r>    5.1636    1.0000 </r>
       <r>    5.3721    1.0000 </r>
       <r>    5.4938    1.0000 </r>
       <r>    5.5334    1.0000 </r>
       <r>    6.2601    1.0000 </r>
       <r>    6.6355    1.0013 </r>
       <r>    6.6964    1.0120 </r>
       <r>    6.7054    1.0153 </r>
       <r>    7.0138   -0.0346 </r>
       <r>    7.9751   -0.0000 </r>
       <r>   10.3041    0.0000 </r>
       <r>   11.2555    0.0000 </r>
      </set>
      <set comment="kpoint 16">
       <r>    3.2946    1.0000 </r>
       <r>    3.4657    1.0000 </r>
       <r>    3.4657    1.0000 </r>
       <r>    3.5444    1.0000 </r>
       <r>    4.4682    1.0000 </r>
       <r>    4.5690    1.0000 </r>
       <r>    4.5690    1.0000 </r>
       <r>    4.7532    1.0000 </r>
       <r>    5.1087    1.0000 </r>
       <r>    5.1301    1.0000 </r>
       <r>    5.1301    1.0000 </r>
       <r>    5.2832    1.0000 </r>
       <r>    5.2854    1.0000 </r>
       <r>    5.3152    1.0000 </r>
       <r>    5.3360    1.0000 </r>
       <r>    5.3360    1.0000 </r>
       <r>    6.2202    1.0000 </r>
       <r>    6.4822    1.0000 </r>
       <r>    6.4822    1.0000 </r>
       <r>    6.5286    1.0000 </r>
       <r>    7.7719   -0.0000 </r>
       <r>    8.8452   -0.0000 </r>
       <r>    8.8452   -0.0000 </r>
       <r>    9.9347    0.0000 </r>
      </set>
      <set comment="kpoint 17">
       <r>    2.9115    1.0000 </r>
       <r>    3.4315    1.0000 </r>
       <r>    3.4315    1.0000 </r>
       <r>    3.4315    1.0000 </r>
       <r>    4.4223    1.0000 </r>
       <r>    4.4223    1.0000 </r>
       <r>    4.4223    1.0000 </r>
       <r>    4.9638    1.0000 </r>
       <r>    4.9638    1.0000 </r>
       <r>    5.2288    1.0000 </r>
       <r>    5.2288    1.0000 </r>
       <r>    5.2288    1.0000 </r>
       <r>    5.3482    1.0000 </r>
       <r>    5.3482    1.0000 </r>
       <r>    5.3482    1.0000 </r>
       <r>    5.4399    1.0000 </r>
       <r>    6.3483    1.0000 </r>
       <r>    6.3483    1.0000 </r>
       <r>    6.8978    0.3782 </r>
       <r>    6.8978    0.3782 </r>
       <r>    6.8978    0.3782 </r>
       <r>    9.8310    0.0000 </r>
       <r>    9.8310    0.0000 </r>
       <r>    9.8310    0.0000 </r>
      </set>
      <set comment="kpoint 18">
       <r>    3.0397    1.0000 </r>
       <r>    3.2267    1.0000 </r>
       <r>    3.3823    1.0000 </r>
       <r>    3.3823    1.0000 </r>
       <r>    4.4645    1.0000 </r>
       <r>    4.4645    1.0000 </r>
       <r>    4.6636    1.0000 </r>
       <r>    4.8543    1.0000 </r>
       <r>    4.9769    1.0000 </r>
       <r>    5.1104    1.0000 </r>
       <r>    5.2032    1.0000 </r>
       <r>    5.2032    1.0000 </r>
       <r>    5.4173    1.0000 </r>
       <r>    5.5118    1.0000 </r>
       <r>    5.5118    1.0000 </r>
       <r>    5.6390    1.0000 </r>
       <r>    6.6504    1.0024 </r>
       <r>    6.8170    0.9460 </r>
       <r>    6.8170    0.9460 </r>
       <r>    6.8464    0.7893 </r>
       <r>    6.8989    0.3688 </r>
       <r>    8.1999   -0.0000 </r>
       <r>   10.2433    0.0000 </r>
       <r>   10.2433    0.0000 </r>
      </set>
      <set comment="kpoint 19">
       <r>    3.0349    1.0000 </r>
       <r>    3.1550    1.0000 </r>
       <r>    3.1550    1.0000 </r>
       <r>    3.2079    1.0000 </r>
       <r>    4.6021    1.0000 </r>
       <r>    4.6641    1.0000 </r>
       <r>    4.6641    1.0000 </r>
       <r>    4.8141    1.0000 </r>
       <r>    4.8993    1.0000 </r>
       <r>    4.9912    1.0000 </r>
       <r>    4.9912    1.0000 </r>
       <r>    5.0188    1.0000 </r>
       <r>    5.9024    1.0000 </r>
       <r>    5.9024    1.0000 </r>
       <r>    5.9067    1.0000 </r>
       <r>    6.1619    1.0000 </r>
       <r>    6.5591    1.0000 </r>
       <r>    6.7666    1.0349 </r>
       <r>    6.7681    1.0346 </r>
       <r>    6.7681    1.0346 </r>
       <r>    7.5741   -0.0000 </r>
       <r>    8.7836   -0.0000 </r>
       <r>    8.7836   -0.0000 </r>
       <r>    9.6049   -0.0000 </r>
      </set>
      <set comment="kpoint 20">
       <r>    2.9342    1.0000 </r>
       <r>    2.9952    1.0000 </r>
       <r>    2.9952    1.0000 </r>
       <r>    2.9952    1.0000 </r>
       <r>    4.7345    1.0000 </r>
       <r>    4.7345    1.0000 </r>
       <r>    4.7345    1.0000 </r>
       <r>    4.8103    1.0000 </r>
       <r>    4.8103    1.0000 </r>
       <r>    4.8524    1.0000 </r>
       <r>    4.8524    1.0000 </r>
       <r>    4.8524    1.0000 </r>
       <r>    6.4596    1.0000 </r>
       <r>    6.4596    1.0000 </r>
       <r>    6.4596    1.0000 </r>
       <r>    6.7903    1.0162 </r>
       <r>    6.7903    1.0162 </r>
       <r>    6.8642    0.6581 </r>
       <r>    6.8642    0.6581 </r>
       <r>    6.8642    0.6581 </r>
       <r>    7.6790   -0.0000 </r>
       <r>    8.6942   -0.0000 </r>
       <r>    8.6942   -0.0000 </r>
       <r>    8.6942   -0.0000 </r>
      </set>
     </set>
    </set>
   </array>
  </eigenvalues>
  <separator name="orbital magnetization" >
   <v name="MAGDIPOLOUT">      0.00000000      0.00000000      0.00000000</v>
  </separator>
  <dos>
   <i name="efermi">      6.88323315 </i>
   <total>
    <array>
     <dimension dim="1">gridpoints</dimension>
     <dimension dim="2">spin</dimension>
     <field>energy</field>
     <field>total</field>
     <field>integrated</field>
     <set>
      <set comment="spin 1">
       <r>     0.2406     0.0000     0.0000 </r>
       <r>     0.2886     0.0000     0.0000 </r>
       <r>     0.3366     0.0000     0.0000 </r>
       <r>     0.3846     0.0000     0.0000 </r>
       <r>     0.4327    -0.0000    -0.0000 </r>
       <r>     0.4807    -0.0000    -0.0000 </r>
       <r>     0.5287    -0.0000    -0.0000 </r>
       <r>     0.5767    -0.0000    -0.0000 </r>
       <r>     0.6248    -0.0000    -0.0000 </r>
       <r>     0.6728    -0.0000    -0.0000 </r>
       <r>     0.7208    -0.0000    -0.0000 </r>
       <r>     0.7688    -0.0000    -0.0000 </r>
       <r>     0.8169    -0.0000    -0.0000 </r>
       <r>     0.8649    -0.0000    -0.0000 </r>
       <r>     0.9129    -0.0000    -0.0000 </r>
       <r>     0.9610    -0.0002    -0.0000 </r>
       <r>     1.0090    -0.0015    -0.0001 </r>
       <r>     1.0570    -0.0069    -0.0004 </r>
       <r>     1.1050    -0.0131    -0.0010 </r>
       <r>     1.1531     0.0172    -0.0002 </r>
       <r>     1.2011     0.1301     0.0060 </r>
       <r>     1.2491     0.2465     0.0179 </r>
       <r>     1.2971     0.2144     0.0282 </r>
       <r>     1.3452     0.0713     0.0316 </r>
       <r>     1.3932    -0.0348     0.0299 </r>
       <r>     1.4412    -0.0329     0.0283 </r>
       <r>     1.4892     0.1827     0.0371 </r>
       <r>     1.5373     0.5911     0.0655 </r>
       <r>     1.5853     0.7597     0.1020 </r>
       <r>     1.6333     0.4493     0.1236 </r>
       <r>     1.6814     0.0579     0.1264 </r>
       <r>     1.7294    -0.0653     0.1232 </r>
       <r>     1.7774     0.1266     0.1293 </r>
       <r>     1.8254     0.5436     0.1554 </r>
       <r>     1.8735     0.7642     0.1921 </r>
       <r>     1.9215     0.4882     0.2156 </r>
       <r>     1.9695     0.0748     0.2191 </r>
       <r>     2.0175    -0.0434     0.2171 </r>
       <r>     2.0656     0.2505     0.2291 </r>
       <r>     2.1136     0.7789     0.2665 </r>
       <r>     2.1616     0.9687     0.3130 </r>
       <r>     2.2096     0.5461     0.3392 </r>
       <r>     2.2577     0.0452     0.3414 </r>
       <r>     2.3057     0.0967     0.3461 </r>
       <r>     2.3537     0.8143     0.3852 </r>
       <r>     2.4017     1.4659     0.4556 </r>
       <r>     2.4498     1.2125     0.5138 </r>
       <r>     2.4978     0.6074     0.5430 </r>
       <r>     2.5458     0.5594     0.5698 </r>
       <r>     2.5939     0.6867     0.6028 </r>
       <r>     2.6419     0.4023     0.6221 </r>
       <r>     2.6899    -0.0219     0.6211 </r>
       <r>     2.7379    -0.0893     0.6168 </r>
       <r>     2.7860     0.5841     0.6449 </r>
       <r>     2.8340     1.7884     0.7307 </r>
       <r>     2.8820     2.3120     0.8418 </r>
       <r>     2.9300     1.9971     0.9377 </r>
       <r>     2.9781     2.4585     1.0558 </r>
       <r>     3.0261     3.9615     1.2460 </r>
       <r>     3.0741     5.0735     1.4897 </r>
       <r>     3.1221     5.7887     1.7677 </r>
       <r>     3.1702     6.7021     2.0896 </r>
       <r>     3.2182     7.0251     2.4270 </r>
       <r>     3.2662     6.8956     2.7581 </r>
       <r>     3.3143     7.2521     3.1064 </r>
       <r>     3.3623     8.4765     3.5135 </r>
       <r>     3.4103    11.1756     4.0503 </r>
       <r>     3.4583    14.1487     4.7298 </r>
       <r>     3.5064    14.2113     5.4123 </r>
       <r>     3.5544    11.1739     5.9489 </r>
       <r>     3.6024     8.4695     6.3557 </r>
       <r>     3.6504     8.8007     6.7784 </r>
       <r>     3.6985    10.8170     7.2979 </r>
       <r>     3.7465    10.8688     7.8199 </r>
       <r>     3.7945     9.0678     8.2554 </r>
       <r>     3.8425     8.6355     8.6701 </r>
       <r>     3.8906     9.8649     9.1439 </r>
       <r>     3.9386     9.6401     9.6068 </r>
       <r>     3.9866     7.0820     9.9470 </r>
       <r>     4.0347     4.7476    10.1750 </r>
       <r>     4.0827     4.8240    10.4067 </r>
       <r>     4.1307     7.5301    10.7683 </r>
       <r>     4.1787    10.4548    11.2704 </r>
       <r>     4.2268    10.9357    11.7956 </r>
       <r>     4.2748     9.4696    12.2504 </r>
       <r>     4.3228     7.8358    12.6267 </r>
       <r>     4.3708     7.1612    12.9707 </r>
       <r>     4.4189     8.4582    13.3769 </r>
       <r>     4.4669     9.6915    13.8423 </r>
       <r>     4.5149     8.3275    14.2423 </r>
       <r>     4.5629     7.5552    14.6051 </r>
       <r>     4.6110     9.4748    15.0602 </r>
       <r>     4.6590    10.5856    15.5686 </r>
       <r>     4.7070     9.9013    16.0441 </r>
       <r>     4.7551    10.1862    16.5333 </r>
       <r>     4.8031    11.9353    17.1065 </r>
       <r>     4.8511    13.0568    17.7336 </r>
       <r>     4.8991    12.4389    18.3310 </r>
       <r>     4.9472    12.2238    18.9180 </r>
       <r>     4.9952    13.7571    19.5787 </r>
       <r>     5.0432    15.1586    20.3068 </r>
       <r>     5.0912    15.7077    21.0611 </r>
       <r>     5.1393    15.7458    21.8174 </r>
       <r>     5.1873    14.4813    22.5129 </r>
       <r>     5.2353    11.7401    23.0767 </r>
       <r>     5.2833     9.3388    23.5252 </r>
       <r>     5.3314     8.4072    23.9290 </r>
       <r>     5.3794     8.2615    24.3257 </r>
       <r>     5.4274     9.2280    24.7689 </r>
       <r>     5.4754    11.2386    25.3087 </r>
       <r>     5.5235    11.5123    25.8616 </r>
       <r>     5.5715     8.9942    26.2935 </r>
       <r>     5.6195     6.6660    26.6137 </r>
       <r>     5.6676     6.3861    26.9204 </r>
       <r>     5.7156     7.1673    27.2646 </r>
       <r>     5.7636     8.6751    27.6812 </r>
       <r>     5.8116    10.7037    28.1953 </r>
       <r>     5.8597    12.4491    28.7932 </r>
       <r>     5.9077    14.1215    29.4714 </r>
       <r>     5.9557    14.6683    30.1759 </r>
       <r>     6.0037    11.8650    30.7457 </r>
       <r>     6.0518     7.6258    31.1119 </r>
       <r>     6.0998     6.0849    31.4042 </r>
       <r>     6.1478     7.8699    31.7821 </r>
       <r>     6.1958    11.0123    32.3110 </r>
       <r>     6.2439    13.0771    32.9391 </r>
       <r>     6.2919    11.7526    33.5035 </r>
       <r>     6.3399     8.0630    33.8907 </r>
       <r>     6.3880     5.6527    34.1622 </r>
       <r>     6.4360     6.2003    34.4600 </r>
       <r>     6.4840     9.1776    34.9008 </r>
       <r>     6.5320    12.0766    35.4808 </r>
       <r>     6.5801    12.4036    36.0765 </r>
       <r>     6.6281    10.7514    36.5928 </r>
       <r>     6.6761     9.2151    37.0354 </r>
       <r>     6.7241     9.5023    37.4917 </r>
       <r>     6.7722    12.6646    38.1000 </r>
       <r>     6.8202    17.0336    38.9181 </r>
       <r>     6.8682    17.7596    39.7710 </r>
       <r>     6.9162    13.1833    40.4041 </r>
       <r>     6.9643     8.1449    40.7953 </r>
       <r>     7.0123     6.7823    41.1210 </r>
       <r>     7.0603     6.7151    41.4435 </r>
       <r>     7.1084     5.2671    41.6965 </r>
       <r>     7.1564     3.5137    41.8652 </r>
       <r>     7.2044     1.9147    41.9572 </r>
       <r>     7.2524     0.6380    41.9878 </r>
       <r>     7.3005     0.3847    42.0063 </r>
       <r>     7.3485     0.6173    42.0360 </r>
       <r>     7.3965     0.6567    42.0675 </r>
       <r>     7.4445     0.6975    42.1010 </r>
       <r>     7.4926     0.7849    42.1387 </r>
       <r>     7.5406     0.8083    42.1775 </r>
       <r>     7.5886     0.8042    42.2161 </r>
       <r>     7.6366     0.6436    42.2470 </r>
       <r>     7.6847     0.4547    42.2689 </r>
       <r>     7.7327     0.5342    42.2945 </r>
       <r>     7.7807     0.7183    42.3290 </r>
       <r>     7.8288     0.7768    42.3663 </r>
       <r>     7.8768     1.1608    42.4221 </r>
       <r>     7.9248     2.2965    42.5324 </r>
       <r>     7.9728     3.2113    42.6866 </r>
       <r>     8.0209     2.5116    42.8072 </r>
       <r>     8.0689     0.8377    42.8475 </r>
       <r>     8.1169    -0.0016    42.8474 </r>
       <r>     8.1649     0.6007    42.8762 </r>
       <r>     8.2130     1.8149    42.9634 </r>
       <r>     8.2610     2.1403    43.0662 </r>
       <r>     8.3090     1.2009    43.1239 </r>
       <r>     8.3570     0.2093    43.1339 </r>
       <r>     8.4051    -0.1047    43.1289 </r>
       <r>     8.4531    -0.0766    43.1252 </r>
       <r>     8.5011    -0.0625    43.1222 </r>
       <r>     8.5492    -0.0780    43.1185 </r>
       <r>     8.5972     0.1184    43.1242 </r>
       <r>     8.6452     0.7333    43.1594 </r>
       <r>     8.6932     1.4159    43.2274 </r>
       <r>     8.7413     1.8527    43.3164 </r>
       <r>     8.7893     2.5671    43.4396 </r>
       <r>     8.8373     3.5807    43.6116 </r>
       <r>     8.8853     3.7163    43.7901 </r>
       <r>     8.9334     2.5363    43.9119 </r>
       <r>     8.9814     1.0707    43.9633 </r>
       <r>     9.0294     0.1596    43.9710 </r>
       <r>     9.0774    -0.0560    43.9683 </r>
       <r>     9.1255     0.4603    43.9904 </r>
       <r>     9.1735     1.2976    44.0527 </r>
       <r>     9.2215     1.4208    44.1210 </r>
       <r>     9.2695     0.6577    44.1525 </r>
       <r>     9.3176     0.1353    44.1590 </r>
       <r>     9.3656     0.5862    44.1872 </r>
       <r>     9.4136     1.3690    44.2529 </r>
       <r>     9.4617     1.3281    44.3167 </r>
       <r>     9.5097     0.6003    44.3456 </r>
       <r>     9.5577     0.2924    44.3596 </r>
       <r>     9.6057     0.5528    44.3862 </r>
       <r>     9.6538     0.8546    44.4272 </r>
       <r>     9.7018     1.2347    44.4865 </r>
       <r>     9.7498     1.5988    44.5633 </r>
       <r>     9.7978     1.4636    44.6336 </r>
       <r>     9.8459     1.0951    44.6862 </r>
       <r>     9.8939     1.1183    44.7399 </r>
       <r>     9.9419     1.4631    44.8101 </r>
       <r>     9.9899     1.3537    44.8751 </r>
       <r>    10.0380     0.5735    44.9027 </r>
       <r>    10.0860    -0.0605    44.8998 </r>
       <r>    10.1340     0.1946    44.9091 </r>
       <r>    10.1821     1.4876    44.9806 </r>
       <r>    10.2301     3.2779    45.1380 </r>
       <r>    10.2781     4.4919    45.3537 </r>
       <r>    10.3261     4.0800    45.5497 </r>
       <r>    10.3742     2.1612    45.6535 </r>
       <r>    10.4222     0.4031    45.6728 </r>
       <r>    10.4702    -0.1827    45.6641 </r>
       <r>    10.5182    -0.1309    45.6578 </r>
       <r>    10.5663    -0.0587    45.6550 </r>
       <r>    10.6143    -0.0779    45.6512 </r>
       <r>    10.6623    -0.0062    45.6509 </r>
       <r>    10.7103     0.5054    45.6752 </r>
       <r>    10.7584     1.3103    45.7381 </r>
       <r>    10.8064     1.4719    45.8088 </r>
       <r>    10.8544     0.7610    45.8454 </r>
       <r>    10.9025     0.0861    45.8495 </r>
       <r>    10.9505    -0.1281    45.8433 </r>
       <r>    10.9985    -0.1846    45.8345 </r>
       <r>    11.0465    -0.0641    45.8314 </r>
       <r>    11.0946     0.8414    45.8718 </r>
       <r>    11.1426     2.4323    45.9886 </r>
       <r>    11.1906     3.2627    46.1453 </r>
       <r>    11.2386     2.9873    46.2888 </r>
       <r>    11.2867     2.6998    46.4185 </r>
       <r>    11.3347     2.2997    46.5289 </r>
       <r>    11.3827     1.2731    46.5900 </r>
       <r>    11.4307     0.2680    46.6029 </r>
       <r>    11.4788    -0.1212    46.5971 </r>
       <r>    11.5268    -0.1137    46.5916 </r>
       <r>    11.5748     0.0772    46.5953 </r>
       <r>    11.6229     0.4601    46.6174 </r>
       <r>    11.6709     0.6996    46.6510 </r>
       <r>    11.7189     0.4633    46.6733 </r>
       <r>    11.7669     0.3641    46.6908 </r>
       <r>    11.8150     1.1843    46.7477 </r>
       <r>    11.8630     2.1440    46.8506 </r>
       <r>    11.9110     1.8071    46.9374 </r>
       <r>    11.9590     0.7169    46.9718 </r>
       <r>    12.0071     0.5390    46.9977 </r>
       <r>    12.0551     1.2428    47.0574 </r>
       <r>    12.1031     1.4049    47.1249 </r>
       <r>    12.1511     0.6773    47.1574 </r>
       <r>    12.1992    -0.0030    47.1573 </r>
       <r>    12.2472    -0.0896    47.1530 </r>
       <r>    12.2952     0.4529    47.1747 </r>
       <r>    12.3432     1.2893    47.2366 </r>
       <r>    12.3913     1.4742    47.3074 </r>
       <r>    12.4393     0.7589    47.3439 </r>
       <r>    12.4873     0.0630    47.3469 </r>
       <r>    12.5354    -0.0336    47.3453 </r>
       <r>    12.5834     0.3354    47.3614 </r>
       <r>    12.6314     0.7240    47.3962 </r>
       <r>    12.6794     0.6463    47.4272 </r>
       <r>    12.7275     0.2067    47.4371 </r>
       <r>    12.7755    -0.0979    47.4324 </r>
       <r>    12.8235     0.0500    47.4348 </r>
       <r>    12.8715     0.8174    47.4741 </r>
       <r>    12.9196     1.8758    47.5642 </r>
       <r>    12.9676     2.3950    47.6792 </r>
       <r>    13.0156     1.9320    47.7720 </r>
       <r>    13.0636     0.8920    47.8148 </r>
       <r>    13.1117     0.1139    47.8203 </r>
       <r>    13.1597    -0.0955    47.8157 </r>
       <r>    13.2077    -0.0533    47.8132 </r>
       <r>    13.2558    -0.0123    47.8126 </r>
       <r>    13.3038    -0.0016    47.8125 </r>
       <r>    13.3518    -0.0005    47.8125 </r>
       <r>    13.3998    -0.0044    47.8123 </r>
       <r>    13.4479    -0.0258    47.8110 </r>
       <r>    13.4959    -0.0728    47.8075 </r>
       <r>    13.5439    -0.0110    47.8070 </r>
       <r>    13.5919     0.4887    47.8305 </r>
       <r>    13.6400     1.2960    47.8927 </r>
       <r>    13.6880     1.4798    47.9638 </r>
       <r>    13.7360     0.7804    48.0013 </r>
       <r>    13.7840     0.1033    48.0062 </r>
       <r>    13.8321    -0.0787    48.0025 </r>
       <r>    13.8801    -0.0413    48.0005 </r>
       <r>    13.9281    -0.0088    48.0001 </r>
       <r>    13.9762    -0.0010    48.0000 </r>
       <r>    14.0242    -0.0001    48.0000 </r>
       <r>    14.0722    -0.0000    48.0000 </r>
       <r>    14.1202    -0.0000    48.0000 </r>
       <r>    14.1683    -0.0000    48.0000 </r>
       <r>    14.2163    -0.0000    48.0000 </r>
       <r>    14.2643    -0.0000    48.0000 </r>
       <r>    14.3123     0.0000    48.0000 </r>
       <r>    14.3604     0.0000    48.0000 </r>
       <r>    14.4084     0.0000    48.0000 </r>
       <r>    14.4564     0.0000    48.0000 </r>
       <r>    14.5044     0.0000    48.0000 </r>
       <r>    14.5525     0.0000    48.0000 </r>
       <r>    14.6005     0.0000    48.0000 </r>
       <r>    14.6485     0.0000    48.0000 </r>
      </set>
     </set>
    </array>
   </total>
  </dos>
 </calculation>
 <structure name="finalpos" >
  <crystal>
   <varray name="basis" >
    <v>       4.14933333       0.00000000       0.00000000 </v>
    <v>       0.00000000       4.14933333       0.00000000 </v>
    <v>       0.00000000       0.00000000       4.14933333 </v>
   </varray>
   <i name="volume">     71.43893553 </i>
   <varray name="rec_basis" >
    <v>       0.24100257       0.00000000       0.00000000 </v>
    <v>       0.00000000       0.24100257       0.00000000 </v>
    <v>       0.00000000       0.00000000       0.24100257 </v>
   </varray>
  </crystal>
  <varray name="positions" >
   <v>       0.00000000       0.00000000       0.00000000 </v>
   <v>       0.00000000       0.50000000       0.50000000 </v>
   <v>       0.50000000       0.00000000       0.50000000 </v>
   <v>       0.50000000       0.50000000       0.00000000 </v>
  </varray>
 </structure>
</modeling>
