  13  13   0   0
  0.5712941E+02  0.5880300E-09  0.5880300E-09  0.2480125E-08  0.5000000E-15
  1.000000000000000E-004
  CAR 
 unknown system                          
      8.95977863    -20.89561172  301     -1.28657437      1.00000000
    -20.896  0.0000E+00  0.0000E+00
    -20.796  0.0000E+00  0.0000E+00
    -20.697  0.0000E+00  0.0000E+00
    -20.597  0.0000E+00  0.0000E+00
    -20.498  0.0000E+00  0.0000E+00
    -20.398 -0.3139E-32 -0.3124E-33
    -20.299 -0.3231E-25 -0.3216E-26
    -20.199 -0.4584E-19 -0.4562E-20
    -20.099 -0.8643E-14 -0.8601E-15
    -20.000 -0.2258E-09 -0.2247E-10
    -19.900 -0.7810E-06 -0.7774E-07
    -19.801 -0.3398E-03 -0.3389E-04
    -19.701 -0.1539E-01 -0.1566E-02
    -19.602  0.3377E-01  0.1796E-02
    -19.502  0.6649E+00  0.6797E-01
    -19.403  0.3570E+00  0.1035E+00
    -19.303 -0.3117E-01  0.1004E+00
    -19.204 -0.3897E-02  0.1000E+00
    -19.104 -0.3005E-04  0.1000E+00
    -19.005 -0.2699E-07  0.1000E+00
    -18.905 -0.3113E-11  0.1000E+00
    -18.806  0.0000E+00  0.1000E+00
    -18.706  0.0000E+00  0.1000E+00
    -18.607  0.0000E+00  0.1000E+00
    -18.507  0.0000E+00  0.1000E+00
    -18.408  0.0000E+00  0.1000E+00
    -18.308  0.0000E+00  0.1000E+00
    -18.209  0.0000E+00  0.1000E+00
    -18.109  0.0000E+00  0.1000E+00
    -18.010  0.0000E+00  0.1000E+00
    -17.910  0.0000E+00  0.1000E+00
    -17.811  0.0000E+00  0.1000E+00
    -17.711  0.0000E+00  0.1000E+00
    -17.612  0.0000E+00  0.1000E+00
    -17.512  0.0000E+00  0.1000E+00
    -17.412  0.0000E+00  0.1000E+00
    -17.313  0.0000E+00  0.1000E+00
    -17.213  0.0000E+00  0.1000E+00
    -17.114  0.0000E+00  0.1000E+00
    -17.014  0.0000E+00  0.1000E+00
    -16.915  0.0000E+00  0.1000E+00
    -16.815  0.0000E+00  0.1000E+00
    -16.716  0.0000E+00  0.1000E+00
    -16.616  0.0000E+00  0.1000E+00
    -16.517  0.0000E+00  0.1000E+00
    -16.417  0.0000E+00  0.1000E+00
    -16.318  0.0000E+00  0.1000E+00
    -16.218  0.0000E+00  0.1000E+00
    -16.119  0.0000E+00  0.1000E+00
    -16.019  0.0000E+00  0.1000E+00
    -15.920  0.0000E+00  0.1000E+00
    -15.820  0.0000E+00  0.1000E+00
    -15.721  0.0000E+00  0.1000E+00
    -15.621  0.0000E+00  0.1000E+00
    -15.522  0.0000E+00  0.1000E+00
    -15.422  0.0000E+00  0.1000E+00
    -15.323  0.0000E+00  0.1000E+00
    -15.223  0.0000E+00  0.1000E+00
    -15.124  0.0000E+00  0.1000E+00
    -15.024  0.0000E+00  0.1000E+00
    -14.925  0.0000E+00  0.1000E+00
    -14.825  0.0000E+00  0.1000E+00
    -14.725  0.0000E+00  0.1000E+00
    -14.626  0.0000E+00  0.1000E+00
    -14.526  0.0000E+00  0.1000E+00
    -14.427  0.0000E+00  0.1000E+00
    -14.327  0.0000E+00  0.1000E+00
    -14.228  0.0000E+00  0.1000E+00
    -14.128  0.0000E+00  0.1000E+00
    -14.029  0.0000E+00  0.1000E+00
    -13.929  0.0000E+00  0.1000E+00
    -13.830  0.0000E+00  0.1000E+00
    -13.730  0.0000E+00  0.1000E+00
    -13.631  0.0000E+00  0.1000E+00
    -13.531  0.0000E+00  0.1000E+00
    -13.432  0.0000E+00  0.1000E+00
    -13.332  0.0000E+00  0.1000E+00
    -13.233  0.0000E+00  0.1000E+00
    -13.133  0.0000E+00  0.1000E+00
    -13.034  0.0000E+00  0.1000E+00
    -12.934  0.0000E+00  0.1000E+00
    -12.835  0.0000E+00  0.1000E+00
    -12.735  0.0000E+00  0.1000E+00
    -12.636  0.0000E+00  0.1000E+00
    -12.536  0.0000E+00  0.1000E+00
    -12.437  0.0000E+00  0.1000E+00
    -12.337  0.0000E+00  0.1000E+00
    -12.238  0.0000E+00  0.1000E+00
    -12.138  0.0000E+00  0.1000E+00
    -12.039  0.0000E+00  0.1000E+00
    -11.939  0.0000E+00  0.1000E+00
    -11.839  0.0000E+00  0.1000E+00
    -11.740  0.0000E+00  0.1000E+00
    -11.640  0.0000E+00  0.1000E+00
    -11.541  0.0000E+00  0.1000E+00
    -11.441  0.0000E+00  0.1000E+00
    -11.342  0.0000E+00  0.1000E+00
    -11.242  0.0000E+00  0.1000E+00
    -11.143  0.0000E+00  0.1000E+00
    -11.043  0.0000E+00  0.1000E+00
    -10.944  0.0000E+00  0.1000E+00
    -10.844  0.0000E+00  0.1000E+00
    -10.745  0.0000E+00  0.1000E+00
    -10.645 -0.2421E-32  0.1000E+00
    -10.546 -0.1633E-25  0.1000E+00
    -10.446 -0.1492E-19  0.1000E+00
    -10.347 -0.1776E-14  0.1000E+00
    -10.247 -0.2873E-10  0.1000E+00
    -10.148 -0.6031E-07  0.1000E+00
    -10.048 -0.1586E-04  0.1000E+00
     -9.949 -0.4919E-03  0.9995E-01
     -9.849 -0.3499E-03  0.9991E-01
     -9.750  0.2701E-01  0.1026E+00
     -9.650  0.5302E-01  0.1079E+00
     -9.551  0.4297E-01  0.1122E+00
     -9.451  0.8539E-01  0.1207E+00
     -9.352  0.2609E-01  0.1232E+00
     -9.252  0.4644E-01  0.1279E+00
     -9.152  0.1045E+00  0.1383E+00
     -9.053  0.5666E-01  0.1439E+00
     -8.953  0.1572E-01  0.1455E+00
     -8.854  0.7491E-01  0.1529E+00
     -8.754  0.1377E+00  0.1666E+00
     -8.655  0.4954E-01  0.1716E+00
     -8.555  0.4691E-01  0.1762E+00
     -8.456  0.1505E+00  0.1912E+00
     -8.356  0.6953E-01  0.1981E+00
     -8.257  0.9104E-01  0.2072E+00
     -8.157  0.1777E+00  0.2249E+00
     -8.058  0.4152E+00  0.2662E+00
     -7.958  0.3437E+00  0.3004E+00
     -7.859  0.1001E+00  0.3104E+00
     -7.759  0.1636E+00  0.3266E+00
     -7.660  0.5803E+00  0.3844E+00
     -7.560  0.6961E+00  0.4537E+00
     -7.461  0.6400E+00  0.5174E+00
     -7.361  0.6249E+00  0.5795E+00
     -7.262  0.7183E+00  0.6510E+00
     -7.162  0.7465E+00  0.7253E+00
     -7.063  0.1215E+01  0.8462E+00
     -6.963  0.1297E+01  0.9753E+00
     -6.864  0.1327E+01  0.1107E+01
     -6.764  0.1352E+01  0.1242E+01
     -6.665  0.1050E+01  0.1346E+01
     -6.565  0.8553E+00  0.1432E+01
     -6.466  0.9529E+00  0.1526E+01
     -6.366  0.1057E+01  0.1632E+01
     -6.266  0.1004E+01  0.1731E+01
     -6.167  0.8060E+00  0.1812E+01
     -6.067  0.6228E+00  0.1874E+01
     -5.968  0.1221E+01  0.1995E+01
     -5.868  0.1632E+01  0.2158E+01
     -5.769  0.1557E+01  0.2313E+01
     -5.669  0.1739E+01  0.2486E+01
     -5.570  0.1563E+01  0.2641E+01
     -5.470  0.1379E+01  0.2778E+01
     -5.371  0.1386E+01  0.2916E+01
     -5.271  0.1456E+01  0.3061E+01
     -5.172  0.1650E+01  0.3225E+01
     -5.072  0.1540E+01  0.3379E+01
     -4.973  0.1465E+01  0.3525E+01
     -4.873  0.1379E+01  0.3662E+01
     -4.774  0.1376E+01  0.3799E+01
     -4.674  0.1436E+01  0.3942E+01
     -4.575  0.1299E+01  0.4071E+01
     -4.475  0.1276E+01  0.4198E+01
     -4.376  0.1675E+01  0.4365E+01
     -4.276  0.1547E+01  0.4519E+01
     -4.177  0.1771E+01  0.4695E+01
     -4.077  0.1599E+01  0.4854E+01
     -3.978  0.1211E+01  0.4974E+01
     -3.878  0.1186E+01  0.5092E+01
     -3.779  0.1440E+01  0.5236E+01
     -3.679  0.1178E+01  0.5353E+01
     -3.579  0.1355E+01  0.5488E+01
     -3.480  0.1936E+01  0.5680E+01
     -3.380  0.2230E+01  0.5902E+01
     -3.281  0.1972E+01  0.6099E+01
     -3.181  0.1255E+01  0.6224E+01
     -3.082  0.1142E+01  0.6337E+01
     -2.982  0.8738E+00  0.6424E+01
     -2.883  0.3967E+00  0.6464E+01
     -2.783  0.1927E+00  0.6483E+01
     -2.684  0.3614E+00  0.6519E+01
     -2.584  0.5974E+00  0.6578E+01
     -2.485  0.4696E+00  0.6625E+01
     -2.385  0.4124E+00  0.6666E+01
     -2.286  0.1859E+00  0.6685E+01
     -2.186  0.2481E+00  0.6709E+01
     -2.087  0.1988E+00  0.6729E+01
     -1.987  0.3609E+00  0.6765E+01
     -1.888  0.1594E+00  0.6781E+01
     -1.788  0.1450E+00  0.6795E+01
     -1.689  0.4255E+00  0.6838E+01
     -1.589  0.3058E+00  0.6868E+01
     -1.490  0.4368E-02  0.6868E+01
     -1.390  0.5501E-01  0.6874E+01
     -1.291  0.2475E+00  0.6899E+01
     -1.191  0.3881E+00  0.6937E+01
     -1.092  0.2918E+00  0.6966E+01
     -0.992  0.2794E+00  0.6994E+01
     -0.893  0.2078E+00  0.7015E+01
     -0.793  0.1163E+00  0.7026E+01
     -0.693  0.4376E-01  0.7031E+01
     -0.594  0.3294E+00  0.7063E+01
     -0.494  0.3400E+00  0.7097E+01
     -0.395  0.1210E+00  0.7109E+01
     -0.295  0.1139E+00  0.7121E+01
     -0.196  0.2720E+00  0.7148E+01
     -0.096  0.2245E+00  0.7170E+01
      0.003  0.2367E+00  0.7194E+01
      0.103  0.2325E+00  0.7217E+01
      0.202  0.3215E+00  0.7249E+01
      0.302  0.1177E+00  0.7260E+01
      0.401  0.7691E-01  0.7268E+01
      0.501  0.2235E+00  0.7290E+01
      0.600  0.1819E+00  0.7308E+01
      0.700  0.1577E+00  0.7324E+01
      0.799  0.2411E+00  0.7348E+01
      0.899  0.1454E+00  0.7363E+01
      0.998  0.2284E+00  0.7385E+01
      1.098  0.2004E+00  0.7405E+01
      1.197  0.2473E+00  0.7430E+01
      1.297  0.1687E+00  0.7447E+01
      1.396  0.2930E+00  0.7476E+01
      1.496  0.2912E+00  0.7505E+01
      1.595  0.1605E+00  0.7521E+01
      1.695  0.2742E-01  0.7523E+01
      1.794  0.1816E+00  0.7542E+01
      1.894  0.2956E+00  0.7571E+01
      1.994  0.2106E+00  0.7592E+01
      2.093  0.4443E-01  0.7596E+01
      2.193  0.1364E+00  0.7610E+01
      2.292  0.2587E+00  0.7636E+01
      2.392  0.4061E+00  0.7676E+01
      2.491  0.3075E+00  0.7707E+01
      2.591  0.2644E+00  0.7733E+01
      2.690  0.2288E+00  0.7756E+01
      2.790  0.1198E+00  0.7768E+01
      2.889  0.1932E+00  0.7787E+01
      2.989  0.2921E+00  0.7816E+01
      3.088  0.2099E+00  0.7837E+01
      3.188  0.2194E+00  0.7859E+01
      3.287  0.1619E+00  0.7875E+01
      3.387  0.1240E+00  0.7887E+01
      3.486  0.1295E+00  0.7900E+01
      3.586  0.3874E+00  0.7939E+01
      3.685  0.2213E+00  0.7961E+01
      3.785  0.3105E+00  0.7992E+01
      3.884  0.4350E+00  0.8035E+01
      3.984  0.4215E+00  0.8077E+01
      4.083  0.2641E+00  0.8103E+01
      4.183  0.1953E+00  0.8122E+01
      4.282  0.3224E+00  0.8155E+01
      4.382  0.3102E+00  0.8185E+01
      4.481  0.4715E+00  0.8232E+01
      4.581  0.4553E+00  0.8278E+01
      4.681  0.5428E+00  0.8332E+01
      4.780  0.4658E+00  0.8378E+01
      4.880  0.3396E+00  0.8412E+01
      4.979  0.2568E+00  0.8437E+01
      5.079  0.3896E+00  0.8476E+01
      5.178  0.5474E+00  0.8531E+01
      5.278  0.4164E+00  0.8572E+01
      5.377  0.4357E+00  0.8615E+01
      5.477  0.3710E+00  0.8652E+01
      5.576  0.3268E+00  0.8685E+01
      5.676  0.5213E+00  0.8737E+01
      5.775  0.6332E+00  0.8800E+01
      5.875  0.4397E+00  0.8844E+01
      5.974  0.4752E+00  0.8891E+01
      6.074  0.5444E+00  0.8945E+01
      6.173  0.6650E+00  0.9011E+01
      6.273  0.5131E+00  0.9062E+01
      6.372  0.3588E+00  0.9098E+01
      6.472  0.5002E+00  0.9148E+01
      6.571  0.4731E+00  0.9195E+01
      6.671  0.5632E+00  0.9251E+01
      6.770  0.5982E+00  0.9310E+01
      6.870  0.6790E+00  0.9378E+01
      6.969  0.6558E+00  0.9443E+01
      7.069  0.3858E+00  0.9482E+01
      7.168  0.1522E+00  0.9497E+01
      7.268  0.4896E+00  0.9546E+01
      7.367  0.3284E+00  0.9578E+01
      7.467  0.7716E-01  0.9586E+01
      7.567  0.8262E-01  0.9594E+01
      7.666  0.6008E-01  0.9600E+01
      7.766  0.2460E-03  0.9600E+01
      7.865 -0.1231E-02  0.9600E+01
      7.965 -0.2433E-04  0.9600E+01
      8.064 -0.5383E-07  0.9600E+01
      8.164 -0.1558E-10  0.9600E+01
      8.263 -0.6253E-15  0.9600E+01
      8.363  0.0000E+00  0.9600E+01
      8.462  0.0000E+00  0.9600E+01
      8.562  0.0000E+00  0.9600E+01
      8.661  0.0000E+00  0.9600E+01
      8.761  0.0000E+00  0.9600E+01
      8.860  0.0000E+00  0.9600E+01
      8.960  0.0000E+00  0.9600E+01
