       N       E                     dE             d eps       ncg     rms          rms(c)
DAV:   1     0.814648715402E+03    0.81465E+03   -0.50836E+04  2304   0.965E+02
DAV:   2    -0.254061020431E+01   -0.81719E+03   -0.76416E+03  2976   0.221E+02
DAV:   3    -0.452475735274E+02   -0.42707E+02   -0.41618E+02  2832   0.514E+01
DAV:   4    -0.459094272150E+02   -0.66185E+00   -0.66161E+00  2472   0.704E+00
DAV:   5    -0.459230971859E+02   -0.13670E-01   -0.13669E-01  3168   0.101E+00    0.283E+01
DAV:   6    -0.425323156837E+02    0.33908E+01   -0.22736E+01  3240   0.199E+01    0.216E+01
DAV:   7    -0.430390945856E+02   -0.50678E+00   -0.44935E+01  3456   0.225E+01    0.186E+01
DAV:   8    -0.411001773304E+02    0.19389E+01   -0.17053E+01  2904   0.203E+01    0.614E+00
DAV:   9    -0.406880156359E+02    0.41216E+00   -0.42891E+00  2688   0.125E+01    0.239E+00
DAV:  10    -0.406584253499E+02    0.29590E-01   -0.59677E-01  2688   0.374E+00    0.141E+00
DAV:  11    -0.406421121500E+02    0.16313E-01   -0.59665E-02  2904   0.112E+00    0.464E-01
DAV:  12    -0.406420570434E+02    0.55107E-04   -0.20229E-02  2760   0.503E-01    0.201E-01
DAV:  13    -0.406427143456E+02   -0.65730E-03   -0.12220E-03  3024   0.137E-01    0.947E-02
DAV:  14    -0.406432179873E+02   -0.50364E-03   -0.31288E-04  2376   0.872E-02    0.342E-02
DAV:  15    -0.406436477816E+02   -0.42979E-03   -0.78476E-05  2184   0.279E-02    0.153E-02
DAV:  16    -0.406439597890E+02   -0.31201E-03   -0.33181E-05  2112   0.146E-02    0.884E-03
DAV:  17    -0.406442932389E+02   -0.33345E-03   -0.44968E-05  2088   0.136E-02    0.604E-03
DAV:  18    -0.406445821538E+02   -0.28891E-03   -0.55873E-05  2040   0.132E-02    0.377E-03
DAV:  19    -0.406446494542E+02   -0.67300E-04   -0.53842E-06  1776   0.557E-03
   1 F= -.40644649E+02 E0= -.40641740E+02  d E =-.406446E+02
       N       E                     dE             d eps       ncg     rms          rms(c)
DAV:   1    -0.406843861749E+02   -0.39804E-01   -0.15885E+02  2304   0.330E+01    0.234E+00
DAV:   2    -0.408954148794E+02   -0.21103E+00   -0.24640E+00  2688   0.557E+00    0.293E+00
DAV:   3    -0.408604588327E+02    0.34956E-01   -0.25146E-01  2520   0.197E+00    0.135E+00
DAV:   4    -0.408631824398E+02   -0.27236E-02   -0.12094E-01  2568   0.114E+00    0.140E+00
DAV:   5    -0.408511026396E+02    0.12080E-01   -0.84872E-02  2664   0.117E+00    0.197E-01
DAV:   6    -0.408513764059E+02   -0.27377E-03   -0.60999E-03  2904   0.241E-01    0.140E-01
DAV:   7    -0.408510630872E+02    0.31332E-03   -0.18348E-03  2592   0.138E-01    0.607E-02
DAV:   8    -0.408511261395E+02   -0.63052E-04   -0.13205E-04  2184   0.380E-02
   2 F= -.40851126E+02 E0= -.40848936E+02  d E =-.206477E+00
       N       E                     dE             d eps       ncg     rms          rms(c)
DAV:   1    -0.408532716869E+02   -0.22086E-02   -0.33312E+00  2304   0.476E+00    0.278E-01
DAV:   2    -0.408580317815E+02   -0.47601E-02   -0.54249E-02  2688   0.833E-01    0.402E-01
DAV:   3    -0.408569713734E+02    0.10604E-02   -0.62381E-03  2520   0.320E-01    0.151E-01
DAV:   4    -0.408569237720E+02    0.47601E-04   -0.15822E-03  2496   0.120E-01    0.137E-01
DAV:   5    -0.408568484081E+02    0.75364E-04   -0.87970E-04  2568   0.133E-01
   3 F= -.40856848E+02 E0= -.40854584E+02  d E =-.212199E+00
       N       E                     dE             d eps       ncg     rms          rms(c)
DAV:   1    -0.408759667159E+02   -0.19043E-01   -0.11288E+01  2304   0.923E+00    0.502E-01
DAV:   2    -0.408902099999E+02   -0.14243E-01   -0.14795E-01  2712   0.129E+00    0.264E-01
DAV:   3    -0.408896128954E+02    0.59710E-03   -0.37460E-03  2952   0.207E-01    0.165E-01
DAV:   4    -0.408896220232E+02   -0.91277E-05   -0.25592E-03  2592   0.184E-01    0.119E-01
DAV:   5    -0.408894481710E+02    0.17385E-03   -0.22461E-03  2208   0.183E-01    0.644E-02
DAV:   6    -0.408894241376E+02    0.24033E-04   -0.27288E-04  1680   0.706E-02
   4 F= -.40889424E+02 E0= -.40887425E+02  d E =-.325757E-01
       N       E                     dE             d eps       ncg     rms          rms(c)
DAV:   1    -0.408190135413E+02    0.70435E-01   -0.10204E+02  2304   0.278E+01    0.158E+00
DAV:   2    -0.409481707628E+02   -0.12916E+00   -0.13509E+00  2784   0.390E+00    0.821E-01
DAV:   3    -0.409426159928E+02    0.55548E-02   -0.34246E-02  2880   0.632E-01    0.439E-01
DAV:   4    -0.409412425067E+02    0.13735E-02   -0.13608E-02  2568   0.400E-01    0.308E-01
DAV:   5    -0.409407929347E+02    0.44957E-03   -0.10798E-02  2616   0.427E-01    0.136E-01
DAV:   6    -0.409405389493E+02    0.25399E-03   -0.21194E-03  2496   0.199E-01    0.542E-02
DAV:   7    -0.409405257766E+02    0.13173E-04   -0.18512E-04  2304   0.477E-02
   5 F= -.40940526E+02 E0= -.40938923E+02  d E =-.836774E-01
       N       E                     dE             d eps       ncg     rms          rms(c)
DAV:   1    -0.409367326506E+02    0.38063E-02   -0.47154E+00  2304   0.598E+00    0.349E-01
DAV:   2    -0.409426866275E+02   -0.59540E-02   -0.63017E-02  2808   0.844E-01    0.171E-01
DAV:   3    -0.409424709489E+02    0.21568E-03   -0.27834E-03  3000   0.183E-01    0.156E-01
DAV:   4    -0.409423548485E+02    0.11610E-03   -0.16027E-03  2400   0.169E-01    0.643E-02
DAV:   5    -0.409423141248E+02    0.40724E-04   -0.73385E-04  2448   0.108E-01
   6 F= -.40942314E+02 E0= -.40940695E+02  d E =-.854657E-01
       N       E                     dE             d eps       ncg     rms          rms(c)
DAV:   1    -0.409310199894E+02    0.11335E-01   -0.14666E+01  2304   0.997E+00    0.564E-01
DAV:   2    -0.409501719706E+02   -0.19152E-01   -0.21552E-01  2664   0.165E+00    0.641E-01
DAV:   3    -0.409477861075E+02    0.23859E-02   -0.18489E-02  2520   0.581E-01    0.247E-01
DAV:   4    -0.409472538143E+02    0.53229E-03   -0.68729E-03  2496   0.300E-01    0.252E-01
DAV:   5    -0.409469539476E+02    0.29987E-03   -0.30242E-03  2592   0.257E-01    0.550E-02
DAV:   6    -0.409469463555E+02    0.75922E-05   -0.25246E-04  2568   0.681E-02
   7 F= -.40946946E+02 E0= -.40945374E+02  d E =-.463223E-02
       N       E                     dE             d eps       ncg     rms          rms(c)
DAV:   1    -0.409474672481E+02   -0.51330E-03   -0.21734E+00  2304   0.384E+00    0.208E-01
DAV:   2    -0.409501989221E+02   -0.27317E-02   -0.31459E-02  2616   0.640E-01    0.251E-01
DAV:   3    -0.409498549987E+02    0.34392E-03   -0.26188E-03  2496   0.219E-01    0.105E-01
DAV:   4    -0.409497592395E+02    0.95759E-04   -0.89615E-04  2496   0.986E-02
   8 F= -.40949759E+02 E0= -.40948172E+02  d E =-.744511E-02
       N       E                     dE             d eps       ncg     rms          rms(c)
DAV:   1    -0.409500815205E+02   -0.22652E-03   -0.44974E+00  2304   0.586E+00    0.309E-01
DAV:   2    -0.409554166774E+02   -0.53352E-02   -0.57442E-02  2736   0.826E-01    0.179E-01
DAV:   3    -0.409552128571E+02    0.20382E-03   -0.23842E-03  3000   0.174E-01    0.150E-01
DAV:   4    -0.409551602613E+02    0.52596E-04   -0.15714E-03  2376   0.165E-01    0.623E-02
DAV:   5    -0.409550969378E+02    0.63324E-04   -0.83050E-04  2256   0.127E-01
   9 F= -.40955097E+02 E0= -.40953547E+02  d E =-.533770E-02
       N       E                     dE             d eps       ncg     rms          rms(c)
DAV:   1    -0.409505694188E+02    0.45908E-02   -0.54674E+00  2304   0.647E+00    0.340E-01
DAV:   2    -0.409570609011E+02   -0.64915E-02   -0.70260E-02  2760   0.908E-01    0.192E-01
DAV:   3    -0.409568485657E+02    0.21234E-03   -0.27250E-03  3144   0.185E-01    0.156E-01
DAV:   4    -0.409568239397E+02    0.24626E-04   -0.19211E-03  2400   0.182E-01    0.728E-02
DAV:   5    -0.409567340809E+02    0.89859E-04   -0.10628E-03  2256   0.143E-01    0.430E-02
DAV:   6    -0.409567420744E+02   -0.79935E-05   -0.14724E-04  1656   0.572E-02
  10 F= -.40956742E+02 E0= -.40955260E+02  d E =-.698283E-02
       N       E                     dE             d eps       ncg     rms          rms(c)
DAV:   1    -0.409550534981E+02    0.16806E-02   -0.34955E+00  2304   0.507E+00    0.245E-01
DAV:   2    -0.409591274501E+02   -0.40740E-02   -0.43988E-02  2712   0.724E-01    0.159E-01
DAV:   3    -0.409589521423E+02    0.17531E-03   -0.34268E-03  2568   0.224E-01    0.144E-01
DAV:   4    -0.409588250725E+02    0.12707E-03   -0.86077E-04  2232   0.129E-01    0.683E-02
DAV:   5    -0.409588146851E+02    0.10387E-04   -0.36435E-04  2664   0.590E-02
  11 F= -.40958815E+02 E0= -.40957381E+02  d E =-.207261E-02
       N       E                     dE             d eps       ncg     rms          rms(c)
DAV:   1    -0.409583425797E+02    0.48249E-03   -0.57923E-01  2304   0.207E+00    0.103E-01
DAV:   2    -0.409590117000E+02   -0.66912E-03   -0.72641E-03  2712   0.292E-01    0.626E-02
DAV:   3    -0.409589931919E+02    0.18508E-04   -0.47218E-04  1992   0.827E-02
  12 F= -.40958993E+02 E0= -.40957610E+02  d E =-.225112E-02
       N       E                     dE             d eps       ncg     rms          rms(c)
DAV:   1    -0.409591768808E+02   -0.16518E-03   -0.72111E-01  2304   0.217E+00    0.751E-02
DAV:   2    -0.409598673213E+02   -0.69044E-03   -0.72128E-03  2640   0.306E-01    0.598E-02
DAV:   3    -0.409598280131E+02    0.39308E-04   -0.29990E-04  1704   0.659E-02
  13 F= -.40959828E+02 E0= -.40958332E+02  d E =-.834821E-03
       N       E                     dE             d eps       ncg     rms          rms(c)
DAV:   1    -0.409599410279E+02   -0.73707E-04   -0.34278E-01  2304   0.150E+00    0.634E-02
DAV:   2    -0.409602421976E+02   -0.30117E-03   -0.31649E-03  2808   0.207E-01    0.443E-02
DAV:   3    -0.409602161044E+02    0.26093E-04   -0.79806E-05  1800   0.325E-02
  14 F= -.40960216E+02 E0= -.40958636E+02  d E =-.122291E-02
