 vasp.5.4.1 05Feb16 (build Feb 08 2018 09:21:51) complex                        
  
 executed on             LinuxIFC date 2019.11.21  23:36:35
 running on   24 total cores
 distrk:  each k-point on   24 cores,    1 groups
 distr:  one band on NCORES_PER_BAND=   1 cores,   24 groups


--------------------------------------------------------------------------------------------------------


 INCAR:
 POTCAR:    PAW_PBE Au 04Oct2007                  
 POTCAR:    PAW_PBE O 08Apr2002                   

 ----------------------------------------------------------------------------- 
|                                                                             |
|           W    W    AA    RRRRR   N    N  II  N    N   GGGG   !!!           |
|           W    W   A  A   R    R  NN   N  II  NN   N  G    G  !!!           |
|           W    W  A    A  R    R  N N  N  II  N N  N  G       !!!           |
|           W WW W  AAAAAA  RRRRR   N  N N  II  N  N N  G  GGG   !            |
|           WW  WW  A    A  R   R   N   NN  II  N   NN  G    G                |
|           W    W  A    A  R    R  N    N  II  N    N   GGGG   !!!           |
|                                                                             |
|      For optimal performance we recommend to set                            |
|        NCORE= 4 - approx SQRT( number of cores)                             |
|      NCORE specifies how many cores store one orbital (NPAR=cpu/NCORE).     |
|      This setting can  greatly improve the performance of VASP for DFT.     |
|      The default, NPAR=number of cores might be grossly inefficient         |
|      on modern multi-core architectures or massively parallel machines.     |
|      Do your own testing !!!!                                               |
|      Unfortunately you need to use the default for GW and RPA calculations. |
|      (for HF NCORE is supported but not extensively tested yet)             |
|                                                                             |
 ----------------------------------------------------------------------------- 

 POTCAR:    PAW_PBE Au 04Oct2007                  
   VRHFIN =Au: s1d10                                                            
   LEXCH  = PE                                                                  
   EATOM  =   926.0867 eV,   68.0654 Ry                                         
                                                                                
   TITEL  = PAW_PBE Au 04Oct2007                                                
   LULTRA =        F    use ultrasoft PP ?                                      
   IUNSCR =        1    unscreen: 0-lin 1-nonlin 2-no                           
   RPACOR =    2.330    partial core radius                                     
   POMASS =  196.966; ZVAL   =   11.000    mass and valenz                      
   RCORE  =    2.500    outmost cutoff radius                                   
   RWIGS  =    2.840; RWIGS  =    1.503    wigner-seitz radius (au A)           
   ENMAX  =  229.943; ENMIN  =  172.457 eV                                      
   ICORE  =        3    local potential                                         
   LCOR   =        T    correct aug charges                                     
   LPAW   =        T    paw PP                                                  
   EAUG   =  356.670                                                            
   DEXC   =    0.000                                                            
   RMAX   =    2.562    core radius for proj-oper                               
   RAUG   =    1.300    factor for augmentation sphere                          
   RDEP   =    2.598    radius for radial grids                                 
   RDEPT  =    2.193    core radius for aug-charge                              
                                                                                
   Atomic configuration                                                         
   16 entries                                                                   
     n  l   j            E        occ.                                          
     1  0  0.50    -80748.5001   2.0000                                         
     2  0  0.50    -14244.7466   2.0000                                         
     2  1  1.50    -12310.9591   6.0000                                         
     3  0  0.50     -3362.1768   2.0000                                         
     3  1  1.50     -2801.5463   6.0000                                         
     3  2  2.50     -2203.8206  10.0000                                         
     4  0  0.50      -729.8168   2.0000                                         
     4  1  1.50      -546.0527   6.0000                                         
     4  2  2.50      -325.7302  10.0000                                         
     4  3  3.50       -81.1472  14.0000                                         
     5  0  0.50      -108.3201   2.0000                                         
     5  1  1.50       -59.7479   6.0000                                         
     5  2  2.50        -6.8783  10.0000                                         
     6  0  0.50        -5.7602   1.0000                                         
     6  1  1.50        -6.8029   0.0000                                         
     5  3  2.50        -1.3606   0.0000                                         
   Description                                                                  
     l       E           TYP  RCUT    TYP  RCUT                                 
     2     -6.8782861     23  2.500                                             
     2     -8.2388687     23  2.500                                             
     0     -5.7601759     23  2.500                                             
     0     -0.8493231     23  2.500                                             
     1     -2.7211652     23  2.500                                             
     1     27.2116520     23  2.500                                             
     3     -1.3605826     23  2.500                                             
  local pseudopotential read in
  partial core-charges read in
  partial kinetic energy density read in
  atomic valenz-charges read in
  non local Contribution for L=           2  read in
    real space projection operators read in
  non local Contribution for L=           2  read in
    real space projection operators read in
  non local Contribution for L=           0  read in
    real space projection operators read in
  non local Contribution for L=           0  read in
    real space projection operators read in
  non local Contribution for L=           1  read in
    real space projection operators read in
  non local Contribution for L=           1  read in
    real space projection operators read in
    PAW grid and wavefunctions read in
 
   number of l-projection  operators is LMAX  =           6
   number of lm-projection operators is LMMAX =          18
 
 POTCAR:    PAW_PBE O 08Apr2002                   
   VRHFIN =O: s2p4                                                              
   LEXCH  = PE                                                                  
   EATOM  =   432.3788 eV,   31.7789 Ry                                         
                                                                                
   TITEL  = PAW_PBE O 08Apr2002                                                 
   LULTRA =        F    use ultrasoft PP ?                                      
   IUNSCR =        1    unscreen: 0-lin 1-nonlin 2-no                           
   RPACOR =    1.200    partial core radius                                     
   POMASS =   16.000; ZVAL   =    6.000    mass and valenz                      
   RCORE  =    1.520    outmost cutoff radius                                   
   RWIGS  =    1.550; RWIGS  =    0.820    wigner-seitz radius (au A)           
   ENMAX  =  400.000; ENMIN  =  300.000 eV                                      
   ICORE  =        2    local potential                                         
   LCOR   =        T    correct aug charges                                     
   LPAW   =        T    paw PP                                                  
   EAUG   =  605.392                                                            
   DEXC   =    0.000                                                            
   RMAX   =    1.553    core radius for proj-oper                               
   RAUG   =    1.300    factor for augmentation sphere                          
   RDEP   =    1.550    radius for radial grids                                 
   RDEPT  =    1.329    core radius for aug-charge                              
                                                                                
   Atomic configuration                                                         
    4 entries                                                                   
     n  l   j            E        occ.                                          
     1  0  0.50      -514.6923   2.0000                                         
     2  0  0.50       -23.9615   2.0000                                         
     2  1  0.50        -9.0305   4.0000                                         
     3  2  1.50        -9.5241   0.0000                                         
   Description                                                                  
     l       E           TYP  RCUT    TYP  RCUT                                 
     0    -23.9615318     23  1.200                                             
     0     -9.5240782     23  1.200                                             
     1     -9.0304911     23  1.520                                             
     1      8.1634956     23  1.520                                             
     2     -9.5240782      7  1.500                                             
  local pseudopotential read in
  partial core-charges read in
  partial kinetic energy density read in
  kinetic energy density of atom read in
  atomic valenz-charges read in
  non local Contribution for L=           0  read in
    real space projection operators read in
  non local Contribution for L=           0  read in
    real space projection operators read in
  non local Contribution for L=           1  read in
    real space projection operators read in
  non local Contribution for L=           1  read in
    real space projection operators read in
    PAW grid and wavefunctions read in
 
   number of l-projection  operators is LMAX  =           4
   number of lm-projection operators is LMMAX =           8
 
  PAW_PBE Au 04Oct2007                  :
 energy of atom  1       EATOM= -926.0867
 kinetic energy error for atom=    0.0062 (will be added to EATOM!!)
  PAW_PBE O 08Apr2002                   :
 energy of atom  2       EATOM= -432.3788
 kinetic energy error for atom=    0.1156 (will be added to EATOM!!)
 
 
 POSCAR: Au  O                                   
  positions in cartesian coordinates
  No initial velocities read in
 exchange correlation table for  LEXCH =        8
   RHO(1)=    0.500       N(1)  =     2000
   RHO(2)=  100.500       N(2)  =     4000
 


--------------------------------------------------------------------------------------------------------


 ion  position               nearest neighbor table
   1  0.167  0.167  0.403-   8 2.94   5 2.94   3 2.94   3 2.94   4 2.94   4 2.94   2 2.94   2 2.94
                             6 2.94
   2  0.667  0.167  0.403-   7 2.94   6 2.94   4 2.94   3 2.94   4 2.94   3 2.94   1 2.94   1 2.94
                             5 2.94
   3  0.167  0.667  0.403-   6 2.94   7 2.94   1 2.94   1 2.94   2 2.94   2 2.94   4 2.94   4 2.94
                             8 2.94
   4  0.667  0.667  0.403-   5 2.94   8 2.94   2 2.94   1 2.94   2 2.94   1 2.94   3 2.94   3 2.94
                             7 2.94
   5  0.833  0.333  0.500-   4 2.94   1 2.94  11 2.94   9 2.94  12 2.94   7 2.94   7 2.94   8 2.94
                             8 2.94   6 2.94   6 2.94   2 2.94
   6  0.333  0.333  0.500-   3 2.94   2 2.94  12 2.94  11 2.94  10 2.94   8 2.94   7 2.94   8 2.94
                             7 2.94   5 2.94   5 2.94   1 2.94
   7  0.833  0.833  0.500-   2 2.94   3 2.94   9 2.94  10 2.94  11 2.94   5 2.94   5 2.94   6 2.94
                             6 2.94   8 2.94   8 2.94   4 2.94
   8  0.333  0.833  0.500-   1 2.94   4 2.94  10 2.94   9 2.94  12 2.94   6 2.94   5 2.94   6 2.94
                             5 2.94   7 2.94   7 2.94   3 2.94
   9  0.000  0.000  0.597-  13 2.08   7 2.94   8 2.94   5 2.94  11 2.94  11 2.94  12 2.94  12 2.94
                            10 2.94  10 2.94
  10  0.500  0.000  0.597-  13 2.08   8 2.94   6 2.94   7 2.94  12 2.94  11 2.94  12 2.94  11 2.94
                             9 2.94   9 2.94
  11  0.000  0.500  0.597-  13 2.08   5 2.94   7 2.94   6 2.94   9 2.94   9 2.94  10 2.94  10 2.94
                            12 2.94  12 2.94
  12  0.500  0.500  0.597-   6 2.94   5 2.94   8 2.94  10 2.94   9 2.94  10 2.94   9 2.94  11 2.94
                            11 2.94
  13  0.167  0.167  0.645-   9 2.08  11 2.08  10 2.08
 
  LATTYP: Found a hexagonal cell.
 ALAT       =     5.8802999923
 C/A-ratio  =     4.2176835996
  
  Lattice vectors:
  
 A1 = (   2.9401499962,  -5.0924891752,   0.0000000000)
 A2 = (  -5.8802999923,   0.0000000000,   0.0000000000)
 A3 = (   0.0000000000,   0.0000000000, -24.8012448386)


Analysis of symmetry for initial positions (statically):
=====================================================================
 Subroutine PRICEL returns:
 Original cell was already a primitive cell.
 

 Routine SETGRP: Setting up the symmetry group for a 
 hexagonal supercell.


 Subroutine GETGRP returns: Found  6 space group operations
 (whereof  2 operations were pure point group operations)
 out of a pool of 24 trial point group operations.


The static configuration has the point symmetry C_1h.
 The point group associated with its full space group is C_3v.


Analysis of symmetry for dynamics (positions and initial velocities):
=====================================================================
 Subroutine PRICEL returns:
 Original cell was already a primitive cell.
 

 Routine SETGRP: Setting up the symmetry group for a 
 hexagonal supercell.


 Subroutine GETGRP returns: Found  6 space group operations
 (whereof  2 operations were pure point group operations)
 out of a pool of 24 trial point group operations.


The dynamic configuration has the point symmetry C_1h.
 The point group associated with its full space group is C_3v.


 Subroutine INISYM returns: Found  6 space group operations
 (whereof  2 operations are pure point group operations),
 and found     1 'primitive' translations

 
 
 KPOINTS: KPOINTS created by Atomic Simulation Env

Automatic generation of k-mesh.
Space group operators:
 irot       det(A)        alpha          n_x          n_y          n_z        tau_x        tau_y        tau_z
    1     1.000000     0.000000     1.000000     0.000000     0.000000     0.000000     0.000000     0.000000
    2    -1.000000   180.000000     0.500000    -0.866025     0.000000     0.000000     0.000000     0.000000
    3     1.000000   120.000000     0.000000     0.000000     1.000000     0.000000    -0.500000     0.000000
    4     1.000000   120.000000     0.000000     0.000000    -1.000000    -0.500000    -0.000000     0.000000
    5    -1.000000   180.000000     1.000000     0.000000     0.000000    -0.500000     0.000000     0.000000
    6    -1.000000   180.000000    -0.500000    -0.866025     0.000000     0.000000    -0.500000     0.000000
 
 Subroutine IBZKPT returns following result:
 ===========================================
 
 Found     12 irreducible k-points:
 
 Following reciprocal coordinates:
            Coordinates               Weight
  0.000000  0.000000  0.000000      1.000000
  0.111111  0.000000  0.000000      6.000000
  0.222222 -0.000000  0.000000      6.000000
  0.333333  0.000000  0.000000      6.000000
  0.444444 -0.000000  0.000000      6.000000
  0.222222  0.111111  0.000000      6.000000
  0.333333  0.111111  0.000000     12.000000
  0.444444  0.111111  0.000000     12.000000
 -0.444444  0.111111  0.000000      6.000000
  0.444444  0.222222  0.000000      6.000000
 -0.444444  0.222222  0.000000     12.000000
 -0.333333  0.333333  0.000000      2.000000
 
 Following cartesian coordinates:
            Coordinates               Weight
  0.000000  0.000000  0.000000      1.000000
  0.018895 -0.010909  0.000000      6.000000
  0.037791 -0.021819  0.000000      6.000000
  0.056686 -0.032728  0.000000      6.000000
  0.075582 -0.043637  0.000000      6.000000
  0.037791 -0.000000  0.000000      6.000000
  0.056686 -0.010909  0.000000     12.000000
  0.075582 -0.021819  0.000000     12.000000
 -0.075582  0.065456  0.000000      6.000000
  0.075582  0.000000  0.000000      6.000000
 -0.075582  0.087274  0.000000     12.000000
 -0.056686  0.098184  0.000000      2.000000
 


--------------------------------------------------------------------------------------------------------




 Dimension of arrays:
   k-points           NKPTS =     12   k-points in BZ     NKDIM =     12   number of bands    NBANDS=     96
   number of dos      NEDOS =    301   number of ions     NIONS =     13
   non local maximal  LDIM  =      6   non local SUM 2l+1 LMDIM =     18
   total plane-waves  NPLWV = 113400
   max r-space proj   IRMAX =      1   max aug-charges    IRDMAX=   9536
   dimension x,y,z NGX =    30 NGY =   30 NGZ =  126
   dimension x,y,z NGXF=    60 NGYF=   60 NGZF=  252
   support grid    NGXF=    60 NGYF=   60 NGZF=  252
   ions per type =              12   1
 NGX,Y,Z   is equivalent  to a cutoff of   8.48,  8.48,  8.45 a.u.
 NGXF,Y,Z  is equivalent  to a cutoff of  16.96, 16.96, 16.89 a.u.


 I would recommend the setting:
   dimension x,y,z NGX =    29 NGY =   29 NGZ =  121
 SYSTEM =  unknown system                          
 POSCAR =  Au  O                                   

 Startparameter for this run:
   NWRITE =      2    write-flag & timer
   PREC   = normal    normal or accurate (medium, high low for compatibility)
   ISTART =      0    job   : 0-new  1-cont  2-samecut
   ICHARG =      2    charge: 1-file 2-atom 10-const
   ISPIN  =      1    spin polarized calculation?
   LNONCOLLINEAR =      F non collinear calculations
   LSORBIT =      F    spin-orbit coupling
   INIWAV =      1    electr: 0-lowe 1-rand  2-diag
   LASPH  =      F    aspherical Exc in radial PAW
   METAGGA=      F    non-selfconsistent MetaGGA calc.

 Electronic Relaxation 1
   ENCUT  =  400.0 eV  29.40 Ry    5.42 a.u.   9.59  9.59 40.44*2*pi/ulx,y,z
   ENINI  =  400.0     initial cutoff
   ENAUG  =  605.4 eV  augmentation charge cutoff
   NELM   =     60;   NELMIN=  2; NELMDL= -5     # of ELM steps 
   EDIFF  = 0.1E-03   stopping-criterion for ELM
   LREAL  =      F    real-space projection
   NLSPLINE    = F    spline interpolate recip. space projectors
   LCOMPAT=      F    compatible to vasp.4.4
   GGA_COMPAT  = T    GGA compatible to vasp.4.4-vasp.4.6
   LMAXPAW     = -100 max onsite density
   LMAXMIX     =    2 max onsite mixed and CHGCAR
   VOSKOWN=      0    Vosko Wilk Nusair interpolation
   ROPT   =    0.00000   0.00000
 Ionic relaxation
   EDIFFG = 0.1E-02   stopping-criterion for IOM
   NSW    =     20    number of steps for IOM
   NBLOCK =      1;   KBLOCK =     20    inner block; outer block 
   IBRION =      2    ionic relax: 0-MD 1-quasi-New 2-CG
   NFREE  =      1    steps in history (QN), initial steepest desc. (CG)
   ISIF   =      2    stress and relaxation
   IWAVPR =     11    prediction:  0-non 1-charg 2-wave 3-comb
   ISYM   =      2    0-nonsym 1-usesym 2-fastsym
   LCORR  =      T    Harris-Foulkes like correction to forces

   POTIM  = 0.5000    time-step for ionic-motion
   TEIN   =    0.0    initial temperature
   TEBEG  =    0.0;   TEEND  =   0.0 temperature during run
   SMASS  =  -3.00    Nose mass-parameter (am)
   estimated Nose-frequenzy (Omega)   =  0.10E-29 period in steps =****** mass=  -0.790E-27a.u.
   SCALEE = 1.0000    scale energy and forces
   NPACO  =    256;   APACO  = 16.0  distance and # of slots for P.C.
   PSTRESS=    0.0 pullay stress

  Mass of Ions in am
   POMASS = 196.97 16.00
  Ionic Valenz
   ZVAL   =  11.00  6.00
  Atomic Wigner-Seitz radii
   RWIGS  =  -1.00 -1.00
  virtual crystal weights 
   VCA    =   1.00  1.00
   NELECT =     138.0000    total number of electrons
   NUPDOWN=      -1.0000    fix difference up-down

 DOS related values:
   EMIN   =  10.00;   EMAX   =-10.00  energy-range for DOS
   EFERMI =   0.00
   ISMEAR =     1;   SIGMA  =   0.10  broadening in eV -4-tet -1-fermi 0-gaus

 Electronic relaxation 2 (details)
   IALGO  =     38    algorithm
   LDIAG  =      T    sub-space diagonalisation (order eigenvalues)
   LSUBROT=      F    optimize rotation matrix (better conditioning)
   TURBO    =      0    0=normal 1=particle mesh
   IRESTART =      0    0=no restart 2=restart with 2 vectors
   NREBOOT  =      0    no. of reboots
   NMIN     =      0    reboot dimension
   EREF     =   0.00    reference energy to select bands
   IMIX   =      4    mixing-type and parameters
     AMIX     =   0.40;   BMIX     =  1.00
     AMIX_MAG =   1.60;   BMIX_MAG =  1.00
     AMIN     =   0.10
     WC   =   100.;   INIMIX=   1;  MIXPRE=   1;  MAXMIX= -45

 Intra band minimization:
   WEIMIN = 0.0010     energy-eigenvalue tresh-hold
   EBREAK =  0.26E-06  absolut break condition
   DEPER  =   0.30     relativ break condition  

   TIME   =   0.40     timestep for ELM

  volume/ion in A,a.u.               =      57.13       385.53
  Fermi-wavevector in a.u.,A,eV,Ry     =   0.934186  1.765356 11.873860  0.872704
  Thomas-Fermi vector in A             =   2.060965
 
 Write flags
   LWAVE  =      F    write WAVECAR
   LCHARG =      F    write CHGCAR
   LVTOT  =      F    write LOCPOT, total local potential
   LVHAR  =      F    write LOCPOT, Hartree potential only
   LELF   =      F    write electronic localiz. function (ELF)
   LORBIT =      0    0 simple, 1 ext, 2 COOP (PROOUT)


 Dipole corrections
   LMONO  =      F    monopole corrections only (constant potential shift)
   LDIPOL =      F    correct potential (dipole corrections)
   IDIPOL =      0    1-x, 2-y, 3-z, 4-all directions 
   EPSILON=  1.0000000 bulk dielectric constant

 Exchange correlation treatment:
   GGA     =    --    GGA type
   LEXCH   =     8    internal setting for exchange type
   VOSKOWN=      0    Vosko Wilk Nusair interpolation
   LHFCALC =     F    Hartree Fock is set to
   LHFONE  =     F    Hartree Fock one center treatment
   AEXX    =    0.0000 exact exchange contribution

 Linear response parameters
   LEPSILON=     F    determine dielectric tensor
   LRPA    =     F    only Hartree local field effects (RPA)
   LNABLA  =     F    use nabla operator in PAW spheres
   LVEL    =     F    velocity operator in full k-point grid
   LINTERFAST=   F  fast interpolation
   KINTER  =     0    interpolate to denser k-point grid
   CSHIFT  =0.1000    complex shift for real part using Kramers Kronig
   OMEGAMAX=  -1.0    maximum frequency
   DEG_THRESHOLD= 0.2000000E-02 threshold for treating states as degnerate
   RTIME   =    0.100 relaxation time in fs

 Orbital magnetization related:
   ORBITALMAG=     F  switch on orbital magnetization
   LCHIMAG   =     F  perturbation theory with respect to B field
   DQ        =  0.001000  dq finite difference perturbation B field



--------------------------------------------------------------------------------------------------------


 conjugate gradient relaxation of ions
 charge density and potential will be updated during run
 non-spin polarized calculation
 Variant of blocked Davidson
 Davidson routine will perform the subspace rotation
 perform sub-space diagonalisation
    after iterative eigenvector-optimisation
 modified Broyden-mixing scheme, WC =      100.0
 initial mixing is a Kerker type mixing with AMIX =  0.4000 and BMIX =      1.0000
 Hartree-type preconditioning will be used
 using additional bands           27
 reciprocal scheme for non local part
 use partial core corrections
 calculate Harris-corrections to forces 
   (improved forces if not selfconsistent)
 use gradient corrections 
 use of overlap-Matrix (Vanderbilt PP)
 Methfessel and Paxton  Order N= 1 SIGMA  =   0.10


--------------------------------------------------------------------------------------------------------


  energy-cutoff  :      400.00
  volume of cell :      742.68
      direct lattice vectors                 reciprocal lattice vectors
     5.880299992  0.000000000  0.000000000     0.170059351 -0.098183812  0.000000000
     2.940149996  5.092489175  0.000000000     0.000000000  0.196367624  0.000000000
     0.000000000  0.000000000 24.801244839     0.000000000  0.000000000  0.040320557

  length of vectors
     5.880299992  5.880299992 24.801244839     0.196367624  0.196367624  0.040320557


 
 k-points in units of 2pi/SCALE and weight: KPOINTS created by Atomic Simulation Env
   0.00000000  0.00000000  0.00000000       0.012
   0.01889548 -0.01090931  0.00000000       0.074
   0.03779097 -0.02181862  0.00000000       0.074
   0.05668645 -0.03272794  0.00000000       0.074
   0.07558193 -0.04363725  0.00000000       0.074
   0.03779097 -0.00000000  0.00000000       0.074
   0.05668645 -0.01090931  0.00000000       0.148
   0.07558193 -0.02181862  0.00000000       0.148
  -0.07558193  0.06545587  0.00000000       0.074
   0.07558193  0.00000000  0.00000000       0.074
  -0.07558193  0.08727450  0.00000000       0.148
  -0.05668645  0.09818381  0.00000000       0.025
 
 k-points in reciprocal lattice and weights: KPOINTS created by Atomic Simulation Env
   0.00000000  0.00000000  0.00000000       0.012
   0.11111111  0.00000000  0.00000000       0.074
   0.22222222 -0.00000000  0.00000000       0.074
   0.33333333  0.00000000  0.00000000       0.074
   0.44444444 -0.00000000  0.00000000       0.074
   0.22222222  0.11111111  0.00000000       0.074
   0.33333333  0.11111111  0.00000000       0.148
   0.44444444  0.11111111  0.00000000       0.148
  -0.44444444  0.11111111  0.00000000       0.074
   0.44444444  0.22222222  0.00000000       0.074
  -0.44444444  0.22222222  0.00000000       0.148
  -0.33333333  0.33333333  0.00000000       0.025
 
 position of ions in fractional coordinates (direct lattice) 
   0.16666667  0.16666667  0.40320557
   0.66666667  0.16666667  0.40320557
   0.16666667  0.66666667  0.40320557
   0.66666667  0.66666667  0.40320557
   0.83333333  0.33333333  0.50000000
   0.33333333  0.33333333  0.50000000
   0.83333333  0.83333333  0.50000000
   0.33333333  0.83333333  0.50000000
   0.00000000  0.00000000  0.59679443
   0.50000000  0.00000000  0.59679443
   0.00000000  0.50000000  0.59679443
   0.50000000  0.50000000  0.59679443
   0.16666667  0.16666667  0.64517910
 
 position of ions in cartesian coordinates  (Angst):
   1.47007500  0.84874820 10.00000000
   4.41022499  0.84874820 10.00000000
   2.94015000  3.39499278 10.00000000
   5.88029999  3.39499278 10.00000000
   5.88029999  1.69749639 12.40062242
   2.94015000  1.69749639 12.40062242
   7.35037499  4.24374098 12.40062242
   4.41022499  4.24374098 12.40062242
   0.00000000  0.00000000 14.80124484
   2.94015000  0.00000000 14.80124484
   1.47007500  2.54624459 14.80124484
   4.41022499  2.54624459 14.80124484
   1.47007500  0.84874820 16.00124484
 


--------------------------------------------------------------------------------------------------------


 k-point  1 :   0.0000 0.0000 0.0000  plane waves:   13545
 k-point  2 :   0.1111 0.0000 0.0000  plane waves:   13569
 k-point  3 :   0.2222-0.0000 0.0000  plane waves:   13513
 k-point  4 :   0.3333 0.0000 0.0000  plane waves:   13500
 k-point  5 :   0.4444-0.0000 0.0000  plane waves:   13456
 k-point  6 :   0.2222 0.1111 0.0000  plane waves:   13505
 k-point  7 :   0.3333 0.1111 0.0000  plane waves:   13506
 k-point  8 :   0.4444 0.1111 0.0000  plane waves:   13477
 k-point  9 :  -0.4444 0.1111 0.0000  plane waves:   13452
 k-point 10 :   0.4444 0.2222 0.0000  plane waves:   13492
 k-point 11 :  -0.4444 0.2222 0.0000  plane waves:   13483
 k-point 12 :  -0.3333 0.3333 0.0000  plane waves:   13470

 maximum and minimum number of plane-waves per node :     13569    13452

 maximum number of plane-waves:     13569
 maximum index in each direction: 
   IXMAX=   10   IYMAX=    9   IZMAX=   40
   IXMIN=  -10   IYMIN=   -9   IZMIN=  -40

 WARNING: aliasing errors must be expected set NGX to  42 to avoid them
 WARNING: aliasing errors must be expected set NGY to  38 to avoid them
 WARNING: aliasing errors must be expected set NGZ to 162 to avoid them
 aliasing errors are usually negligible using standard VASP settings
 and one can safely disregard these warnings

 serial   3D FFT for wavefunctions
 parallel 3D FFT for charge:
    minimum data exchange during FFTs selected (reduces bandwidth)


 total amount of memory used by VASP on root node    99643. kBytes
========================================================================

   base      :      30000. kBytes
   nonl-proj :      49771. kBytes
   fftplans  :       1950. kBytes
   grid      :       7104. kBytes
   one-center:        202. kBytes
   wavefun   :      10616. kBytes
 
     INWAV:  cpu time    0.0001: real time    0.0001
 Broyden mixing: mesh for mixing (old mesh)
   NGX = 19   NGY = 19   NGZ = 81
  (NGX  = 60   NGY  = 60   NGZ  =252)
  gives a total of  29241 points

 initial charge density was supplied:
 charge density of overlapping atoms calculated
 number of electron     138.0000000 magnetization 
 keeping initial charge density in first step


--------------------------------------------------------------------------------------------------------


 Maximum index for augmentation-charges          714 (set IRDMAX)


--------------------------------------------------------------------------------------------------------


 First call to EWALD:  gamma=   0.196
 Maximum number of real-space cells 5x 5x 1
 Maximum number of reciprocal cells 2x 2x 7

 FEWALD executed in parallel
    FEWALD:  cpu time    0.0017: real time    0.0017


----------------------------------------- Iteration    1(   1)  ---------------------------------------


    POTLOK:  cpu time    0.1618: real time    0.1620
    SETDIJ:  cpu time    0.0040: real time    0.0040
     EDDAV:  cpu time    3.7254: real time    3.7260
       DOS:  cpu time    0.0015: real time    0.0015
    --------------------------------------------
      LOOP:  cpu time    3.8950: real time    3.8968

 eigenvalue-minimisations  :  2304
 total energy-change (2. order) : 0.8146487E+03  (-0.5083598E+04)
 number of electron     138.0000000 magnetization 
 augmentation part      138.0000000 magnetization 

 Free energy of the ion-electron system (eV)
  ---------------------------------------------------
  alpha Z        PSCENC =       240.41329906
  Ewald energy   TEWEN  =     48662.31706664
  -Hartree energ DENC   =    -60389.23213054
  -exchange      EXHF   =         0.00000000
  -V(xc)+E(xc)   XCENC  =       210.26784851
  PAW double counting   =     10835.71951712   -10560.46976544
  entropy T*S    EENTRO =         0.00075639
  eigenvalues    EBANDS =       270.40270241
  atomic energy  EATOM  =     11545.22942124
  Solvation  Ediel_sol  =         0.00000000
  ---------------------------------------------------
  free energy    TOTEN  =       814.64871540 eV

  energy without entropy =      814.64795901  energy(sigma->0) =      814.64846327


--------------------------------------------------------------------------------------------------------




----------------------------------------- Iteration    1(   2)  ---------------------------------------


     EDDAV:  cpu time    4.3523: real time    4.3717
       DOS:  cpu time    0.0006: real time    0.0006
    --------------------------------------------
      LOOP:  cpu time    4.3543: real time    4.3751

 eigenvalue-minimisations  :  2976
 total energy-change (2. order) :-0.8171893E+03  (-0.7641636E+03)
 number of electron     138.0000000 magnetization 
 augmentation part      138.0000000 magnetization 

 Free energy of the ion-electron system (eV)
  ---------------------------------------------------
  alpha Z        PSCENC =       240.41329906
  Ewald energy   TEWEN  =     48662.31706664
  -Hartree energ DENC   =    -60389.23213054
  -exchange      EXHF   =         0.00000000
  -V(xc)+E(xc)   XCENC  =       210.26784851
  PAW double counting   =     10835.71951712   -10560.46976544
  entropy T*S    EENTRO =        -0.00014881
  eigenvalues    EBANDS =      -546.78571799
  atomic energy  EATOM  =     11545.22942124
  Solvation  Ediel_sol  =         0.00000000
  ---------------------------------------------------
  free energy    TOTEN  =        -2.54061020 eV

  energy without entropy =       -2.54046139  energy(sigma->0) =       -2.54056060


--------------------------------------------------------------------------------------------------------




----------------------------------------- Iteration    1(   3)  ---------------------------------------


     EDDAV:  cpu time    4.9458: real time    4.9461
       DOS:  cpu time    0.0007: real time    0.0007
    --------------------------------------------
      LOOP:  cpu time    4.9475: real time    4.9493

 eigenvalue-minimisations  :  2832
 total energy-change (2. order) :-0.4270696E+02  (-0.4161774E+02)
 number of electron     138.0000000 magnetization 
 augmentation part      138.0000000 magnetization 

 Free energy of the ion-electron system (eV)
  ---------------------------------------------------
  alpha Z        PSCENC =       240.41329906
  Ewald energy   TEWEN  =     48662.31706664
  -Hartree energ DENC   =    -60389.23213054
  -exchange      EXHF   =         0.00000000
  -V(xc)+E(xc)   XCENC  =       210.26784851
  PAW double counting   =     10835.71951712   -10560.46976544
  entropy T*S    EENTRO =        -0.00936805
  eigenvalues    EBANDS =      -589.48346207
  atomic energy  EATOM  =     11545.22942124
  Solvation  Ediel_sol  =         0.00000000
  ---------------------------------------------------
  free energy    TOTEN  =       -45.24757353 eV

  energy without entropy =      -45.23820547  energy(sigma->0) =      -45.24445084


--------------------------------------------------------------------------------------------------------




----------------------------------------- Iteration    1(   4)  ---------------------------------------


     EDDAV:  cpu time    4.4014: real time    4.4030
       DOS:  cpu time    0.0006: real time    0.0006
    --------------------------------------------
      LOOP:  cpu time    4.4031: real time    4.4063

 eigenvalue-minimisations  :  2472
 total energy-change (2. order) :-0.6618537E+00  (-0.6616146E+00)
 number of electron     138.0000000 magnetization 
 augmentation part      138.0000000 magnetization 

 Free energy of the ion-electron system (eV)
  ---------------------------------------------------
  alpha Z        PSCENC =       240.41329906
  Ewald energy   TEWEN  =     48662.31706664
  -Hartree energ DENC   =    -60389.23213054
  -exchange      EXHF   =         0.00000000
  -V(xc)+E(xc)   XCENC  =       210.26784851
  PAW double counting   =     10835.71951712   -10560.46976544
  entropy T*S    EENTRO =        -0.01003258
  eigenvalues    EBANDS =      -590.14465123
  atomic energy  EATOM  =     11545.22942124
  Solvation  Ediel_sol  =         0.00000000
  ---------------------------------------------------
  free energy    TOTEN  =       -45.90942722 eV

  energy without entropy =      -45.89939463  energy(sigma->0) =      -45.90608302


--------------------------------------------------------------------------------------------------------




----------------------------------------- Iteration    1(   5)  ---------------------------------------


     EDDAV:  cpu time    4.7220: real time    4.7373
       DOS:  cpu time    0.0006: real time    0.0006
    CHARGE:  cpu time    0.1509: real time    0.1509
    MIXING:  cpu time    0.0027: real time    0.0027
    --------------------------------------------
      LOOP:  cpu time    4.8773: real time    4.8943

 eigenvalue-minimisations  :  3168
 total energy-change (2. order) :-0.1366997E-01  (-0.1366913E-01)
 number of electron     138.0000118 magnetization 
 augmentation part       47.1489624 magnetization 

 Broyden mixing:
  rms(total) = 0.28291E+01    rms(broyden)= 0.28290E+01
  rms(prec ) = 0.28867E+01
  weight for this iteration     100.00

 Free energy of the ion-electron system (eV)
  ---------------------------------------------------
  alpha Z        PSCENC =       240.41329906
  Ewald energy   TEWEN  =     48662.31706664
  -Hartree energ DENC   =    -60389.23213054
  -exchange      EXHF   =         0.00000000
  -V(xc)+E(xc)   XCENC  =       210.26784851
  PAW double counting   =     10835.71951712   -10560.46976544
  entropy T*S    EENTRO =        -0.01005834
  eigenvalues    EBANDS =      -590.15829543
  atomic energy  EATOM  =     11545.22942124
  Solvation  Ediel_sol  =         0.00000000
  ---------------------------------------------------
  free energy    TOTEN  =       -45.92309719 eV

  energy without entropy =      -45.91303884  energy(sigma->0) =      -45.91974440


--------------------------------------------------------------------------------------------------------




----------------------------------------- Iteration    1(   6)  ---------------------------------------


    POTLOK:  cpu time    0.0316: real time    0.0316
    SETDIJ:  cpu time    0.0038: real time    0.0038
     EDDAV:  cpu time    4.5475: real time    4.5493
       DOS:  cpu time    0.0006: real time    0.0006
    CHARGE:  cpu time    0.1455: real time    0.1455
    MIXING:  cpu time    0.0019: real time    0.0019
    --------------------------------------------
      LOOP:  cpu time    4.7321: real time    4.7358

 eigenvalue-minimisations  :  3240
 total energy-change (2. order) : 0.3390782E+01  (-0.2273636E+01)
 number of electron     138.0000159 magnetization 
 augmentation part       48.3380089 magnetization 

 Broyden mixing:
  rms(total) = 0.21647E+01    rms(broyden)= 0.21642E+01
  rms(prec ) = 0.22601E+01
  weight for this iteration     100.00

 eigenvalues of (default mixing * dielectric matrix)
  average eigenvalue GAMMA=   0.8153
  0.8153

 Free energy of the ion-electron system (eV)
  ---------------------------------------------------
  alpha Z        PSCENC =       240.41329906
  Ewald energy   TEWEN  =     48662.31706664
  -Hartree energ DENC   =    -60269.69761297
  -exchange      EXHF   =         0.00000000
  -V(xc)+E(xc)   XCENC  =       207.40985574
  PAW double counting   =     11471.08699935   -11208.96332243
  entropy T*S    EENTRO =         0.00148545
  eigenvalues    EBANDS =      -690.32950777
  atomic energy  EATOM  =     11545.22942124
  Solvation  Ediel_sol  =         0.00000000
  ---------------------------------------------------
  free energy    TOTEN  =       -42.53231568 eV

  energy without entropy =      -42.53380113  energy(sigma->0) =      -42.53281083


--------------------------------------------------------------------------------------------------------




----------------------------------------- Iteration    1(   7)  ---------------------------------------


    POTLOK:  cpu time    0.0299: real time    0.0299
    SETDIJ:  cpu time    0.0036: real time    0.0036
     EDDAV:  cpu time    4.7935: real time    4.8040
       DOS:  cpu time    0.0006: real time    0.0006
    CHARGE:  cpu time    0.1635: real time    0.1638
    MIXING:  cpu time    0.0014: real time    0.0014
    --------------------------------------------
      LOOP:  cpu time    4.9937: real time    5.0064

 eigenvalue-minimisations  :  3456
 total energy-change (2. order) :-0.5067789E+00  (-0.4493469E+01)
 number of electron     138.0000126 magnetization 
 augmentation part       48.9416785 magnetization 

 Broyden mixing:
  rms(total) = 0.18585E+01    rms(broyden)= 0.18582E+01
  rms(prec ) = 0.19746E+01
  weight for this iteration     100.00

 eigenvalues of (default mixing * dielectric matrix)
  average eigenvalue GAMMA=   1.2575
  2.1050  0.4099

 Free energy of the ion-electron system (eV)
  ---------------------------------------------------
  alpha Z        PSCENC =       240.41329906
  Ewald energy   TEWEN  =     48662.31706664
  -Hartree energ DENC   =    -60256.76752343
  -exchange      EXHF   =         0.00000000
  -V(xc)+E(xc)   XCENC  =       205.63628200
  PAW double counting   =     11809.27473354   -11552.02219135
  entropy T*S    EENTRO =        -0.00613280
  eigenvalues    EBANDS =      -697.11404949
  atomic energy  EATOM  =     11545.22942124
  Solvation  Ediel_sol  =         0.00000000
  ---------------------------------------------------
  free energy    TOTEN  =       -43.03909459 eV

  energy without entropy =      -43.03296179  energy(sigma->0) =      -43.03705032


--------------------------------------------------------------------------------------------------------




----------------------------------------- Iteration    1(   8)  ---------------------------------------


    POTLOK:  cpu time    0.0280: real time    0.0281
    SETDIJ:  cpu time    0.0033: real time    0.0033
     EDDAV:  cpu time    4.2428: real time    4.2474
       DOS:  cpu time    0.0006: real time    0.0006
    CHARGE:  cpu time    0.1554: real time    0.1555
    MIXING:  cpu time    0.0013: real time    0.0013
    --------------------------------------------
      LOOP:  cpu time    4.4328: real time    4.4392

 eigenvalue-minimisations  :  2904
 total energy-change (2. order) : 0.1938917E+01  (-0.1705276E+01)
 number of electron     138.0000137 magnetization 
 augmentation part       48.9848893 magnetization 

 Broyden mixing:
  rms(total) = 0.61427E+00    rms(broyden)= 0.61418E+00
  rms(prec ) = 0.66866E+00
  weight for this iteration     100.00

 eigenvalues of (default mixing * dielectric matrix)
  average eigenvalue GAMMA=   1.2113
  2.5151  0.7141  0.4048

 Free energy of the ion-electron system (eV)
  ---------------------------------------------------
  alpha Z        PSCENC =       240.41329906
  Ewald energy   TEWEN  =     48662.31706664
  -Hartree energ DENC   =    -60235.28170712
  -exchange      EXHF   =         0.00000000
  -V(xc)+E(xc)   XCENC  =       204.92942430
  PAW double counting   =     12419.42147824   -12169.44201510
  entropy T*S    EENTRO =        -0.01372196
  eigenvalues    EBANDS =      -708.67342266
  atomic energy  EATOM  =     11545.22942124
  Solvation  Ediel_sol  =         0.00000000
  ---------------------------------------------------
  free energy    TOTEN  =       -41.10017733 eV

  energy without entropy =      -41.08645537  energy(sigma->0) =      -41.09560334


--------------------------------------------------------------------------------------------------------




----------------------------------------- Iteration    1(   9)  ---------------------------------------


    POTLOK:  cpu time    0.0286: real time    0.0286
    SETDIJ:  cpu time    0.0032: real time    0.0032
     EDDAV:  cpu time    3.8823: real time    3.8825
       DOS:  cpu time    0.0006: real time    0.0006
    CHARGE:  cpu time    0.1535: real time    0.1536
    MIXING:  cpu time    0.0013: real time    0.0013
    --------------------------------------------
      LOOP:  cpu time    4.0707: real time    4.0730

 eigenvalue-minimisations  :  2688
 total energy-change (2. order) : 0.4121617E+00  (-0.4289058E+00)
 number of electron     138.0000143 magnetization 
 augmentation part       49.0690538 magnetization 

 Broyden mixing:
  rms(total) = 0.23913E+00    rms(broyden)= 0.23887E+00
  rms(prec ) = 0.25756E+00
  weight for this iteration     100.00

 eigenvalues of (default mixing * dielectric matrix)
  average eigenvalue GAMMA=   1.1737
  2.5587  1.1855  0.5460  0.4047

 Free energy of the ion-electron system (eV)
  ---------------------------------------------------
  alpha Z        PSCENC =       240.41329906
  Ewald energy   TEWEN  =     48662.31706664
  -Hartree energ DENC   =    -60219.78110020
  -exchange      EXHF   =         0.00000000
  -V(xc)+E(xc)   XCENC  =       205.04963253
  PAW double counting   =     12651.90035901   -12404.52865227
  entropy T*S    EENTRO =        -0.00304293
  eigenvalues    EBANDS =      -721.28499873
  atomic energy  EATOM  =     11545.22942124
  Solvation  Ediel_sol  =         0.00000000
  ---------------------------------------------------
  free energy    TOTEN  =       -40.68801564 eV

  energy without entropy =      -40.68497271  energy(sigma->0) =      -40.68700133


--------------------------------------------------------------------------------------------------------




----------------------------------------- Iteration    1(  10)  ---------------------------------------


    POTLOK:  cpu time    0.0287: real time    0.0287
    SETDIJ:  cpu time    0.0033: real time    0.0033
     EDDAV:  cpu time    3.8901: real time    3.8917
       DOS:  cpu time    0.0006: real time    0.0006
    CHARGE:  cpu time    0.1365: real time    0.1365
    MIXING:  cpu time    0.0015: real time    0.0015
    --------------------------------------------
      LOOP:  cpu time    4.0620: real time    4.0653

 eigenvalue-minimisations  :  2688
 total energy-change (2. order) : 0.2959029E-01  (-0.5967742E-01)
 number of electron     138.0000144 magnetization 
 augmentation part       48.9345070 magnetization 

 Broyden mixing:
  rms(total) = 0.14051E+00    rms(broyden)= 0.14045E+00
  rms(prec ) = 0.14823E+00
  weight for this iteration     100.00

 eigenvalues of (default mixing * dielectric matrix)
  average eigenvalue GAMMA=   1.1155
  2.4775  1.2244  0.3954  0.8309  0.6493

 Free energy of the ion-electron system (eV)
  ---------------------------------------------------
  alpha Z        PSCENC =       240.41329906
  Ewald energy   TEWEN  =     48662.31706664
  -Hartree energ DENC   =    -60224.05581947
  -exchange      EXHF   =         0.00000000
  -V(xc)+E(xc)   XCENC  =       205.27193806
  PAW double counting   =     12666.59940406   -12418.95520835
  entropy T*S    EENTRO =        -0.01024562
  eigenvalues    EBANDS =      -717.46828098
  atomic energy  EATOM  =     11545.22942124
  Solvation  Ediel_sol  =         0.00000000
  ---------------------------------------------------
  free energy    TOTEN  =       -40.65842535 eV

  energy without entropy =      -40.64817973  energy(sigma->0) =      -40.65501014


--------------------------------------------------------------------------------------------------------




----------------------------------------- Iteration    1(  11)  ---------------------------------------


    POTLOK:  cpu time    0.0277: real time    0.0277
    SETDIJ:  cpu time    0.0034: real time    0.0034
     EDDAV:  cpu time    4.1684: real time    4.1686
       DOS:  cpu time    0.0006: real time    0.0006
    CHARGE:  cpu time    0.1379: real time    0.1379
    MIXING:  cpu time    0.0015: real time    0.0015
    --------------------------------------------
      LOOP:  cpu time    4.3407: real time    4.3429

 eigenvalue-minimisations  :  2904
 total energy-change (2. order) : 0.1631320E-01  (-0.5966511E-02)
 number of electron     138.0000142 magnetization 
 augmentation part       48.9222646 magnetization 

 Broyden mixing:
  rms(total) = 0.46409E-01    rms(broyden)= 0.46390E-01
  rms(prec ) = 0.48862E-01
  weight for this iteration     100.00

 eigenvalues of (default mixing * dielectric matrix)
  average eigenvalue GAMMA=   1.0983
  2.4073  1.3415  0.3972  0.9210  0.9210  0.6017

 Free energy of the ion-electron system (eV)
  ---------------------------------------------------
  alpha Z        PSCENC =       240.41329906
  Ewald energy   TEWEN  =     48662.31706664
  -Hartree energ DENC   =    -60224.37674085
  -exchange      EXHF   =         0.00000000
  -V(xc)+E(xc)   XCENC  =       205.24939385
  PAW double counting   =     12640.28569991   -12392.41680122
  entropy T*S    EENTRO =        -0.00898531
  eigenvalues    EBANDS =      -717.33446548
  atomic energy  EATOM  =     11545.22942124
  Solvation  Ediel_sol  =         0.00000000
  ---------------------------------------------------
  free energy    TOTEN  =       -40.64211215 eV

  energy without entropy =      -40.63312684  energy(sigma->0) =      -40.63911705


--------------------------------------------------------------------------------------------------------




----------------------------------------- Iteration    1(  12)  ---------------------------------------


    POTLOK:  cpu time    0.0283: real time    0.0283
    SETDIJ:  cpu time    0.0033: real time    0.0033
     EDDAV:  cpu time    3.9715: real time    3.9717
       DOS:  cpu time    0.0006: real time    0.0006
    CHARGE:  cpu time    0.1390: real time    0.1390
    MIXING:  cpu time    0.0015: real time    0.0015
    --------------------------------------------
      LOOP:  cpu time    4.1454: real time    4.1475

 eigenvalue-minimisations  :  2760
 total energy-change (2. order) : 0.5510658E-04  (-0.2022875E-02)
 number of electron     138.0000142 magnetization 
 augmentation part       48.9289360 magnetization 

 Broyden mixing:
  rms(total) = 0.20092E-01    rms(broyden)= 0.20058E-01
  rms(prec ) = 0.20909E-01
  weight for this iteration     100.00

 eigenvalues of (default mixing * dielectric matrix)
  average eigenvalue GAMMA=   1.1978
  2.3105  2.3105  1.2629  0.3974  0.7526  0.7526  0.5978

 Free energy of the ion-electron system (eV)
  ---------------------------------------------------
  alpha Z        PSCENC =       240.41329906
  Ewald energy   TEWEN  =     48662.31706664
  -Hartree energ DENC   =    -60222.29448485
  -exchange      EXHF   =         0.00000000
  -V(xc)+E(xc)   XCENC  =       205.23562184
  PAW double counting   =     12618.02639263   -12370.06517666
  entropy T*S    EENTRO =        -0.00857208
  eigenvalues    EBANDS =      -719.49562486
  atomic energy  EATOM  =     11545.22942124
  Solvation  Ediel_sol  =         0.00000000
  ---------------------------------------------------
  free energy    TOTEN  =       -40.64205704 eV

  energy without entropy =      -40.63348496  energy(sigma->0) =      -40.63919968


--------------------------------------------------------------------------------------------------------




----------------------------------------- Iteration    1(  13)  ---------------------------------------


    POTLOK:  cpu time    0.0285: real time    0.0285
    SETDIJ:  cpu time    0.0033: real time    0.0033
     EDDAV:  cpu time    4.2544: real time    4.2561
       DOS:  cpu time    0.0006: real time    0.0006
    CHARGE:  cpu time    0.1394: real time    0.1394
    MIXING:  cpu time    0.0016: real time    0.0016
    --------------------------------------------
      LOOP:  cpu time    4.4290: real time    4.4326

 eigenvalue-minimisations  :  3024
 total energy-change (2. order) :-0.6573022E-03  (-0.1222003E-03)
 number of electron     138.0000142 magnetization 
 augmentation part       48.9271690 magnetization 

 Broyden mixing:
  rms(total) = 0.94654E-02    rms(broyden)= 0.94613E-02
  rms(prec ) = 0.10467E-01
  weight for this iteration     100.00

 eigenvalues of (default mixing * dielectric matrix)
  average eigenvalue GAMMA=   1.2076
  2.3659  2.2288  1.3541  1.1278  0.3972  0.5993  0.7937  0.7937

 Free energy of the ion-electron system (eV)
  ---------------------------------------------------
  alpha Z        PSCENC =       240.41329906
  Ewald energy   TEWEN  =     48662.31706664
  -Hartree energ DENC   =    -60220.29354421
  -exchange      EXHF   =         0.00000000
  -V(xc)+E(xc)   XCENC  =       205.22667800
  PAW double counting   =     12600.28740256   -12352.30308864
  entropy T*S    EENTRO =        -0.00850208
  eigenvalues    EBANDS =      -721.51144693
  atomic energy  EATOM  =     11545.22942124
  Solvation  Ediel_sol  =         0.00000000
  ---------------------------------------------------
  free energy    TOTEN  =       -40.64271435 eV

  energy without entropy =      -40.63421227  energy(sigma->0) =      -40.63988032


--------------------------------------------------------------------------------------------------------




----------------------------------------- Iteration    1(  14)  ---------------------------------------


    POTLOK:  cpu time    0.0281: real time    0.0281
    SETDIJ:  cpu time    0.0034: real time    0.0034
     EDDAV:  cpu time    3.5932: real time    3.5933
       DOS:  cpu time    0.0006: real time    0.0006
    CHARGE:  cpu time    0.1403: real time    0.1403
    MIXING:  cpu time    0.0019: real time    0.0019
    --------------------------------------------
      LOOP:  cpu time    3.7686: real time    3.7707

 eigenvalue-minimisations  :  2376
 total energy-change (2. order) :-0.5036418E-03  (-0.3128785E-04)
 number of electron     138.0000142 magnetization 
 augmentation part       48.9270235 magnetization 

 Broyden mixing:
  rms(total) = 0.34151E-02    rms(broyden)= 0.34142E-02
  rms(prec ) = 0.42099E-02
  weight for this iteration     100.00

 eigenvalues of (default mixing * dielectric matrix)
  average eigenvalue GAMMA=   1.2361
  2.4861  2.2034  1.7490  1.2548  0.3973  0.7985  0.7985  0.8410  0.5963

 Free energy of the ion-electron system (eV)
  ---------------------------------------------------
  alpha Z        PSCENC =       240.41329906
  Ewald energy   TEWEN  =     48662.31706664
  -Hartree energ DENC   =    -60219.24693241
  -exchange      EXHF   =         0.00000000
  -V(xc)+E(xc)   XCENC  =       205.22020839
  PAW double counting   =     12597.21665210   -12349.24524539
  entropy T*S    EENTRO =        -0.00869848
  eigenvalues    EBANDS =      -722.53898914
  atomic energy  EATOM  =     11545.22942124
  Solvation  Ediel_sol  =         0.00000000
  ---------------------------------------------------
  free energy    TOTEN  =       -40.64321799 eV

  energy without entropy =      -40.63451951  energy(sigma->0) =      -40.64031850


--------------------------------------------------------------------------------------------------------




----------------------------------------- Iteration    1(  15)  ---------------------------------------


    POTLOK:  cpu time    0.0282: real time    0.0282
    SETDIJ:  cpu time    0.0034: real time    0.0034
     EDDAV:  cpu time    3.3419: real time    3.3437
       DOS:  cpu time    0.0006: real time    0.0006
    CHARGE:  cpu time    0.1388: real time    0.1388
    MIXING:  cpu time    0.0017: real time    0.0017
    --------------------------------------------
      LOOP:  cpu time    3.5157: real time    3.5194

 eigenvalue-minimisations  :  2184
 total energy-change (2. order) :-0.4297943E-03  (-0.7847602E-05)
 number of electron     138.0000142 magnetization 
 augmentation part       48.9269964 magnetization 

 Broyden mixing:
  rms(total) = 0.15342E-02    rms(broyden)= 0.15328E-02
  rms(prec ) = 0.24156E-02
  weight for this iteration     100.00

 eigenvalues of (default mixing * dielectric matrix)
  average eigenvalue GAMMA=   1.2590
  2.6076  2.2266  2.0790  1.2917  0.3973  0.9114  0.9114  0.5970  0.7839  0.7839

 Free energy of the ion-electron system (eV)
  ---------------------------------------------------
  alpha Z        PSCENC =       240.41329906
  Ewald energy   TEWEN  =     48662.31706664
  -Hartree energ DENC   =    -60218.23279711
  -exchange      EXHF   =         0.00000000
  -V(xc)+E(xc)   XCENC  =       205.21600877
  PAW double counting   =     12594.85478324   -12346.88622491
  entropy T*S    EENTRO =        -0.00870753
  eigenvalues    EBANDS =      -723.54649719
  atomic energy  EATOM  =     11545.22942124
  Solvation  Ediel_sol  =         0.00000000
  ---------------------------------------------------
  free energy    TOTEN  =       -40.64364778 eV

  energy without entropy =      -40.63494025  energy(sigma->0) =      -40.64074527


--------------------------------------------------------------------------------------------------------




----------------------------------------- Iteration    1(  16)  ---------------------------------------


    POTLOK:  cpu time    0.0277: real time    0.0277
    SETDIJ:  cpu time    0.0032: real time    0.0032
     EDDAV:  cpu time    3.2624: real time    3.2625
       DOS:  cpu time    0.0006: real time    0.0006
    CHARGE:  cpu time    0.1389: real time    0.1389
    MIXING:  cpu time    0.0017: real time    0.0017
    --------------------------------------------
      LOOP:  cpu time    3.4358: real time    3.4374

 eigenvalue-minimisations  :  2112
 total energy-change (2. order) :-0.3120074E-03  (-0.3318051E-05)
 number of electron     138.0000142 magnetization 
 augmentation part       48.9269963 magnetization 

 Broyden mixing:
  rms(total) = 0.88412E-03    rms(broyden)= 0.88202E-03
  rms(prec ) = 0.16751E-02
  weight for this iteration     100.00

 eigenvalues of (default mixing * dielectric matrix)
  average eigenvalue GAMMA=   1.3100
  2.6359  2.6359  1.9735  1.6204  0.3973  1.2212  0.5971  0.8819  0.8819  0.7821
  0.7821

 Free energy of the ion-electron system (eV)
  ---------------------------------------------------
  alpha Z        PSCENC =       240.41329906
  Ewald energy   TEWEN  =     48662.31706664
  -Hartree energ DENC   =    -60217.35582147
  -exchange      EXHF   =         0.00000000
  -V(xc)+E(xc)   XCENC  =       205.21265248
  PAW double counting   =     12593.85488684   -12345.88628835
  entropy T*S    EENTRO =        -0.00870204
  eigenvalues    EBANDS =      -724.42047420
  atomic energy  EATOM  =     11545.22942124
  Solvation  Ediel_sol  =         0.00000000
  ---------------------------------------------------
  free energy    TOTEN  =       -40.64395979 eV

  energy without entropy =      -40.63525775  energy(sigma->0) =      -40.64105911


--------------------------------------------------------------------------------------------------------




----------------------------------------- Iteration    1(  17)  ---------------------------------------


    POTLOK:  cpu time    0.0276: real time    0.0276
    SETDIJ:  cpu time    0.0032: real time    0.0032
     EDDAV:  cpu time    3.2368: real time    3.2369
       DOS:  cpu time    0.0006: real time    0.0006
    CHARGE:  cpu time    0.1389: real time    0.1389
    MIXING:  cpu time    0.0018: real time    0.0018
    --------------------------------------------
      LOOP:  cpu time    3.4102: real time    3.4124

 eigenvalue-minimisations  :  2088
 total energy-change (2. order) :-0.3334499E-03  (-0.4496761E-05)
 number of electron     138.0000142 magnetization 
 augmentation part       48.9269851 magnetization 

 Broyden mixing:
  rms(total) = 0.60437E-03    rms(broyden)= 0.60114E-03
  rms(prec ) = 0.10455E-02
  weight for this iteration     100.00

 eigenvalues of (default mixing * dielectric matrix)
  average eigenvalue GAMMA=   1.4798
  4.0672  2.4904  2.4904  1.5840  1.5840  0.3973  1.2224  0.5971  0.7860  0.7860
  0.8763  0.8763

 Free energy of the ion-electron system (eV)
  ---------------------------------------------------
  alpha Z        PSCENC =       240.41329906
  Ewald energy   TEWEN  =     48662.31706664
  -Hartree energ DENC   =    -60216.23911354
  -exchange      EXHF   =         0.00000000
  -V(xc)+E(xc)   XCENC  =       205.20869568
  PAW double counting   =     12593.60969349   -12345.63984987
  entropy T*S    EENTRO =        -0.00872924
  eigenvalues    EBANDS =      -725.53477671
  atomic energy  EATOM  =     11545.22942124
  Solvation  Ediel_sol  =         0.00000000
  ---------------------------------------------------
  free energy    TOTEN  =       -40.64429324 eV

  energy without entropy =      -40.63556400  energy(sigma->0) =      -40.64138349


--------------------------------------------------------------------------------------------------------




----------------------------------------- Iteration    1(  18)  ---------------------------------------


    POTLOK:  cpu time    0.0276: real time    0.0276
    SETDIJ:  cpu time    0.0033: real time    0.0033
     EDDAV:  cpu time    3.2217: real time    3.2232
       DOS:  cpu time    0.0006: real time    0.0006
    CHARGE:  cpu time    0.1393: real time    0.1393
    MIXING:  cpu time    0.0019: real time    0.0019
    --------------------------------------------
      LOOP:  cpu time    3.3956: real time    3.3991

 eigenvalue-minimisations  :  2040
 total energy-change (2. order) :-0.2889149E-03  (-0.5587265E-05)
 number of electron     138.0000142 magnetization 
 augmentation part       48.9272087 magnetization 

 Broyden mixing:
  rms(total) = 0.37687E-03    rms(broyden)= 0.37199E-03
  rms(prec ) = 0.49332E-03
  weight for this iteration     100.00

 eigenvalues of (default mixing * dielectric matrix)
  average eigenvalue GAMMA=   1.5511
  5.0863  2.4746  2.4373  2.0682  1.4061  1.4061  0.3973  0.5971  0.7820  0.7820
  0.8838  0.8838  0.9596

 Free energy of the ion-electron system (eV)
  ---------------------------------------------------
  alpha Z        PSCENC =       240.41329906
  Ewald energy   TEWEN  =     48662.31706664
  -Hartree energ DENC   =    -60215.02136485
  -exchange      EXHF   =         0.00000000
  -V(xc)+E(xc)   XCENC  =       205.20380080
  PAW double counting   =     12594.14545753   -12346.17767799
  entropy T*S    EENTRO =        -0.00872817
  eigenvalues    EBANDS =      -726.74585643
  atomic energy  EATOM  =     11545.22942124
  Solvation  Ediel_sol  =         0.00000000
  ---------------------------------------------------
  free energy    TOTEN  =       -40.64458215 eV

  energy without entropy =      -40.63585399  energy(sigma->0) =      -40.64167276


--------------------------------------------------------------------------------------------------------




----------------------------------------- Iteration    1(  19)  ---------------------------------------


    POTLOK:  cpu time    0.0279: real time    0.0279
    SETDIJ:  cpu time    0.0032: real time    0.0032
     EDDAV:  cpu time    2.8979: real time    2.9043
       DOS:  cpu time    0.0006: real time    0.0006
    --------------------------------------------
      LOOP:  cpu time    2.9307: real time    2.9392

 eigenvalue-minimisations  :  1776
 total energy-change (2. order) :-0.6730040E-04  (-0.5384216E-06)
 number of electron     138.0000142 magnetization 
 augmentation part       48.9272087 magnetization 

 Free energy of the ion-electron system (eV)
  ---------------------------------------------------
  alpha Z        PSCENC =       240.41329906
  Ewald energy   TEWEN  =     48662.31706664
  -Hartree energ DENC   =    -60214.69330092
  -exchange      EXHF   =         0.00000000
  -V(xc)+E(xc)   XCENC  =       205.20297526
  PAW double counting   =     12594.21303539   -12346.24381185
  entropy T*S    EENTRO =        -0.00872814
  eigenvalues    EBANDS =      -727.07460613
  atomic energy  EATOM  =     11545.22942124
  Solvation  Ediel_sol  =         0.00000000
  ---------------------------------------------------
  free energy    TOTEN  =       -40.64464945 eV

  energy without entropy =      -40.63592131  energy(sigma->0) =      -40.64174007


--------------------------------------------------------------------------------------------------------




 average (electrostatic) potential at core
  the test charge radii are     1.2098  0.7215
  (the norm of the test charge is              1.0000)
       1 -74.3911       2 -74.3681       3 -74.3681       4 -74.3681       5 -74.6599
       6 -74.6599       7 -74.7944       8 -74.6599       9 -74.6560      10 -74.6560
      11 -74.6560      12 -74.3123      13 -77.3714
 
 
 
 E-fermi :  -1.2581     XC(G=0):  -4.3627     alpha+bet : -3.9375


 k-point     1 :       0.0000    0.0000    0.0000
  band No.  band energies     occupation 
      1     -19.8993      2.00000
      2      -9.8348      2.00000
      3      -8.3511      2.00000
      4      -7.9982      2.00000
      5      -7.8577      2.00000
      6      -7.8576      2.00000
      7      -7.6546      2.00000
      8      -7.6331      2.00000
      9      -7.6331      2.00000
     10      -7.6081      2.00000
     11      -7.2020      2.00000
     12      -7.1583      2.00000
     13      -7.1583      2.00000
     14      -7.1104      2.00000
     15      -7.1104      2.00000
     16      -7.0447      2.00000
     17      -6.6111      2.00000
     18      -6.6110      2.00000
     19      -5.9627      2.00000
     20      -5.8102      2.00000
     21      -5.8102      2.00000
     22      -5.7903      2.00000
     23      -5.7142      2.00000
     24      -5.7142      2.00000
     25      -5.6579      2.00000
     26      -5.5807      2.00000
     27      -5.5807      2.00000
     28      -5.3004      2.00000
     29      -5.3004      2.00000
     30      -5.2492      2.00000
     31      -5.1997      2.00000
     32      -5.1997      2.00000
     33      -5.1977      2.00000
     34      -4.9768      2.00000
     35      -4.9768      2.00000
     36      -4.6523      2.00000
     37      -4.6110      2.00000
     38      -4.6110      2.00000
     39      -4.2866      2.00000
     40      -4.2503      2.00000
     41      -4.2382      2.00000
     42      -4.2382      2.00000
     43      -4.0031      2.00000
     44      -4.0031      2.00000
     45      -3.8854      2.00000
     46      -3.8854      2.00000
     47      -3.5826      2.00000
     48      -3.5826      2.00000
     49      -3.4229      2.00000
     50      -3.3591      2.00000
     51      -3.3591      2.00000
     52      -3.3296      2.00000
     53      -3.3247      2.00000
     54      -3.3247      2.00000
     55      -3.1713      2.00000
     56      -3.1575      2.00000
     57      -3.1575      2.00000
     58      -3.0640      2.00000
     59      -3.0640      2.00000
     60      -3.0408      2.00000
     61      -2.8628      2.00000
     62      -2.8414      2.00000
     63      -2.8414      2.00000
     64      -2.8275      2.00000
     65      -2.4780      2.00000
     66      -2.2372      2.00000
     67      -2.2371      2.00000
     68      -0.8460     -0.00000
     69      -0.8460     -0.00000
     70      -0.7439     -0.00000
     71      -0.4726     -0.00000
     72      -0.0202     -0.00000
     73      -0.0202     -0.00000
     74       0.0541     -0.00000
     75       0.2876     -0.00000
     76       0.2876     -0.00000
     77       1.2814     -0.00000
     78       2.1708      0.00000
     79       2.1708      0.00000
     80       2.4121      0.00000
     81       3.0917      0.00000
     82       3.0917      0.00000
     83       3.4739      0.00000
     84       3.6212      0.00000
     85       4.0230      0.00000
     86       4.2348      0.00000
     87       4.3633      0.00000
     88       4.3634      0.00000
     89       4.5751      0.00000
     90       5.4880      0.00000
     91       5.6378      0.00000
     92       6.9182      0.00000
     93       7.1869      0.00000
     94       7.1869      0.00000
     95       7.2744      0.00000
     96       7.6187      0.00000

 k-point     2 :       0.1111    0.0000    0.0000
  band No.  band energies     occupation 
      1     -19.8979      2.00000
      2      -9.7484      2.00000
      3      -8.2795      2.00000
      4      -7.9295      2.00000
      5      -7.8459      2.00000
      6      -7.8099      2.00000
      7      -7.6253      2.00000
      8      -7.5917      2.00000
      9      -7.5695      2.00000
     10      -7.5422      2.00000
     11      -7.1869      2.00000
     12      -7.1215      2.00000
     13      -7.1200      2.00000
     14      -7.0706      2.00000
     15      -7.0535      2.00000
     16      -6.9843      2.00000
     17      -6.5992      2.00000
     18      -6.5779      2.00000
     19      -5.9589      2.00000
     20      -5.8309      2.00000
     21      -5.8244      2.00000
     22      -5.7763      2.00000
     23      -5.6743      2.00000
     24      -5.6735      2.00000
     25      -5.6445      2.00000
     26      -5.6225      2.00000
     27      -5.5268      2.00000
     28      -5.3988      2.00000
     29      -5.3124      2.00000
     30      -5.2680      2.00000
     31      -5.2532      2.00000
     32      -5.1625      2.00000
     33      -5.1549      2.00000
     34      -4.9827      2.00000
     35      -4.9567      2.00000
     36      -4.7279      2.00000
     37      -4.6532      2.00000
     38      -4.6102      2.00000
     39      -4.3760      2.00000
     40      -4.2839      2.00000
     41      -4.2611      2.00000
     42      -4.2586      2.00000
     43      -4.0516      2.00000
     44      -4.0501      2.00000
     45      -3.9458      2.00000
     46      -3.8907      2.00000
     47      -3.6775      2.00000
     48      -3.6002      2.00000
     49      -3.4982      2.00000
     50      -3.4666      2.00000
     51      -3.4132      2.00000
     52      -3.3956      2.00000
     53      -3.3568      2.00000
     54      -3.3385      2.00000
     55      -3.3201      2.00000
     56      -3.2778      2.00000
     57      -3.2273      2.00000
     58      -3.2064      2.00000
     59      -3.1345      2.00000
     60      -3.1168      2.00000
     61      -2.9930      2.00000
     62      -2.9676      2.00000
     63      -2.9179      2.00000
     64      -2.7585      2.00000
     65      -2.4951      2.00000
     66      -2.2505      2.00000
     67      -2.2391      2.00000
     68      -1.6534      2.00000
     69      -1.0197     -0.00384
     70      -0.9576     -0.00018
     71      -0.5508     -0.00000
     72      -0.2724     -0.00000
     73      -0.0093     -0.00000
     74       0.3935     -0.00000
     75       0.7956     -0.00000
     76       0.9643     -0.00000
     77       1.5681      0.00000
     78       2.2065      0.00000
     79       2.3062      0.00000
     80       2.5547      0.00000
     81       3.0613      0.00000
     82       3.2180      0.00000
     83       3.6319      0.00000
     84       3.7133      0.00000
     85       4.2070      0.00000
     86       4.3028      0.00000
     87       4.4605      0.00000
     88       4.6747      0.00000
     89       5.3109      0.00000
     90       5.5802      0.00000
     91       5.7442      0.00000
     92       6.6619      0.00000
     93       6.9847      0.00000
     94       7.0213      0.00000
     95       7.3341      0.00000
     96       7.5256      0.00000

 k-point     3 :       0.2222   -0.0000    0.0000
  band No.  band energies     occupation 
      1     -19.8939      2.00000
      2      -9.4975      2.00000
      3      -8.1031      2.00000
      4      -7.8457      2.00000
      5      -7.7000      2.00000
      6      -7.6782      2.00000
      7      -7.5761      2.00000
      8      -7.4488      2.00000
      9      -7.3875      2.00000
     10      -7.3489      2.00000
     11      -7.1282      2.00000
     12      -7.0301      2.00000
     13      -7.0189      2.00000
     14      -6.9395      2.00000
     15      -6.9046      2.00000
     16      -6.8305      2.00000
     17      -6.5459      2.00000
     18      -6.4665      2.00000
     19      -5.9630      2.00000
     20      -5.8950      2.00000
     21      -5.8389      2.00000
     22      -5.7903      2.00000
     23      -5.7534      2.00000
     24      -5.6224      2.00000
     25      -5.5864      2.00000
     26      -5.5713      2.00000
     27      -5.5320      2.00000
     28      -5.3927      2.00000
     29      -5.3686      2.00000
     30      -5.3429      2.00000
     31      -5.2101      2.00000
     32      -5.1902      2.00000
     33      -5.0560      2.00000
     34      -5.0524      2.00000
     35      -4.9298      2.00000
     36      -4.9170      2.00000
     37      -4.7555      2.00000
     38      -4.6956      2.00000
     39      -4.5372      2.00000
     40      -4.3830      2.00000
     41      -4.3769      2.00000
     42      -4.2968      2.00000
     43      -4.2151      2.00000
     44      -4.1927      2.00000
     45      -4.0909      2.00000
     46      -3.9407      2.00000
     47      -3.9181      2.00000
     48      -3.8346      2.00000
     49      -3.8224      2.00000
     50      -3.6379      2.00000
     51      -3.6282      2.00000
     52      -3.6185      2.00000
     53      -3.5646      2.00000
     54      -3.5062      2.00000
     55      -3.4986      2.00000
     56      -3.4183      2.00000
     57      -3.3862      2.00000
     58      -3.3458      2.00000
     59      -3.3438      2.00000
     60      -3.2573      2.00000
     61      -3.2284      2.00000
     62      -3.1259      2.00000
     63      -3.1026      2.00000
     64      -3.0791      2.00000
     65      -2.7134      2.00000
     66      -2.4729      2.00000
     67      -2.2505      2.00000
     68      -1.8954      2.00000
     69      -1.2804      1.36708
     70      -1.1746      0.00333
     71      -0.9315     -0.00004
     72       0.0886     -0.00000
     73       0.1110     -0.00000
     74       0.5038     -0.00000
     75       1.0931     -0.00000
     76       1.6906      0.00000
     77       1.9434      0.00000
     78       2.4223      0.00000
     79       2.6305      0.00000
     80       3.2106      0.00000
     81       3.4016      0.00000
     82       3.7628      0.00000
     83       3.8640      0.00000
     84       4.4556      0.00000
     85       4.4978      0.00000
     86       4.5653      0.00000
     87       5.0940      0.00000
     88       5.3335      0.00000
     89       5.6713      0.00000
     90       5.8058      0.00000
     91       5.9877      0.00000
     92       6.5792      0.00000
     93       6.6782      0.00000
     94       6.9789      0.00000
     95       7.3014      0.00000
     96       7.5566      0.00000

 k-point     4 :       0.3333    0.0000    0.0000
  band No.  band energies     occupation 
      1     -19.8896      2.00000
      2      -9.1114      2.00000
      3      -8.0341      2.00000
      4      -7.7565      2.00000
      5      -7.5028      2.00000
      6      -7.4975      2.00000
      7      -7.3904      2.00000
      8      -7.2418      2.00000
      9      -7.1250      2.00000
     10      -7.0949      2.00000
     11      -7.0097      2.00000
     12      -6.8968      2.00000
     13      -6.8816      2.00000
     14      -6.7518      2.00000
     15      -6.7307      2.00000
     16      -6.6590      2.00000
     17      -6.3828      2.00000
     18      -6.2479      2.00000
     19      -6.0300      2.00000
     20      -5.9864      2.00000
     21      -5.9744      2.00000
     22      -5.8652      2.00000
     23      -5.7920      2.00000
     24      -5.7073      2.00000
     25      -5.6184      2.00000
     26      -5.6086      2.00000
     27      -5.5205      2.00000
     28      -5.3957      2.00000
     29      -5.3748      2.00000
     30      -5.2548      2.00000
     31      -5.1965      2.00000
     32      -5.1372      2.00000
     33      -5.1362      2.00000
     34      -5.1058      2.00000
     35      -5.0652      2.00000
     36      -4.9511      2.00000
     37      -4.9408      2.00000
     38      -4.6862      2.00000
     39      -4.6176      2.00000
     40      -4.5877      2.00000
     41      -4.5193      2.00000
     42      -4.4701      2.00000
     43      -4.4134      2.00000
     44      -4.3966      2.00000
     45      -4.3420      2.00000
     46      -4.2878      2.00000
     47      -4.2731      2.00000
     48      -4.2368      2.00000
     49      -4.0310      2.00000
     50      -3.9884      2.00000
     51      -3.9463      2.00000
     52      -3.8706      2.00000
     53      -3.8015      2.00000
     54      -3.7928      2.00000
     55      -3.6960      2.00000
     56      -3.6458      2.00000
     57      -3.5417      2.00000
     58      -3.5411      2.00000
     59      -3.4799      2.00000
     60      -3.4590      2.00000
     61      -3.3398      2.00000
     62      -3.2855      2.00000
     63      -3.2451      2.00000
     64      -3.0837      2.00000
     65      -3.0155      2.00000
     66      -2.5631      2.00000
     67      -2.2613      2.00000
     68      -1.6901      2.00000
     69      -1.3726      2.06876
     70      -1.2011      0.18747
     71      -0.9403     -0.00007
     72      -0.1190     -0.00000
     73       0.1986     -0.00000
     74       0.6749     -0.00000
     75       1.2194     -0.00000
     76       2.3062      0.00000
     77       2.3225      0.00000
     78       2.7733      0.00000
     79       2.9163      0.00000
     80       3.7863      0.00000
     81       4.1302      0.00000
     82       4.1774      0.00000
     83       4.5503      0.00000
     84       4.8252      0.00000
     85       4.8801      0.00000
     86       5.2790      0.00000
     87       5.7589      0.00000
     88       5.8650      0.00000
     89       5.9528      0.00000
     90       6.1026      0.00000
     91       6.1331      0.00000
     92       6.2267      0.00000
     93       6.5027      0.00000
     94       6.6932      0.00000
     95       6.8403      0.00000
     96       7.2096      0.00000

 k-point     5 :       0.4444   -0.0000    0.0000
  band No.  band energies     occupation 
      1     -19.8866      2.00000
      2      -8.6628      2.00000
      3      -8.2258      2.00000
      4      -7.7124      2.00000
      5      -7.3632      2.00000
      6      -7.3340      2.00000
      7      -7.1648      2.00000
      8      -7.0371      2.00000
      9      -6.9251      2.00000
     10      -6.9101      2.00000
     11      -6.8902      2.00000
     12      -6.7948      2.00000
     13      -6.7450      2.00000
     14      -6.5287      2.00000
     15      -6.5125      2.00000
     16      -6.4832      2.00000
     17      -6.2813      2.00000
     18      -6.1453      2.00000
     19      -6.1272      2.00000
     20      -6.0546      2.00000
     21      -5.9615      2.00000
     22      -5.9248      2.00000
     23      -5.9152      2.00000
     24      -5.8734      2.00000
     25      -5.8274      2.00000
     26      -5.6697      2.00000
     27      -5.5378      2.00000
     28      -5.4139      2.00000
     29      -5.3391      2.00000
     30      -5.2489      2.00000
     31      -5.1775      2.00000
     32      -5.1688      2.00000
     33      -5.1149      2.00000
     34      -5.0475      2.00000
     35      -5.0469      2.00000
     36      -5.0116      2.00000
     37      -4.9217      2.00000
     38      -4.8924      2.00000
     39      -4.8496      2.00000
     40      -4.7821      2.00000
     41      -4.7771      2.00000
     42      -4.7600      2.00000
     43      -4.6969      2.00000
     44      -4.4754      2.00000
     45      -4.4629      2.00000
     46      -4.4329      2.00000
     47      -4.3779      2.00000
     48      -4.3191      2.00000
     49      -4.2581      2.00000
     50      -4.2121      2.00000
     51      -4.1911      2.00000
     52      -4.1314      2.00000
     53      -3.9772      2.00000
     54      -3.8835      2.00000
     55      -3.8805      2.00000
     56      -3.7865      2.00000
     57      -3.7424      2.00000
     58      -3.7030      2.00000
     59      -3.5254      2.00000
     60      -3.3679      2.00000
     61      -3.3464      2.00000
     62      -3.2964      2.00000
     63      -3.2576      2.00000
     64      -3.1683      2.00000
     65      -3.0746      2.00000
     66      -2.6032      2.00000
     67      -2.2648      2.00000
     68      -1.6613      2.00000
     69      -1.2421      0.73341
[...]
     58      -3.4759      2.00000
     59      -3.4263      2.00000
     60      -3.3528      2.00000
     61      -3.3316      2.00000
     62      -3.3154      2.00000
     63      -3.2607      2.00000
     64      -3.0723      2.00000
     65      -2.9925      2.00000
     66      -2.7108      2.00000
     67      -2.6106      2.00000
     68      -2.4498      2.00000
     69      -1.6637      2.00000
     70      -1.2741      0.79024
     71      -0.8298     -0.00000
     72       0.1349     -0.00000
     73       0.8013     -0.00000
     74       1.0626     -0.00000
     75       1.1548     -0.00000
     76       1.5244      0.00000
     77       2.5936      0.00000
     78       2.7157      0.00000
     79       3.8239      0.00000
     80       4.0819      0.00000
     81       4.2467      0.00000
     82       4.4125      0.00000
     83       4.7037      0.00000
     84       5.0320      0.00000
     85       5.1333      0.00000
     86       5.2826      0.00000
     87       5.4520      0.00000
     88       5.9796      0.00000
     89       6.0484      0.00000
     90       6.1896      0.00000
     91       6.2721      0.00000
     92       6.3711      0.00000
     93       6.7325      0.00000
     94       6.8585      0.00000
     95       7.0100      0.00000
     96       7.0603      0.00000

 k-point    11 :      -0.4444    0.2222    0.0000
  band No.  band energies     occupation 
      1     -19.5183      2.00000
      2      -8.4813      2.00000
      3      -8.0585      2.00000
      4      -7.6496      2.00000
      5      -7.2820      2.00000
      6      -7.0588      2.00000
      7      -6.9802      2.00000
      8      -6.8941      2.00000
      9      -6.8240      2.00000
     10      -6.7581      2.00000
     11      -6.6773      2.00000
     12      -6.6360      2.00000
     13      -6.5523      2.00000
     14      -6.4354      2.00000
     15      -6.4080      2.00000
     16      -6.3222      2.00000
     17      -6.2850      2.00000
     18      -6.2618      2.00000
     19      -6.1745      2.00000
     20      -6.0996      2.00000
     21      -6.0305      2.00000
     22      -5.9616      2.00000
     23      -5.9005      2.00000
     24      -5.7885      2.00000
     25      -5.7627      2.00000
     26      -5.7189      2.00000
     27      -5.6846      2.00000
     28      -5.6385      2.00000
     29      -5.5320      2.00000
     30      -5.4262      2.00000
     31      -5.4091      2.00000
     32      -5.3356      2.00000
     33      -5.3094      2.00000
     34      -5.2602      2.00000
     35      -5.1225      2.00000
     36      -5.0633      2.00000
     37      -4.9933      2.00000
     38      -4.9639      2.00000
     39      -4.8544      2.00000
     40      -4.8153      2.00000
     41      -4.7481      2.00000
     42      -4.6871      2.00000
     43      -4.6367      2.00000
     44      -4.4965      2.00000
     45      -4.4519      2.00000
     46      -4.3928      2.00000
     47      -4.3084      2.00000
     48      -4.2146      2.00000
     49      -4.1817      2.00000
     50      -4.1264      2.00000
     51      -4.1072      2.00000
     52      -3.9979      2.00000
     53      -3.8799      2.00000
     54      -3.8302      2.00000
     55      -3.7537      2.00000
     56      -3.6629      2.00000
     57      -3.6185      2.00000
     58      -3.5492      2.00000
     59      -3.5027      2.00000
     60      -3.4698      2.00000
     61      -3.3975      2.00000
     62      -3.3537      2.00000
     63      -3.3167      2.00000
     64      -3.2374      2.00000
     65      -3.0488      2.00000
     66      -2.9434      2.00000
     67      -2.6239      2.00000
     68      -2.5294      2.00000
     69      -1.7060      2.00000
     70      -1.2250      0.14639
     71      -0.6414     -0.00000
     72      -0.2368     -0.00000
     73       0.6997     -0.00000
     74       0.9423     -0.00000
     75       1.8890      0.00000
     76       2.2085      0.00000
     77       2.5731      0.00000
     78       3.0286      0.00000
     79       3.5619      0.00000
     80       3.9470      0.00000
     81       4.4756      0.00000
     82       4.6300      0.00000
     83       4.8577      0.00000
     84       5.2027      0.00000
     85       5.4948      0.00000
     86       5.6195      0.00000
     87       5.6772      0.00000
     88       5.7865      0.00000
     89       6.1355      0.00000
     90       6.2701      0.00000
     91       6.5133      0.00000
     92       6.6382      0.00000
     93       6.7433      0.00000
     94       6.8211      0.00000
     95       6.8545      0.00000
     96       6.9599      0.00000

 k-point    12 :      -0.3333    0.3333    0.0000
  band No.  band energies     occupation 
      1     -19.5172      2.00000
      2      -8.3169      2.00000
      3      -7.8982      2.00000
      4      -7.8181      2.00000
      5      -7.2951      2.00000
      6      -7.0184      2.00000
      7      -6.8227      2.00000
      8      -6.8014      2.00000
      9      -6.7890      2.00000
     10      -6.6327      2.00000
     11      -6.5653      2.00000
     12      -6.5499      2.00000
     13      -6.5188      2.00000
     14      -6.4510      2.00000
     15      -6.4502      2.00000
     16      -6.3280      2.00000
     17      -6.3232      2.00000
     18      -6.2259      2.00000
     19      -6.1021      2.00000
     20      -6.0838      2.00000
     21      -6.0676      2.00000
     22      -6.0490      2.00000
     23      -5.8760      2.00000
     24      -5.8736      2.00000
     25      -5.8375      2.00000
     26      -5.7759      2.00000
     27      -5.6870      2.00000
     28      -5.6276      2.00000
     29      -5.6174      2.00000
     30      -5.5395      2.00000
     31      -5.5294      2.00000
     32      -5.4370      2.00000
     33      -5.3836      2.00000
     34      -5.3245      2.00000
     35      -5.1072      2.00000
     36      -5.0487      2.00000
     37      -5.0123      2.00000
     38      -4.9757      2.00000
     39      -4.9552      2.00000
     40      -4.8799      2.00000
     41      -4.8211      2.00000
     42      -4.7354      2.00000
     43      -4.5700      2.00000
     44      -4.4815      2.00000
     45      -4.4388      2.00000
     46      -4.3850      2.00000
     47      -4.2954      2.00000
     48      -4.1904      2.00000
     49      -4.1664      2.00000
     50      -4.1010      2.00000
     51      -4.0686      2.00000
     52      -3.8507      2.00000
     53      -3.8439      2.00000
     54      -3.8415      2.00000
     55      -3.6502      2.00000
     56      -3.6368      2.00000
     57      -3.5734      2.00000
     58      -3.5107      2.00000
     59      -3.5029      2.00000
     60      -3.4718      2.00000
     61      -3.4704      2.00000
     62      -3.4234      2.00000
     63      -3.4174      2.00000
     64      -3.3958      2.00000
     65      -3.1438      2.00000
     66      -2.9855      2.00000
     67      -2.9121      2.00000
     68      -2.5930      2.00000
     69      -1.7587      2.00000
     70      -1.2702      0.72695
     71      -0.4353     -0.00000
     72      -0.3581     -0.00000
     73       0.4365     -0.00000
     74       1.6095      0.00000
     75       1.7573      0.00000
     76       2.3237      0.00000
     77       2.9144      0.00000
     78       2.9552      0.00000
     79       3.3589      0.00000
     80       4.2545      0.00000
     81       4.2717      0.00000
     82       4.3470      0.00000
     83       4.9791      0.00000
     84       5.1727      0.00000
     85       5.3856      0.00000
     86       6.0182      0.00000
     87       6.0438      0.00000
     88       6.0958      0.00000
     89       6.1639      0.00000
     90       6.1693      0.00000
     91       6.1749      0.00000
     92       6.2509      0.00000
     93       6.4247      0.00000
     94       6.7615      0.00000
     95       7.2077      0.00000
     96       7.2721      0.00000


--------------------------------------------------------------------------------------------------------


 soft charge-density along one line, spin component           1
         0         1         2         3         4         5         6         7         8         9
 total charge-density along one line
 
 pseudopotential strength for first ion, spin component:           1
 -8.237  -0.000   0.000  -0.004   0.000  -8.380  -0.000   0.000
 -0.000  -8.210   0.000   0.000  -0.004  -0.000  -8.353   0.000
  0.000   0.000  -8.209   0.000   0.000   0.000   0.000  -8.352
 -0.004   0.000   0.000  -8.210  -0.000  -0.004   0.000   0.000
  0.000  -0.004   0.000  -0.000  -8.237   0.000  -0.004   0.000
 -8.380  -0.000   0.000  -0.004   0.000  -8.506  -0.000   0.000
 -0.000  -8.353   0.000   0.000  -0.004  -0.000  -8.480   0.000
  0.000   0.000  -8.352   0.000   0.000   0.000   0.000  -8.480
 -0.004   0.000   0.000  -8.353  -0.000  -0.004   0.000   0.000
  0.000  -0.004   0.000  -0.000  -8.380   0.000  -0.004   0.000
  0.000  -0.000  -0.011  -0.000   0.000   0.000  -0.000  -0.011
  0.000  -0.000  -0.016  -0.000   0.000   0.000  -0.000  -0.016
 -0.000  -0.005   0.000  -0.000   0.000  -0.000  -0.005   0.000
 -0.000   0.000  -0.007   0.000  -0.000  -0.000   0.000  -0.007
  0.000  -0.000   0.000  -0.005  -0.000   0.000  -0.000   0.000
 -0.000  -0.005   0.000  -0.000   0.000  -0.000  -0.004   0.000
 -0.000   0.000  -0.007   0.000  -0.000  -0.000   0.000  -0.007
  0.000  -0.000   0.000  -0.005  -0.000   0.000  -0.000   0.000
 total augmentation occupancy for first ion, spin component:           1
  4.101  -0.000   0.000   0.004   0.000  -2.063  -0.000  -0.000  -0.066   0.000   0.000   0.000  -0.000   0.000  -0.030   0.000
  0.000   3.696   0.000  -0.000   0.004   0.000  -1.503   0.000   0.000  -0.065   0.000   0.000  -0.137   0.000   0.000   0.002
  0.000   0.000   4.251   0.000  -0.000  -0.000   0.000  -2.088  -0.000   0.000   0.493  -0.045   0.000  -0.261  -0.000  -0.000
  0.004  -0.000   0.000   3.696  -0.000  -0.065   0.000  -0.000  -1.503   0.000   0.000   0.000   0.000   0.000  -0.137  -0.000
 -0.000   0.004  -0.000  -0.000   4.101   0.000  -0.066   0.000   0.000  -2.063  -0.000   0.000  -0.030   0.000   0.000   0.001
 -2.063  -0.000  -0.000  -0.065   0.000   1.943   0.000   0.000   0.111   0.000   0.000   0.000   0.000   0.000   0.030  -0.000
 -0.000  -1.503   0.000   0.000  -0.066   0.000   1.270  -0.000  -0.000   0.111   0.000   0.000   0.135   0.000  -0.000  -0.006
 -0.000   0.000  -2.088  -0.000   0.000   0.000  -0.000   1.870   0.000  -0.000  -0.455   0.065  -0.000   0.270   0.000   0.000
 -0.066   0.000  -0.000  -1.503   0.000   0.111  -0.000   0.000   1.270  -0.000   0.000   0.000   0.000   0.000   0.135   0.000
  0.000  -0.065   0.000   0.000  -2.063   0.000   0.111  -0.000  -0.000   1.943   0.000  -0.000   0.030  -0.000  -0.000  -0.001
  0.000   0.000   0.493  -0.000  -0.000   0.000   0.000  -0.455   0.000   0.000   2.207  -0.489   0.000   0.142   0.000   0.000
  0.000   0.000  -0.045   0.000   0.000   0.000  -0.000   0.065   0.000  -0.000  -0.489   0.152  -0.000  -0.059   0.000   0.000
 -0.000  -0.137   0.000   0.000  -0.030   0.000   0.135  -0.000   0.000   0.030  -0.000   0.000   0.149  -0.000  -0.000  -0.005
 -0.000  -0.000  -0.261  -0.000   0.000   0.000   0.000   0.270   0.000  -0.000   0.142  -0.059   0.000   0.094   0.000   0.000
 -0.030   0.000  -0.000  -0.137   0.000   0.030   0.000   0.000   0.135  -0.000   0.000  -0.000  -0.000  -0.000   0.149   0.000
  0.000   0.002  -0.000  -0.000   0.001  -0.000  -0.006   0.000   0.000  -0.001   0.000   0.000  -0.005  -0.000   0.000   0.000
  0.000   0.000  -0.000   0.000   0.000   0.000   0.000  -0.007   0.000   0.000  -0.009   0.003   0.000  -0.003   0.000   0.000
  0.001  -0.000   0.000   0.002  -0.000  -0.001   0.000  -0.000  -0.006   0.000   0.000   0.000   0.000  -0.000  -0.005  -0.000


------------------------ aborting loop because EDIFF is reached ----------------------------------------


    CHARGE:  cpu time    0.1318: real time    0.1319
    FORLOC:  cpu time    0.0037: real time    0.0037
    FORNL :  cpu time    2.9285: real time    2.9285
    STRESS:  cpu time    4.2812: real time    4.2812
    FORCOR:  cpu time    0.0304: real time    0.0304
    FORHAR:  cpu time    0.0106: real time    0.0106
    MIXING:  cpu time    0.0015: real time    0.0015
    OFIELD:  cpu time    0.0000: real time    0.0000

  FORCE on cell =-STRESS in cart. coord.  units (eV):
  Direction    XX          YY          ZZ          XY          YZ          ZX
  --------------------------------------------------------------------------------------
  Alpha Z   240.41330   240.41330   240.41330
  Ewald   56124.71540 56124.71540-63949.55469     0.00000     0.00000     0.00000
  Hartree 58746.13828 58746.13828-57637.36862     0.00000    -0.00000    -0.00000
  E(xc)    -621.48409  -621.48407  -624.77778    -0.00002     0.00001     0.00001
  Local  ************************119189.32717     0.00145    -0.00008    -0.00015
  n-local   -21.89367   -58.27135   -29.98951   -19.13558    -0.10534    -0.41524
  augment   816.03383   816.03462   824.69690    -0.00069     0.00000     0.00001
  Kinetic  1952.28436  1964.95280  1986.59955     4.67856    -1.97297     1.80991
  Fock        0.00000     0.00000     0.00000     0.00000     0.00000     0.00000
  -------------------------------------------------------------------------------------
  Total      -6.11618    -6.11618    -0.65369     0.00000     0.00000     0.00000
  in kB     -13.19435   -13.19435    -1.41020     0.00000     0.00000     0.00000
  external pressure =       -9.27 kB  Pullay stress =        0.00 kB


 VOLUME and BASIS-vectors are now :
 -----------------------------------------------------------------------------
  energy-cutoff  :      400.00
  volume of cell :      742.68
      direct lattice vectors                 reciprocal lattice vectors
     5.880299992  0.000000000  0.000000000     0.170059351 -0.098183812  0.000000000
     2.940149996  5.092489175  0.000000000     0.000000000  0.196367624  0.000000000
     0.000000000  0.000000000 24.801244839     0.000000000  0.000000000  0.040320557

  length of vectors
     5.880299992  5.880299992 24.801244839     0.196367624  0.196367624  0.040320557


 FORCES acting on ions
    electron-ion (+dipol)            ewald-force                    non-local-force                 convergence-correction
 -----------------------------------------------------------------------------------------------
   0.136E-04 0.787E-05 0.215E+04   0.167E-10 0.967E-11 -.215E+04   0.191E-16 0.347E-17 -.699E+00   0.109E-07 0.629E-08 -.608E-01
   -.755E-05 0.230E+01 0.216E+04   -.952E-11 -.229E+01 -.216E+04   0.173E-17 -.240E-01 -.675E-01   0.887E-07 0.198E-02 -.953E-02
   0.199E+01 -.115E+01 0.216E+04   -.199E+01 0.115E+01 -.216E+04   -.208E-01 0.120E-01 -.675E-01   0.172E-02 -.992E-03 -.953E-02
   -.199E+01 -.115E+01 0.216E+04   0.199E+01 0.115E+01 -.216E+04   0.208E-01 0.120E-01 -.675E-01   -.172E-02 -.992E-03 -.953E-02
   -.350E+01 0.202E+01 0.151E+03   0.358E+01 -.207E+01 -.151E+03   -.660E-01 0.381E-01 -.125E-01   -.401E-02 0.231E-02 -.192E-01
   0.350E+01 0.202E+01 0.151E+03   -.358E+01 -.207E+01 -.151E+03   0.660E-01 0.381E-01 -.125E-01   0.401E-02 0.232E-02 -.192E-01
   0.481E-05 0.277E-05 0.116E+03   -.286E-10 -.292E-11 -.115E+03   0.000E+00 0.000E+00 -.113E+01   -.135E-07 -.779E-08 0.138E+00
   -.511E-05 -.405E+01 0.151E+03   0.245E-10 0.413E+01 -.151E+03   0.520E-17 -.762E-01 -.125E-01   -.359E-06 -.463E-02 -.192E-01
   0.380E+02 0.220E+02 -.194E+04   -.397E+02 -.229E+02 0.194E+04   0.166E+01 0.960E+00 -.221E+00   0.205E-01 0.118E-01 0.601E-01
   -.380E+02 0.220E+02 -.194E+04   0.397E+02 -.229E+02 0.194E+04   -.166E+01 0.960E+00 -.221E+00   -.205E-01 0.118E-01 0.601E-01
   0.175E-05 -.439E+02 -.194E+04   0.284E-11 0.459E+02 0.194E+04   0.000E+00 -.192E+01 -.221E+00   -.690E-06 -.237E-01 0.601E-01
   -.724E-05 -.418E-05 -.184E+04   -.123E-12 -.250E-12 0.183E+04   -.173E-17 0.000E+00 0.206E+01   -.400E-07 -.231E-07 0.174E-01
   0.422E-04 0.244E-04 -.152E+04   0.123E-10 0.702E-11 0.155E+04   -.165E-16 0.520E-17 -.255E+02   0.105E-06 0.605E-07 -.310E-01
 -----------------------------------------------------------------------------------------------
   0.260E-04 0.150E-04 0.260E+02   0.356E-13 -.119E-13 0.296E-11   -.240E-15 0.520E-17 -.262E+02   0.257E-06 0.148E-06 0.158E+00
 
 
 POSITION                                       TOTAL-FORCE (eV/Angst)
 -----------------------------------------------------------------------------------
      1.47007      0.84875     10.00764         0.000000      0.000000     -0.017871
      4.41022      0.84549      9.96890        -0.000000     -0.012976     -0.001453
      2.93733      3.39662      9.96890        -0.011237      0.006488     -0.001453
      5.88312      3.39662      9.96890         0.011237      0.006488     -0.001453
      5.89543      1.68876     12.38398         0.002652     -0.001531     -0.008333
      2.92502      1.68876     12.38398        -0.002652     -0.001531     -0.008333
      7.35037      4.24374     12.46325         0.000000      0.000000      0.027245
      4.41022      4.26121     12.38398         0.000000      0.003062     -0.008333
     -0.09428     -0.05443     14.88847        -0.005146     -0.002971      0.003978
      3.03443     -0.05443     14.88847         0.005146     -0.002971      0.003978
      1.47007      2.65511     14.88847         0.000000      0.005942      0.003978
      4.41022      2.54624     14.62693         0.000000      0.000000      0.011749
      1.47007      0.84875     15.98685         0.000000      0.000000     -0.003698
 -----------------------------------------------------------------------------------
    total drift:                                0.000026      0.000015      0.000606


--------------------------------------------------------------------------------------------------------



  FREE ENERGIE OF THE ION-ELECTRON SYSTEM (eV)
  ---------------------------------------------------
  free  energy   TOTEN  =       -40.96021610 eV

  energy  without entropy=      -40.95547643  energy(sigma->0) =      -40.95863621
 
 d Force = 0.2394268E-03[ 0.238E-03, 0.240E-03]  d Energy = 0.3880913E-03-0.149E-03
 d Force = 0.2216823E+02[ 0.222E+02, 0.222E+02]  d Ewald  = 0.2216824E+02-0.271E-05


--------------------------------------------------------------------------------------------------------


    POTLOK:  cpu time    0.0343: real time    0.0343


--------------------------------------------------------------------------------------------------------




--------------------------------------------------------------------------------------------------------


  
 reached required accuracy - stopping structural energy minimisation
     LOOP+:  cpu time   20.5571: real time   20.6234
    4ORBIT:  cpu time    0.0000: real time    0.0000

 total amount of memory used by VASP on root node    99643. kBytes
========================================================================

   base      :      30000. kBytes
   nonl-proj :      49771. kBytes
   fftplans  :       1950. kBytes
   grid      :       7104. kBytes
   one-center:        202. kBytes
   wavefun   :      10616. kBytes
 
  
  
 General timing and accounting informations for this job:
 ========================================================
  
                  Total CPU time used (sec):      484.034
                            User time (sec):      477.765
                          System time (sec):        6.269
                         Elapsed time (sec):      486.152
  
                   Maximum memory used (kb):      158448.
                   Average memory used (kb):           0.
  
                          Minor page faults:       129070
                          Major page faults:           11
                 Voluntary context switches:         3511
