<?xml version="1.0" encoding="ISO-8859-1"?>
<modeling>
 <generator>
  <i name="program" type="string">vasp </i>
  <i name="version" type="string">5.4.1  </i>
  <i name="subversion" type="string">05Feb16 (build Feb 08 2018 09:21:51) complex                          parallel </i>
  <i name="platform" type="string">LinuxIFC </i>
  <i name="date" type="string">2019 11 21 </i>
  <i name="time" type="string">23:36:35 </i>
 </generator>
 <incar>
  <i type="string" name="PREC">normal</i>
  <i type="int" name="IBRION">     2</i>
  <i type="int" name="NSW">    20</i>
  <i name="ENCUT">    400.00000000</i>
  <i type="int" name="ISMEAR">     1</i>
  <i name="SIGMA">      0.10000000</i>
  <i type="logical" name="LWAVE"> F  </i>
  <i type="logical" name="LCHARG"> F  </i>
  <v type="int" name="KPOINT_BSE">    -1     0     0     0</v>
 </incar>
 <kpoints>
  <generation param="Monkhorst-Pack">
   <v type="int" name="divisions">       9        9        1 </v>
   <v name="usershift">      0.00000000       0.00000000       0.00000000 </v>
   <v name="genvec1">      0.11111111       0.00000000       0.00000000 </v>
   <v name="genvec2">      0.00000000       0.11111111       0.00000000 </v>
   <v name="genvec3">      0.00000000       0.00000000       1.00000000 </v>
   <v name="shift">      0.00000000       0.00000000       0.00000000 </v>
  </generation>
  <varray name="kpointlist" >
   <v>       0.00000000       0.00000000       0.00000000 </v>
   <v>       0.11111111       0.00000000       0.00000000 </v>
   <v>       0.22222222      -0.00000000       0.00000000 </v>
   <v>       0.33333333       0.00000000       0.00000000 </v>
   <v>       0.44444444      -0.00000000       0.00000000 </v>
   <v>       0.22222222       0.11111111       0.00000000 </v>
   <v>       0.33333333       0.11111111       0.00000000 </v>
   <v>       0.44444444       0.11111111       0.00000000 </v>
   <v>      -0.44444444       0.11111111       0.00000000 </v>
   <v>       0.44444444       0.22222222       0.00000000 </v>
   <v>      -0.44444444       0.22222222       0.00000000 </v>
   <v>      -0.33333333       0.33333333       0.00000000 </v>
  </varray>
  <varray name="weights" >
   <v>       0.01234568 </v>
   <v>       0.07407407 </v>
   <v>       0.07407407 </v>
   <v>       0.07407407 </v>
   <v>       0.07407407 </v>
   <v>       0.07407407 </v>
   <v>       0.14814815 </v>
   <v>       0.14814815 </v>
   <v>       0.07407407 </v>
   <v>       0.07407407 </v>
   <v>       0.14814815 </v>
   <v>       0.02469136 </v>
  </varray>
 </kpoints>
 <parameters>
  <separator name="general" >
   <i type="string" name="SYSTEM">unknown system</i>
   <i type="logical" name="LCOMPAT"> F  </i>
  </separator>
  <separator name="electronic" >
   <i type="string" name="PREC">normal</i>
   <i name="ENMAX">    400.00000000</i>
   <i name="ENAUG">    605.39200000</i>
   <i name="EDIFF">      0.00010000</i>
   <i type="int" name="IALGO">    38</i>
   <i type="int" name="IWAVPR">    11</i>
   <i type="int" name="NBANDS">    96</i>
   <i name="NELECT">    138.00000000</i>
   <i type="int" name="TURBO">     0</i>
   <i type="int" name="IRESTART">     0</i>
   <i type="int" name="NREBOOT">     0</i>
   <i type="int" name="NMIN">     0</i>
   <i name="EREF">      0.00000000</i>
   <separator name="electronic smearing" >
    <i type="int" name="ISMEAR">     1</i>
    <i name="SIGMA">      0.10000000</i>
    <i name="KSPACING">      0.50000000</i>
    <i type="logical" name="KGAMMA"> T  </i>
   </separator>
   <separator name="electronic projectors" >
    <i type="logical" name="LREAL"> F  </i>
    <v name="ROPT">      0.00000000      0.00000000</v>
    <i type="int" name="LMAXPAW">  -100</i>
    <i type="int" name="LMAXMIX">     2</i>
    <i type="logical" name="NLSPLINE"> F  </i>
   </separator>
   <separator name="electronic startup" >
    <i type="int" name="ISTART">     0</i>
    <i type="int" name="ICHARG">     2</i>
    <i type="int" name="INIWAV">     1</i>
   </separator>
   <separator name="electronic spin" >
    <i type="int" name="ISPIN">     1</i>
    <i type="logical" name="LNONCOLLINEAR"> F  </i>
    <v name="MAGMOM">      1.00000000      1.00000000      1.00000000      1.00000000      1.00000000      1.00000000      1.00000000      1.00000000      1.00000000      1.00000000      1.00000000      1.00000000      1.00000000</v>
    <i name="NUPDOWN">     -1.00000000</i>
    <i type="logical" name="LSORBIT"> F  </i>
    <v name="SAXIS">      0.00000000      0.00000000      1.00000000</v>
    <i type="logical" name="LSPIRAL"> F  </i>
    <v name="QSPIRAL">      0.00000000      0.00000000      0.00000000</v>
    <i type="logical" name="LZEROZ"> F  </i>
   </separator>
   <separator name="electronic exchange-correlation" >
    <i type="logical" name="LASPH"> F  </i>
    <i type="logical" name="LMETAGGA"> F  </i>
   </separator>
   <separator name="electronic convergence" >
    <i type="int" name="NELM">    60</i>
    <i type="int" name="NELMDL">    -5</i>
    <i type="int" name="NELMIN">     2</i>
    <i name="ENINI">    400.00000000</i>
    <separator name="electronic convergence detail" >
     <i type="logical" name="LDIAG"> T  </i>
     <i type="logical" name="LSUBROT"> F  </i>
     <i name="WEIMIN">      0.00100000</i>
     <i name="EBREAK">      0.00000026</i>
     <i name="DEPER">      0.30000000</i>
     <i type="int" name="NRMM">     4</i>
     <i name="TIME">      0.40000000</i>
    </separator>
   </separator>
   <separator name="electronic mixer" >
    <i name="AMIX">      0.40000000</i>
    <i name="BMIX">      1.00000000</i>
    <i name="AMIN">      0.10000000</i>
    <i name="AMIX_MAG">      1.60000000</i>
    <i name="BMIX_MAG">      1.00000000</i>
    <separator name="electronic mixer details" >
     <i type="int" name="IMIX">     4</i>
     <i type="logical" name="MIXFIRST"> F  </i>
     <i type="int" name="MAXMIX">   -45</i>
     <i name="WC">    100.00000000</i>
     <i type="int" name="INIMIX">     1</i>
     <i type="int" name="MIXPRE">     1</i>
     <i type="int" name="MREMOVE">     5</i>
    </separator>
   </separator>
   <separator name="electronic dipolcorrection" >
    <i type="logical" name="LDIPOL"> F  </i>
    <i type="logical" name="LMONO"> F  </i>
    <i type="int" name="IDIPOL">     0</i>
    <i name="EPSILON">      1.00000000</i>
    <v name="DIPOL">   -100.00000000   -100.00000000   -100.00000000</v>
    <i name="EFIELD">      0.00000000</i>
   </separator>
  </separator>
  <separator name="grids" >
   <i type="int" name="NGX">    30</i>
   <i type="int" name="NGY">    30</i>
   <i type="int" name="NGZ">   126</i>
   <i type="int" name="NGXF">    60</i>
   <i type="int" name="NGYF">    60</i>
   <i type="int" name="NGZF">   252</i>
   <i type="logical" name="ADDGRID"> F  </i>
  </separator>
  <separator name="ionic" >
   <i type="int" name="NSW">    20</i>
   <i type="int" name="IBRION">     2</i>
   <i type="int" name="ISIF">     2</i>
   <i name="PSTRESS">      0.00000000</i>
   <i name="EDIFFG">      0.00100000</i>
   <i type="int" name="NFREE">     1</i>
   <i name="POTIM">      0.50000000</i>
   <i name="SMASS">     -3.00000000</i>
   <i name="SCALEE">      1.00000000</i>
  </separator>
  <separator name="ionic md" >
   <i name="TEBEG">      0.00010000</i>
   <i name="TEEND">      0.00010000</i>
   <i type="int" name="NBLOCK">     1</i>
   <i type="int" name="KBLOCK">    20</i>
   <i type="int" name="NPACO">   256</i>
   <i name="APACO">     16.00000000</i>
  </separator>
  <separator name="symmetry" >
   <i type="int" name="ISYM">     2</i>
   <i name="SYMPREC">      0.00001000</i>
  </separator>
  <separator name="dos" >
   <i type="logical" name="LORBIT"> F  </i>
   <v name="RWIGS">     -1.00000000     -1.00000000</v>
   <i type="int" name="NEDOS">   301</i>
   <i name="EMIN">     10.00000000</i>
   <i name="EMAX">    -10.00000000</i>
   <i name="EFERMI">      0.00000000</i>
  </separator>
  <separator name="writing" >
   <i type="int" name="NWRITE">     2</i>
   <i type="logical" name="LWAVE"> F  </i>
   <i type="logical" name="LCHARG"> F  </i>
   <i type="logical" name="LPARD"> F  </i>
   <i type="logical" name="LVTOT"> F  </i>
   <i type="logical" name="LVHAR"> F  </i>
   <i type="logical" name="LELF"> F  </i>
   <i type="logical" name="LOPTICS"> F  </i>
   <v name="STM">      0.00000000      0.00000000      0.00000000      0.00000000      0.00000000      0.00000000      0.00000000</v>
  </separator>
  <separator name="performance" >
   <i type="int" name="NPAR">    24</i>
   <i type="int" name="NSIM">     4</i>
   <i type="int" name="NBLK">    -1</i>
   <i type="logical" name="LPLANE"> T  </i>
   <i type="logical" name="LSCALAPACK"> F  </i>
   <i type="logical" name="LSCAAWARE"> F  </i>
   <i type="logical" name="LSCALU"> F  </i>
   <i type="logical" name="LASYNC"> F  </i>
   <i type="logical" name="LORBITALREAL"> F  </i>
  </separator>
  <separator name="miscellaneous" >
   <i type="int" name="IDIOT">     3</i>
   <i type="logical" name="LMUSIC"> F  </i>
   <v name="POMASS">    196.96600000     16.00000000</v>
   <v name="DARWINR">      0.00000000      0.00000000</v>
   <v name="DARWINV">      1.00000000      1.00000000</v>
   <i type="logical" name="LCORR"> T  </i>
  </separator>
  <i type="logical" name="GGA_COMPAT"> T  </i>
  <i type="logical" name="LBERRY"> F  </i>
  <i type="int" name="ICORELEVEL">     0</i>
  <i type="logical" name="LDAU"> F  </i>
  <i type="int" name="I_CONSTRAINED_M">     0</i>
  <separator name="electronic exchange-correlation" >
   <i type="string" name="GGA">--</i>
   <i type="int" name="VOSKOWN">     0</i>
   <i type="logical" name="LHFCALC"> F  </i>
   <i type="string" name="PRECFOCK"></i>
   <i type="logical" name="LSYMGRAD"> F  </i>
   <i type="logical" name="LHFONE"> F  </i>
   <i type="logical" name="LRHFCALC"> F  </i>
   <i type="logical" name="LTHOMAS"> F  </i>
   <i type="logical" name="LMODELHF"> F  </i>
   <i name="ENCUT4O">     -1.00000000</i>
   <i type="int" name="EXXOEP">     0</i>
   <i type="int" name="FOURORBIT">     0</i>
   <i name="AEXX">      0.00000000</i>
   <i name="HFALPHA">      0.00000000</i>
   <i name="MCALPHA">      0.00000000</i>
   <i name="ALDAX">      1.00000000</i>
   <i name="AGGAX">      1.00000000</i>
   <i name="ALDAC">      1.00000000</i>
   <i name="AGGAC">      1.00000000</i>
   <i type="int" name="NKREDX">     1</i>
   <i type="int" name="NKREDY">     1</i>
   <i type="int" name="NKREDZ">     1</i>
   <i type="logical" name="SHIFTRED"> F  </i>
   <i type="logical" name="ODDONLY"> F  </i>
   <i type="logical" name="EVENONLY"> F  </i>
   <i type="int" name="LMAXFOCK">     0</i>
   <i type="int" name="NMAXFOCKAE">     0</i>
   <i type="logical" name="LFOCKAEDFT"> F  </i>
   <i name="HFSCREEN">      0.00000000</i>
   <i name="HFSCREENC">      0.00000000</i>
   <i type="int" name="NBANDSGWLOW">     0</i>
  </separator>
  <separator name="vdW DFT" >
   <i type="logical" name="LUSE_VDW"> F  </i>
   <i name="Zab_VDW">     -0.84910000</i>
   <i name="PARAM1">      0.12340000</i>
   <i name="PARAM2">      1.00000000</i>
   <i name="PARAM3">      0.00000000</i>
  </separator>
  <separator name="model GW" >
   <i type="int" name="MODEL_GW">     0</i>
   <i name="MODEL_EPS0">     34.27764488</i>
   <i name="MODEL_ALPHA">      1.00000000</i>
  </separator>
  <separator name="linear response parameters" >
   <i type="logical" name="LEPSILON"> F  </i>
   <i type="logical" name="LRPA"> F  </i>
   <i type="logical" name="LNABLA"> F  </i>
   <i type="logical" name="LVEL"> F  </i>
   <i type="int" name="KINTER">     0</i>
   <i name="CSHIFT">      0.10000000</i>
   <i name="OMEGAMAX">     -1.00000000</i>
   <i name="DEG_THRESHOLD">      0.00200000</i>
  </separator>
  <separator name="orbital magnetization" >
   <i type="logical" name="NUCIND"> F  </i>
   <v name="MAGPOS">      0.00000000      0.00000000      0.00000000</v>
   <i type="logical" name="LNICSALL"> T  </i>
   <i type="logical" name="ORBITALMAG"> F  </i>
   <i type="logical" name="LMAGBLOCH"> F  </i>
   <i type="logical" name="LCHIMAG"> F  </i>
   <i type="logical" name="LGAUGE"> T  </i>
   <i type="int" name="MAGATOM">     0</i>
   <v name="MAGDIPOL">      0.00000000      0.00000000      0.00000000</v>
   <v name="AVECCONST">      0.00000000      0.00000000      0.00000000</v>
  </separator>
  <separator name="response functions" >
   <i type="logical" name="LADDER"> F  </i>
   <i type="logical" name="LFXC"> F  </i>
   <i type="logical" name="LHARTREE"> T  </i>
   <i type="int" name="IBSE">     0</i>
   <v type="int" name="KPOINT">    -1     0     0     0</v>
   <i type="logical" name="LTCTE"> F  </i>
   <i type="logical" name="LTETE"> F  </i>
   <i type="logical" name="LTRIPLET"> F  </i>
   <i type="logical" name="LFXCEPS"> F  </i>
   <i type="logical" name="LFXHEG"> F  </i>
   <i type="int" name="NATURALO">     0</i>
   <i type="logical" name="L2ORDER"> F  </i>
   <i type="logical" name="LUSEW"> F  </i>
   <i name="ENCUTGW">     -2.00000000</i>
   <i name="ENCUTGWSOFT">     -2.00000000</i>
   <i name="ENCUTLF">     -1.00000000</i>
   <i type="int" name="LMAXMP2">    -1</i>
   <i name="SCISSOR">      0.00000000</i>
   <i type="int" name="NOMEGA">     0</i>
   <i type="int" name="NOMEGAR">     0</i>
   <i type="int" name="NBANDSGW">    -1</i>
   <i type="int" name="NBANDSO">    -1</i>
   <i type="int" name="NBANDSV">    -1</i>
   <i type="int" name="NELM">     1</i>
   <i type="int" name="NELMHF">     1</i>
   <i type="int" name="DIM">     3</i>
   <i type="int" name="ANTIRES">     0</i>
   <i name="OMEGAMAX">    -30.00000000</i>
   <i name="OMEGAMIN">    -30.00000000</i>
   <i name="OMEGATL">   -200.00000000</i>
   <i type="int" name="OMEGAGRID">     0</i>
   <i name="CSHIFT">     -0.10000000</i>
   <i type="logical" name="SELFENERGY"> F  </i>
   <i type="logical" name="LSPECTRAL"> F  </i>
   <i type="logical" name="LSPECTRALGW"> F  </i>
   <i type="logical" name="LSINGLES"> F  </i>
   <i type="logical" name="LFERMIGW"> F  </i>
   <i type="logical" name="ODDONLYGW"> F  </i>
   <i type="logical" name="EVENONLYGW"> F  </i>
   <i type="int" name="NKREDLFX">     1</i>
   <i type="int" name="NKREDLFY">     1</i>
   <i type="int" name="NKREDLFZ">     1</i>
   <i type="int" name="MAXMEM">  1800</i>
   <i type="int" name="TELESCOPE">     0</i>
   <i type="int" name="TAUPAR">     1</i>
   <i type="int" name="OMEGAPAR">    -1</i>
   <i name="LAMBDA">      1.00000000</i>
  </separator>
  <separator name="External order field" >
   <i name="OFIELD_KAPPA">      0.00000000</i>
   <v name="OFIELD_K">      0.00000000      0.00000000      0.00000000</v>
   <i name="OFIELD_Q6_NEAR">      0.00000000</i>
   <i name="OFIELD_Q6_FAR">      0.00000000</i>
   <i name="OFIELD_A">      0.00000000</i>
  </separator>
 </parameters>
 <atominfo>
  <atoms>      13 </atoms>
  <types>       2 </types>
  <array name="atoms" >
   <dimension dim="1">ion</dimension>
   <field type="string">element</field>
   <field type="int">atomtype</field>
   <set>
    <rc><c>Au</c><c>   1</c></rc>
    <rc><c>Au</c><c>   1</c></rc>
    <rc><c>Au</c><c>   1</c></rc>
    <rc><c>Au</c><c>   1</c></rc>
    <rc><c>Au</c><c>   1</c></rc>
    <rc><c>Au</c><c>   1</c></rc>
    <rc><c>Au</c><c>   1</c></rc>
    <rc><c>Au</c><c>   1</c></rc>
    <rc><c>Au</c><c>   1</c></rc>
    <rc><c>Au</c><c>   1</c></rc>
    <rc><c>Au</c><c>   1</c></rc>
    <rc><c>Au</c><c>   1</c></rc>
    <rc><c>O </c><c>   2</c></rc>
   </set>
  </array>
  <array name="atomtypes" >
   <dimension dim="1">type</dimension>
   <field type="int">atomspertype</field>
   <field type="string">element</field>
   <field>mass</field>
   <field>valence</field>
   <field type="string">pseudopotential</field>
   <set>
    <rc><c>  12</c><c>Au</c><c>    196.96600000</c><c>     11.00000000</c><c>  PAW_PBE Au 04Oct2007                  </c></rc>
    <rc><c>   1</c><c>O </c><c>     16.00000000</c><c>      6.00000000</c><c>  PAW_PBE O 08Apr2002                   </c></rc>
   </set>
  </array>
 </atominfo>
 <structure name="initialpos" >
  <crystal>
   <varray name="basis" >
    <v>       5.88029999       0.00000000       0.00000000 </v>
    <v>       2.94015000       5.09248918       0.00000000 </v>
    <v>       0.00000000       0.00000000      24.80124484 </v>
   </varray>
   <i name="volume">    742.68230579 </i>
   <varray name="rec_basis" >
    <v>       0.17005935      -0.09818381       0.00000000 </v>
    <v>       0.00000000       0.19636762       0.00000000 </v>
    <v>       0.00000000       0.00000000       0.04032056 </v>
   </varray>
  </crystal>
  <varray name="positions" >
   <v>       0.16666667       0.16666667       0.40320557 </v>
   <v>       0.66666667       0.16666667       0.40320557 </v>
   <v>       0.16666667       0.66666667       0.40320557 </v>
   <v>       0.66666667       0.66666667       0.40320557 </v>
   <v>       0.83333333       0.33333333       0.50000000 </v>
   <v>       0.33333333       0.33333333       0.50000000 </v>
   <v>       0.83333333       0.83333333       0.50000000 </v>
   <v>       0.33333333       0.83333333       0.50000000 </v>
   <v>       0.00000000       0.00000000       0.59679443 </v>
   <v>       0.50000000       0.00000000       0.59679443 </v>
   <v>       0.00000000       0.50000000       0.59679443 </v>
   <v>       0.50000000       0.50000000       0.59679443 </v>
   <v>       0.16666667       0.16666667       0.64517910 </v>
  </varray>
 </structure>
 <calculation>
  <scstep>
   <time name="dav">    3.73    3.73</time>
   <time name="total">    3.89    3.90</time>
   <energy>
    <i name="alphaZ">    240.41329906 </i>
    <i name="ewald">  48662.31706664 </i>
    <i name="hartreedc"> -60389.23213054 </i>
    <i name="XCdc">    210.26784851 </i>
    <i name="pawpsdc">  10835.71951712 </i>
    <i name="pawaedc"> -10560.46976544 </i>
    <i name="eentropy">      0.00075639 </i>
    <i name="bandstr">    270.40270241 </i>
    <i name="atom">  11545.22942124 </i>
    <i name="e_fr_energy">    814.64871540 </i>
    <i name="e_wo_entrp">    814.64795901 </i>
    <i name="e_0_energy">    814.64846327 </i>
   </energy>
  </scstep>
  <scstep>
   <time name="dav">    4.35    4.37</time>
   <time name="total">    4.35    4.38</time>
   <energy>
    <i name="e_fr_energy">     -2.54061020 </i>
    <i name="e_wo_entrp">     -2.54046139 </i>
    <i name="e_0_energy">     -2.54056060 </i>
   </energy>
  </scstep>
  <scstep>
   <time name="dav">    4.95    4.95</time>
   <time name="total">    4.95    4.95</time>
   <energy>
    <i name="e_fr_energy">    -45.24757353 </i>
    <i name="e_wo_entrp">    -45.23820547 </i>
    <i name="e_0_energy">    -45.24445084 </i>
   </energy>
  </scstep>
  <scstep>
   <time name="dav">    4.40    4.40</time>
   <time name="total">    4.40    4.41</time>
   <energy>
    <i name="e_fr_energy">    -45.90942722 </i>
    <i name="e_wo_entrp">    -45.89939463 </i>
    <i name="e_0_energy">    -45.90608302 </i>
   </energy>
  </scstep>
  <scstep>
   <time name="dav">    4.72    4.74</time>
   <time name="total">    4.88    4.89</time>
   <energy>
    <i name="e_fr_energy">    -45.92309719 </i>
    <i name="e_wo_entrp">    -45.91303884 </i>
    <i name="e_0_energy">    -45.91974440 </i>
   </energy>
  </scstep>
  <scstep>
   <time name="dav">    4.55    4.55</time>
   <time name="total">    4.73    4.74</time>
   <energy>
    <i name="e_fr_energy">    -42.53231568 </i>
    <i name="e_wo_entrp">    -42.53380113 </i>
    <i name="e_0_energy">    -42.53281083 </i>
   </energy>
  </scstep>
  <scstep>
   <time name="dav">    4.79    4.80</time>
   <time name="total">    4.99    5.01</time>
   <energy>
    <i name="e_fr_energy">    -43.03909459 </i>
    <i name="e_wo_entrp">    -43.03296179 </i>
    <i name="e_0_energy">    -43.03705032 </i>
   </energy>
  </scstep>
  <scstep>
   <time name="dav">    4.24    4.25</time>
   <time name="total">    4.43    4.44</time>
   <energy>
    <i name="e_fr_energy">    -41.10017733 </i>
    <i name="e_wo_entrp">    -41.08645537 </i>
    <i name="e_0_energy">    -41.09560334 </i>
   </energy>
  </scstep>
  <scstep>
   <time name="dav">    3.88    3.88</time>
   <time name="total">    4.07    4.07</time>
   <energy>
    <i name="e_fr_energy">    -40.68801564 </i>
    <i name="e_wo_entrp">    -40.68497271 </i>
    <i name="e_0_energy">    -40.68700133 </i>
   </energy>
  </scstep>
  <scstep>
   <time name="dav">    3.89    3.89</time>
   <time name="total">    4.06    4.07</time>
   <energy>
    <i name="e_fr_energy">    -40.65842535 </i>
    <i name="e_wo_entrp">    -40.64817973 </i>
    <i name="e_0_energy">    -40.65501014 </i>
   </energy>
  </scstep>
  <scstep>
   <time name="dav">    4.17    4.17</time>
   <time name="total">    4.34    4.34</time>
   <energy>
    <i name="e_fr_energy">    -40.64211215 </i>
    <i name="e_wo_entrp">    -40.63312684 </i>
    <i name="e_0_energy">    -40.63911705 </i>
   </energy>
  </scstep>
  <scstep>
   <time name="dav">    3.97    3.97</time>
   <time name="total">    4.15    4.15</time>
   <energy>
    <i name="e_fr_energy">    -40.64205704 </i>
    <i name="e_wo_entrp">    -40.63348496 </i>
    <i name="e_0_energy">    -40.63919968 </i>
   </energy>
  </scstep>
  <scstep>
   <time name="dav">    4.25    4.26</time>
   <time name="total">    4.43    4.43</time>
   <energy>
    <i name="e_fr_energy">    -40.64271435 </i>
    <i name="e_wo_entrp">    -40.63421227 </i>
    <i name="e_0_energy">    -40.63988032 </i>
   </energy>
  </scstep>
  <scstep>
   <time name="dav">    3.59    3.59</time>
   <time name="total">    3.77    3.77</time>
   <energy>
    <i name="e_fr_energy">    -40.64321799 </i>
    <i name="e_wo_entrp">    -40.63451951 </i>
    <i name="e_0_energy">    -40.64031850 </i>
   </energy>
  </scstep>
  <scstep>
   <time name="dav">    3.34    3.34</time>
   <time name="total">    3.52    3.52</time>
   <energy>
    <i name="e_fr_energy">    -40.64364778 </i>
    <i name="e_wo_entrp">    -40.63494025 </i>
    <i name="e_0_energy">    -40.64074527 </i>
   </energy>
  </scstep>
  <scstep>
   <time name="dav">    3.26    3.26</time>
   <time name="total">    3.44    3.44</time>
   <energy>
    <i name="e_fr_energy">    -40.64395979 </i>
    <i name="e_wo_entrp">    -40.63525775 </i>
    <i name="e_0_energy">    -40.64105911 </i>
   </energy>
  </scstep>
  <scstep>
   <time name="dav">    3.24    3.24</time>
   <time name="total">    3.41    3.41</time>
   <energy>
    <i name="e_fr_energy">    -40.64429324 </i>
    <i name="e_wo_entrp">    -40.63556400 </i>
    <i name="e_0_energy">    -40.64138349 </i>
   </energy>
  </scstep>
  <scstep>
   <time name="dav">    3.22    3.22</time>
   <time name="total">    3.40    3.40</time>
   <energy>
    <i name="e_fr_energy">    -40.64458215 </i>
    <i name="e_wo_entrp">    -40.63585399 </i>
    <i name="e_0_energy">    -40.64167276 </i>
   </energy>
  </scstep>
  <scstep>
   <time name="dav">    2.90    2.90</time>
   <time name="total">    2.93    2.94</time>
   <energy>
    <i name="alphaZ">    240.41329906 </i>
    <i name="ewald">  48662.31706664 </i>
    <i name="hartreedc"> -60214.69330092 </i>
    <i name="XCdc">    205.20297526 </i>
    <i name="pawpsdc">  12594.21303539 </i>
    <i name="pawaedc"> -12346.24381185 </i>
    <i name="eentropy">     -0.00872814 </i>
    <i name="bandstr">   -727.07460613 </i>
    <i name="atom">  11545.22942124 </i>
    <i name="e_fr_energy">    -40.64464945 </i>
    <i name="e_wo_entrp">    -40.63592131 </i>
    <i name="e_0_energy">    -40.64174007 </i>
   </energy>
  </scstep>
  <structure>
   <crystal>
    <varray name="basis" >
     <v>       5.88029999       0.00000000       0.00000000 </v>
     <v>       2.94015000       5.09248918       0.00000000 </v>
     <v>       0.00000000       0.00000000      24.80124484 </v>
    </varray>
    <i name="volume">    742.68230579 </i>
    <varray name="rec_basis" >
     <v>       0.17005935      -0.09818381       0.00000000 </v>
     <v>       0.00000000       0.19636762       0.00000000 </v>
     <v>       0.00000000       0.00000000       0.04032056 </v>
    </varray>
   </crystal>
   <varray name="positions" >
    <v>       0.16666667       0.16666667       0.40320557 </v>
    <v>       0.66666667       0.16666667       0.40320557 </v>
    <v>       0.16666667       0.66666667       0.40320557 </v>
    <v>       0.66666667       0.66666667       0.40320557 </v>
    <v>       0.83333333       0.33333333       0.50000000 </v>
    <v>       0.33333333       0.33333333       0.50000000 </v>
    <v>       0.83333333       0.83333333       0.50000000 </v>
    <v>       0.33333333       0.83333333       0.50000000 </v>
    <v>       0.00000000       0.00000000       0.59679443 </v>
    <v>       0.50000000       0.00000000       0.59679443 </v>
    <v>       0.00000000       0.50000000       0.59679443 </v>
    <v>       0.50000000       0.50000000       0.59679443 </v>
    <v>       0.16666667       0.16666667       0.64517910 </v>
   </varray>
  </structure>
  <varray name="forces" >
   <v>       0.00000000       0.00000000       0.02306821 </v>
   <v>       0.00000000       0.01900761      -0.11477484 </v>
   <v>       0.01646107      -0.00950381      -0.11477484 </v>
   <v>      -0.01646107      -0.00950381      -0.11477484 </v>
   <v>      -0.05799012       0.03348061      -0.03739152 </v>
   <v>       0.05799012       0.03348061      -0.03739152 </v>
   <v>       0.00000000      -0.00000000       0.60249419 </v>
   <v>       0.00000000      -0.06696122      -0.03739152 </v>
   <v>      -1.47127932      -0.84944351      -0.25090187 </v>
   <v>       1.47127932      -0.84944351      -0.25090187 </v>
   <v>      -0.00000000       1.69888702      -0.25090187 </v>
   <v>       0.00000000       0.00000000      -0.43159084 </v>
   <v>       0.00000000       0.00000000       1.01523309 </v>
  </varray>
  <varray name="stress" >
   <v>     -12.23186778       0.00000000       0.00000000 </v>
   <v>       0.00000000     -12.23186778       0.00000000 </v>
   <v>       0.00000000       0.00000000       1.64724320 </v>
  </varray>
  <energy>
   <i name="e_fr_energy">    -40.64464945 </i>
   <i name="e_wo_entrp">    -40.64174007 </i>
   <i name="e_0_energy">     -0.00872814 </i>
  </energy>
  <time name="totalsc">   84.99   85.10</time>
 </calculation>
 <calculation>
  <scstep>
   <time name="dav">    3.43    3.43</time>
   <time name="total">    3.62    3.62</time>
   <energy>
    <i name="alphaZ">    240.41329906 </i>
    <i name="ewald">  48640.77541638 </i>
    <i name="hartreedc"> -60196.31432659 </i>
    <i name="XCdc">    205.01490009 </i>
    <i name="pawpsdc">  12594.25094756 </i>
    <i name="pawaedc"> -12346.28146003 </i>
    <i name="eentropy">     -0.00479069 </i>
    <i name="bandstr">   -723.76779321 </i>
    <i name="atom">  11545.22942124 </i>
    <i name="e_fr_energy">    -40.68438617 </i>
    <i name="e_wo_entrp">    -40.67959549 </i>
    <i name="e_0_energy">    -40.68278928 </i>
   </energy>
  </scstep>
  <scstep>
   <time name="dav">    3.87    3.87</time>
   <time name="total">    4.06    4.06</time>
   <energy>
    <i name="e_fr_energy">    -40.89541488 </i>
    <i name="e_wo_entrp">    -40.88491045 </i>
    <i name="e_0_energy">    -40.89191340 </i>
   </energy>
  </scstep>
  <scstep>
   <time name="dav">    3.67    3.67</time>
   <time name="total">    3.86    3.86</time>
   <energy>
    <i name="e_fr_energy">    -40.86045883 </i>
    <i name="e_wo_entrp">    -40.85407284 </i>
    <i name="e_0_energy">    -40.85833017 </i>
   </energy>
  </scstep>
  <scstep>
   <time name="dav">    4.53    4.53</time>
   <time name="total">    4.72    4.74</time>
   <energy>
    <i name="e_fr_energy">    -40.86318244 </i>
    <i name="e_wo_entrp">    -40.85356030 </i>
    <i name="e_0_energy">    -40.85997506 </i>
   </energy>
  </scstep>
  <scstep>
   <time name="dav">    4.64    4.64</time>
   <time name="total">    4.83    4.83</time>
   <energy>
    <i name="e_fr_energy">    -40.85110264 </i>
    <i name="e_wo_entrp">    -40.84460234 </i>
    <i name="e_0_energy">    -40.84893587 </i>
   </energy>
  </scstep>
  <scstep>
   <time name="dav">    4.96    4.96</time>
   <time name="total">    5.15    5.17</time>
   <energy>
    <i name="e_fr_energy">    -40.85137641 </i>
    <i name="e_wo_entrp">    -40.84488134 </i>
    <i name="e_0_energy">    -40.84921138 </i>
   </energy>
  </scstep>
  <scstep>
   <time name="dav">    4.62    4.63</time>
   <time name="total">    4.81    4.82</time>
   <energy>
    <i name="e_fr_energy">    -40.85106309 </i>
    <i name="e_wo_entrp">    -40.84448807 </i>
    <i name="e_0_energy">    -40.84887141 </i>
   </energy>
  </scstep>
  <scstep>
   <time name="dav">    3.42    3.43</time>
   <time name="total">    3.49    3.53</time>
   <energy>
    <i name="alphaZ">    240.41329906 </i>
    <i name="ewald">  48640.77541638 </i>
    <i name="hartreedc"> -60189.96651750 </i>
    <i name="XCdc">    204.94318244 </i>
    <i name="pawpsdc">  12535.24401883 </i>
    <i name="pawaedc"> -12286.96341345 </i>
    <i name="eentropy">     -0.00657166 </i>
    <i name="bandstr">   -730.51996149 </i>
    <i name="atom">  11545.22942124 </i>
    <i name="e_fr_energy">    -40.85112614 </i>
    <i name="e_wo_entrp">    -40.84455448 </i>
    <i name="e_0_energy">    -40.84893559 </i>
   </energy>
  </scstep>
  <structure>
   <crystal>
    <varray name="basis" >
     <v>       5.88029999       0.00000000       0.00000000 </v>
     <v>       2.94015000       5.09248918       0.00000000 </v>
     <v>       0.00000000       0.00000000      24.80124484 </v>
    </varray>
    <i name="volume">    742.68230579 </i>
    <varray name="rec_basis" >
     <v>       0.17005935      -0.09818381       0.00000000 </v>
     <v>       0.00000000       0.19636762       0.00000000 </v>
     <v>       0.00000000       0.00000000       0.04032056 </v>
    </varray>
   </crystal>
   <varray name="positions" >
    <v>       0.16666667       0.16666667       0.40325044 </v>
    <v>       0.66657663       0.16684673       0.40298231 </v>
    <v>       0.16684673       0.66657663       0.40298231 </v>
    <v>       0.66657663       0.66657663       0.40298231 </v>
    <v>       0.83269899       0.33365051       0.49992727 </v>
    <v>       0.33365051       0.33365051       0.49992727 </v>
    <v>       0.83333333       0.83333333       0.50117195 </v>
    <v>       0.33365051       0.83269899       0.49992727 </v>
    <v>      -0.00804703      -0.00804703       0.59630639 </v>
    <v>       0.51609406      -0.00804703       0.59630639 </v>
    <v>      -0.00804703       0.51609406       0.59630639 </v>
    <v>       0.50000000       0.50000000       0.59595491 </v>
    <v>       0.16666667       0.16666667       0.64715390 </v>
   </varray>
  </structure>
  <varray name="forces" >
   <v>       0.00000000       0.00000000       0.03502979 </v>
   <v>       0.00000000      -0.02395245      -0.07404955 </v>
   <v>      -0.02074343       0.01197622      -0.07404955 </v>
   <v>       0.02074343       0.01197622      -0.07404955 </v>
   <v>       0.01599395      -0.00923411      -0.00108512 </v>
   <v>      -0.01599395      -0.00923411      -0.00108512 </v>
   <v>       0.00000000       0.00000000       0.02956596 </v>
   <v>       0.00000000       0.01846823      -0.00108512 </v>
   <v>       0.14701918       0.08488156       0.40860767 </v>
   <v>      -0.14701918       0.08488156       0.40860767 </v>
   <v>      -0.00000000      -0.16976312       0.40860767 </v>
   <v>       0.00000000       0.00000000      -0.36651064 </v>
   <v>       0.00000000      -0.00000000      -0.69850413 </v>
  </varray>
  <varray name="stress" >
   <v>     -15.38410696       0.00000000       0.00000000 </v>
   <v>       0.00000000     -15.38410696       0.00000000 </v>
   <v>       0.00000000       0.00000000      -1.92525678 </v>
  </varray>
  <energy>
   <i name="e_fr_energy">    -40.85112614 </i>
   <i name="e_wo_entrp">    -40.84893559 </i>
   <i name="e_0_energy">     -0.00657166 </i>
  </energy>
  <time name="totalsc">   42.55   42.66</time>
 </calculation>
 <calculation>
  <scstep>
   <time name="dav">    4.17    4.21</time>
   <time name="total">    4.36    4.40</time>
   <energy>
    <i name="alphaZ">    240.41329906 </i>
    <i name="ewald">  48642.45618572 </i>
    <i name="hartreedc"> -60191.21480132 </i>
    <i name="XCdc">    204.95603124 </i>
    <i name="pawpsdc">  12534.38434618 </i>
    <i name="pawaedc"> -12286.10456322 </i>
    <i name="eentropy">     -0.00719746 </i>
    <i name="bandstr">   -730.96599312 </i>
    <i name="atom">  11545.22942124 </i>
    <i name="e_fr_energy">    -40.85327169 </i>
    <i name="e_wo_entrp">    -40.84607423 </i>
    <i name="e_0_energy">    -40.85087253 </i>
   </energy>
  </scstep>
  <scstep>
   <time name="dav">    4.71    4.71</time>
   <time name="total">    4.90    4.90</time>
   <energy>
    <i name="e_fr_energy">    -40.85803178 </i>
    <i name="e_wo_entrp">    -40.85202250 </i>
    <i name="e_0_energy">    -40.85602869 </i>
   </energy>
  </scstep>
  <scstep>
   <time name="dav">    4.46    4.46</time>
   <time name="total">    4.65    4.65</time>
   <energy>
    <i name="e_fr_energy">    -40.85697137 </i>
    <i name="e_wo_entrp">    -40.85024084 </i>
    <i name="e_0_energy">    -40.85472786 </i>
   </energy>
  </scstep>
  <scstep>
   <time name="dav">    4.44    4.47</time>
   <time name="total">    4.63    4.67</time>
   <energy>
    <i name="e_fr_energy">    -40.85692377 </i>
    <i name="e_wo_entrp">    -40.85042797 </i>
    <i name="e_0_energy">    -40.85475851 </i>
   </energy>
  </scstep>
  <scstep>
   <time name="dav">    4.55    4.55</time>
   <time name="total">    4.58    4.59</time>
   <energy>
    <i name="alphaZ">    240.41329906 </i>
    <i name="ewald">  48642.45618572 </i>
    <i name="hartreedc"> -60191.75133054 </i>
    <i name="XCdc">    204.96579711 </i>
    <i name="pawpsdc">  12538.26943374 </i>
    <i name="pawaedc"> -12290.00936934 </i>
    <i name="eentropy">     -0.00679344 </i>
    <i name="bandstr">   -730.42349195 </i>
    <i name="atom">  11545.22942124 </i>
    <i name="e_fr_energy">    -40.85684841 </i>
    <i name="e_wo_entrp">    -40.85005496 </i>
    <i name="e_0_energy">    -40.85458393 </i>
   </energy>
  </scstep>
  <structure>
   <crystal>
    <varray name="basis" >
     <v>       5.88029999       0.00000000       0.00000000 </v>
     <v>       2.94015000       5.09248918       0.00000000 </v>
     <v>       0.00000000       0.00000000      24.80124484 </v>
    </varray>
    <i name="volume">    742.68230579 </i>
    <varray name="rec_basis" >
     <v>       0.17005935      -0.09818381       0.00000000 </v>
     <v>       0.00000000       0.19636762       0.00000000 </v>
     <v>       0.00000000       0.00000000       0.04032056 </v>
    </varray>
   </crystal>
   <varray name="positions" >
    <v>       0.16666667       0.16666667       0.40324390 </v>
    <v>       0.66658976       0.16682047       0.40301487 </v>
    <v>       0.16682047       0.66658976       0.40301487 </v>
    <v>       0.66658976       0.66658976       0.40301487 </v>
    <v>       0.83279150       0.33360425       0.49993787 </v>
    <v>       0.33360425       0.33360425       0.49993787 </v>
    <v>       0.83333333       0.83333333       0.50100104 </v>
    <v>       0.33360425       0.83279150       0.49993787 </v>
    <v>      -0.00687350      -0.00687350       0.59637756 </v>
    <v>       0.51374699      -0.00687350       0.59637756 </v>
    <v>      -0.00687350       0.51374699       0.59637756 </v>
    <v>       0.50000000       0.50000000       0.59607735 </v>
    <v>       0.16666667       0.16666667       0.64686591 </v>
   </varray>
  </structure>
  <varray name="forces" >
   <v>      -0.00000000       0.00000000       0.03578240 </v>
   <v>      -0.00000000      -0.01752630      -0.07974034 </v>
   <v>      -0.01517822       0.00876315      -0.07974034 </v>
   <v>       0.01517822       0.00876315      -0.07974034 </v>
   <v>       0.00466515      -0.00269343      -0.00350926 </v>
   <v>      -0.00466515      -0.00269343      -0.00350926 </v>
   <v>      -0.00000000       0.00000000       0.12962758 </v>
   <v>      -0.00000000       0.00538685      -0.00350926 </v>
   <v>      -0.09233957      -0.05331228       0.32053123 </v>
   <v>       0.09233957      -0.05331228       0.32053123 </v>
   <v>       0.00000000       0.10662455       0.32053123 </v>
   <v>      -0.00000000       0.00000000      -0.37817477 </v>
   <v>      -0.00000000       0.00000000      -0.49908007 </v>
  </varray>
  <varray name="stress" >
   <v>     -15.24421341       0.00000000       0.00000000 </v>
   <v>       0.00000000     -15.24421341      -0.00000000 </v>
   <v>       0.00000000      -0.00000000      -1.61337778 </v>
  </varray>
  <energy>
   <i name="e_fr_energy">    -40.85684841 </i>
   <i name="e_wo_entrp">    -40.85458393 </i>
   <i name="e_0_energy">     -0.00679344 </i>
  </energy>
  <time name="totalsc">   31.12   31.34</time>
 </calculation>
 <calculation>
  <scstep>
   <time name="dav">    4.16    4.17</time>
   <time name="total">    4.35    4.36</time>
   <energy>
    <i name="alphaZ">    240.41329906 </i>
    <i name="ewald">  48606.34613913 </i>
    <i name="hartreedc"> -60155.25917744 </i>
    <i name="XCdc">    204.97165782 </i>
    <i name="pawpsdc">  12538.16610994 </i>
    <i name="pawaedc"> -12289.90512926 </i>
    <i name="eentropy">     -0.00617812 </i>
    <i name="bandstr">   -730.83210908 </i>
    <i name="atom">  11545.22942124 </i>
    <i name="e_fr_energy">    -40.87596672 </i>
    <i name="e_wo_entrp">    -40.86978859 </i>
    <i name="e_0_energy">    -40.87390734 </i>
   </energy>
  </scstep>
  <scstep>
   <time name="dav">    4.73    4.77</time>
   <time name="total">    4.93    4.97</time>
   <energy>
    <i name="e_fr_energy">    -40.89021000 </i>
    <i name="e_wo_entrp">    -40.88422654 </i>
    <i name="e_0_energy">    -40.88821551 </i>
   </energy>
  </scstep>
  <scstep>
   <time name="dav">    5.06    5.06</time>
   <time name="total">    5.25    5.25</time>
   <energy>
    <i name="e_fr_energy">    -40.88961290 </i>
    <i name="e_wo_entrp">    -40.88369206 </i>
    <i name="e_0_energy">    -40.88763928 </i>
   </energy>
  </scstep>
  <scstep>
   <time name="dav">    4.56    4.56</time>
   <time name="total">    4.85    4.95</time>
   <energy>
    <i name="e_fr_energy">    -40.88962202 </i>
    <i name="e_wo_entrp">    -40.88337580 </i>
    <i name="e_0_energy">    -40.88753995 </i>
   </energy>
  </scstep>
  <scstep>
   <time name="dav">    4.06    4.10</time>
   <time name="total">    4.42    4.53</time>
   <energy>
    <i name="e_fr_energy">    -40.88944817 </i>
    <i name="e_wo_entrp">    -40.88359440 </i>
    <i name="e_0_energy">    -40.88749692 </i>
   </energy>
  </scstep>
  <scstep>
   <time name="dav">    3.38    3.38</time>
   <time name="total">    3.73    3.86</time>
   <energy>
    <i name="alphaZ">    240.41329906 </i>
    <i name="ewald">  48606.34613913 </i>
    <i name="hartreedc"> -60156.45348979 </i>
    <i name="XCdc">    204.98723927 </i>
    <i name="pawpsdc">  12544.14388589 </i>
    <i name="pawaedc"> -12295.95576398 </i>
    <i name="eentropy">     -0.00599730 </i>
    <i name="bandstr">   -729.59415768 </i>
    <i name="atom">  11545.22942124 </i>
    <i name="e_fr_energy">    -40.88942414 </i>
    <i name="e_wo_entrp">    -40.88342684 </i>
    <i name="e_0_energy">    -40.88742504 </i>
   </energy>
  </scstep>
  <structure>
   <crystal>
    <varray name="basis" >
     <v>       5.88029999       0.00000000       0.00000000 </v>
     <v>       2.94015000       5.09248918       0.00000000 </v>
     <v>       0.00000000       0.00000000      24.80124484 </v>
    </varray>
    <i name="volume">    742.68230579 </i>
    <varray name="rec_basis" >
     <v>       0.17005935      -0.09818381       0.00000000 </v>
     <v>       0.00000000       0.19636762       0.00000000 </v>
     <v>       0.00000000       0.00000000       0.04032056 </v>
    </varray>
   </crystal>
   <varray name="positions" >
    <v>       0.16666667       0.16666667       0.40331441 </v>
    <v>       0.66666445       0.16667111       0.40284963 </v>
    <v>       0.16667111       0.66666445       0.40284963 </v>
    <v>       0.66666445       0.66666445       0.40284963 </v>
    <v>       0.83279939       0.33360031       0.49992647 </v>
    <v>       0.33360031       0.33360031       0.49992647 </v>
    <v>       0.83333333       0.83333333       0.50132279 </v>
    <v>       0.33360031       0.83279939       0.49992647 </v>
    <v>      -0.00789219      -0.00789219       0.59695082 </v>
    <v>       0.51578439      -0.00789219       0.59695082 </v>
    <v>      -0.00789219       0.51578439       0.59695082 </v>
    <v>       0.50000000       0.50000000       0.59530806 </v>
    <v>       0.16666667       0.16666667       0.64605310 </v>
   </varray>
  </structure>
  <varray name="forces" >
   <v>      -0.00000000      -0.00000000       0.03792617 </v>
   <v>      -0.00000000      -0.01873354      -0.06261317 </v>
   <v>      -0.01622372       0.00936677      -0.06261317 </v>
   <v>       0.01622372       0.00936677      -0.06261317 </v>
   <v>       0.02595518      -0.01498523      -0.00397913 </v>
   <v>      -0.02595518      -0.01498523      -0.00397913 </v>
   <v>      -0.00000000      -0.00000000       0.07411128 </v>
   <v>       0.00000000       0.02997046      -0.00397913 </v>
   <v>      -0.04418269      -0.02550889       0.27228764 </v>
   <v>       0.04418269      -0.02550889       0.27228764 </v>
   <v>      -0.00000000       0.05101778       0.27228764 </v>
   <v>      -0.00000000      -0.00000000      -0.33741840 </v>
   <v>      -0.00000000      -0.00000000      -0.39170510 </v>
  </varray>
  <varray name="stress" >
   <v>     -14.72789774       0.00000000       0.00000000 </v>
   <v>       0.00000000     -14.72789774       0.00000000 </v>
   <v>       0.00000000       0.00000000      -1.44717047 </v>
  </varray>
  <energy>
   <i name="e_fr_energy">    -40.88942414 </i>
   <i name="e_wo_entrp">    -40.88742504 </i>
   <i name="e_0_energy">     -0.00599730 </i>
  </energy>
  <time name="totalsc">   35.53   36.04</time>
 </calculation>
 <calculation>
  <scstep>
   <time name="dav">    4.19    4.19</time>
   <time name="total">    4.38    4.38</time>
   <energy>
    <i name="alphaZ">    240.41329906 </i>
    <i name="ewald">  48494.95774405 </i>
    <i name="hartreedc"> -60044.00123943 </i>
    <i name="XCdc">    205.02096885 </i>
    <i name="pawpsdc">  12544.10904247 </i>
    <i name="pawaedc"> -12295.92216397 </i>
    <i name="eentropy">     -0.00495356 </i>
    <i name="bandstr">   -730.62113227 </i>
    <i name="atom">  11545.22942124 </i>
    <i name="e_fr_energy">    -40.81901354 </i>
    <i name="e_wo_entrp">    -40.81405998 </i>
    <i name="e_0_energy">    -40.81736236 </i>
   </energy>
  </scstep>
  <scstep>
   <time name="dav">    4.83    4.83</time>
   <time name="total">    5.02    5.03</time>
   <energy>
    <i name="e_fr_energy">    -40.94817076 </i>
    <i name="e_wo_entrp">    -40.94350529 </i>
    <i name="e_0_energy">    -40.94661561 </i>
   </energy>
  </scstep>
  <scstep>
   <time name="dav">    4.96    4.96</time>
   <time name="total">    5.15    5.15</time>
   <energy>
    <i name="e_fr_energy">    -40.94261599 </i>
    <i name="e_wo_entrp">    -40.93787354 </i>
    <i name="e_0_energy">    -40.94103518 </i>
   </energy>
  </scstep>
  <scstep>
   <time name="dav">    4.55    4.56</time>
   <time name="total">    4.73    4.75</time>
   <energy>
    <i name="e_fr_energy">    -40.94124251 </i>
    <i name="e_wo_entrp">    -40.93633294 </i>
    <i name="e_0_energy">    -40.93960598 </i>
   </energy>
  </scstep>
  <scstep>
   <time name="dav">    4.59    4.60</time>
   <time name="total">    4.78    4.80</time>
   <energy>
    <i name="e_fr_energy">    -40.94079293 </i>
    <i name="e_wo_entrp">    -40.93603529 </i>
    <i name="e_0_energy">    -40.93920705 </i>
   </energy>
  </scstep>
  <scstep>
   <time name="dav">    4.48    4.50</time>
   <time name="total">    4.67    4.69</time>
   <energy>
    <i name="e_fr_energy">    -40.94053895 </i>
    <i name="e_wo_entrp">    -40.93575457 </i>
    <i name="e_0_energy">    -40.93894416 </i>
   </energy>
  </scstep>
  <scstep>
   <time name="dav">    4.22    4.23</time>
   <time name="total">    4.25    4.27</time>
   <energy>
    <i name="alphaZ">    240.41329906 </i>
    <i name="ewald">  48494.95774405 </i>
    <i name="hartreedc"> -60048.05723336 </i>
    <i name="XCdc">    205.07034115 </i>
    <i name="pawpsdc">  12568.13746647 </i>
    <i name="pawaedc"> -12320.22259714 </i>
    <i name="eentropy">     -0.00480923 </i>
    <i name="bandstr">   -726.46415803 </i>
    <i name="atom">  11545.22942124 </i>
    <i name="e_fr_energy">    -40.94052578 </i>
    <i name="e_wo_entrp">    -40.93571655 </i>
    <i name="e_0_energy">    -40.93892270 </i>
   </energy>
  </scstep>
  <structure>
   <crystal>
    <varray name="basis" >
     <v>       5.88029999       0.00000000       0.00000000 </v>
     <v>       2.94015000       5.09248918       0.00000000 </v>
     <v>       0.00000000       0.00000000      24.80124484 </v>
    </varray>
    <i name="volume">    742.68230579 </i>
    <varray name="rec_basis" >
     <v>       0.17005935      -0.09818381       0.00000000 </v>
     <v>       0.00000000       0.19636762       0.00000000 </v>
     <v>       0.00000000       0.00000000       0.04032056 </v>
    </varray>
   </crystal>
   <varray name="positions" >
    <v>       0.16666667       0.16666667       0.40352597 </v>
    <v>       0.66688850       0.16622301       0.40235389 </v>
    <v>       0.16622301       0.66688850       0.40235389 </v>
    <v>       0.66688850       0.66688850       0.40235389 </v>
    <v>       0.83282306       0.33358847       0.49989226 </v>
    <v>       0.33358847       0.33358847       0.49989226 </v>
    <v>       0.83333333       0.83333333       0.50228803 </v>
    <v>       0.33358847       0.83282306       0.49989226 </v>
    <v>      -0.01094829      -0.01094829       0.59867059 </v>
    <v>       0.52189658      -0.01094829       0.59867059 </v>
    <v>      -0.01094829       0.52189658       0.59867059 </v>
    <v>       0.50000000       0.50000000       0.59300021 </v>
    <v>       0.16666667       0.16666667       0.64361466 </v>
   </varray>
  </structure>
  <varray name="forces" >
   <v>      -0.00000000       0.00000000       0.05208728 </v>
   <v>      -0.00000000      -0.01861199      -0.01218511 </v>
   <v>      -0.01611846       0.00930600      -0.01218511 </v>
   <v>       0.01611846       0.00930600      -0.01218511 </v>
   <v>       0.09136827      -0.05275150      -0.02763746 </v>
   <v>      -0.09136827      -0.05275150      -0.02763746 </v>
   <v>      -0.00000000       0.00000000      -0.09986914 </v>
   <v>       0.00000000       0.10550299      -0.02763746 </v>
   <v>       0.14809867       0.08550481       0.14066495 </v>
   <v>      -0.14809867       0.08550481       0.14066495 </v>
   <v>       0.00000000      -0.17100961       0.14066495 </v>
   <v>      -0.00000000       0.00000000      -0.17646083 </v>
   <v>      -0.00000000       0.00000000      -0.07828445 </v>
  </varray>
  <varray name="stress" >
   <v>     -12.85761571       0.00000000      -0.00000000 </v>
   <v>       0.00000000     -12.85761571       0.00000000 </v>
   <v>       0.00000000       0.00000000      -1.03346894 </v>
  </varray>
  <energy>
   <i name="e_fr_energy">    -40.94052578 </i>
   <i name="e_wo_entrp">    -40.93892270 </i>
   <i name="e_0_energy">     -0.00480923 </i>
  </energy>
  <time name="totalsc">   41.00   41.17</time>
 </calculation>
 <calculation>
  <scstep>
   <time name="dav">    4.15    4.16</time>
   <time name="total">    4.34    4.35</time>
   <energy>
    <i name="alphaZ">    240.41329906 </i>
    <i name="ewald">  48470.32318316 </i>
    <i name="hartreedc"> -60023.25326948 </i>
    <i name="XCdc">    205.08097235 </i>
    <i name="pawpsdc">  12567.75503969 </i>
    <i name="pawaedc"> -12319.83963659 </i>
    <i name="eentropy">     -0.00488573 </i>
    <i name="bandstr">   -726.64085635 </i>
    <i name="atom">  11545.22942124 </i>
    <i name="e_fr_energy">    -40.93673265 </i>
    <i name="e_wo_entrp">    -40.93184692 </i>
    <i name="e_0_energy">    -40.93510407 </i>
   </energy>
  </scstep>
  <scstep>
   <time name="dav">    4.91    4.91</time>
   <time name="total">    5.10    5.11</time>
   <energy>
    <i name="e_fr_energy">    -40.94268663 </i>
    <i name="e_wo_entrp">    -40.93792346 </i>
    <i name="e_0_energy">    -40.94109891 </i>
   </energy>
  </scstep>
  <scstep>
   <time name="dav">    5.13    5.13</time>
   <time name="total">    5.32    5.32</time>
   <energy>
    <i name="e_fr_energy">    -40.94247095 </i>
    <i name="e_wo_entrp">    -40.93754666 </i>
    <i name="e_0_energy">    -40.94082952 </i>
   </energy>
  </scstep>
  <scstep>
   <time name="dav">    5.29    5.37</time>
   <time name="total">    5.48    5.56</time>
   <energy>
    <i name="e_fr_energy">    -40.94235485 </i>
    <i name="e_wo_entrp">    -40.93754056 </i>
    <i name="e_0_energy">    -40.94075009 </i>
   </energy>
  </scstep>
  <scstep>
   <time name="dav">    4.39    4.40</time>
   <time name="total">    4.43    4.44</time>
   <energy>
    <i name="alphaZ">    240.41329906 </i>
    <i name="ewald">  48470.32318316 </i>
    <i name="hartreedc"> -60024.48570869 </i>
    <i name="XCdc">    205.09310444 </i>
    <i name="pawpsdc">  12572.94501509 </i>
    <i name="pawaedc"> -12325.09262044 </i>
    <i name="eentropy">     -0.00485714 </i>
    <i name="bandstr">   -725.36315086 </i>
    <i name="atom">  11545.22942124 </i>
    <i name="e_fr_energy">    -40.94231412 </i>
    <i name="e_wo_entrp">    -40.93745698 </i>
    <i name="e_0_energy">    -40.94069508 </i>
   </energy>
  </scstep>
  <structure>
   <crystal>
    <varray name="basis" >
     <v>       5.88029999       0.00000000       0.00000000 </v>
     <v>       2.94015000       5.09248918       0.00000000 </v>
     <v>       0.00000000       0.00000000      24.80124484 </v>
    </varray>
    <i name="volume">    742.68230579 </i>
    <varray name="rec_basis" >
     <v>       0.17005935      -0.09818381       0.00000000 </v>
     <v>       0.00000000       0.19636762       0.00000000 </v>
     <v>       0.00000000       0.00000000       0.04032056 </v>
    </varray>
   </crystal>
   <varray name="positions" >
    <v>       0.16666667       0.16666667       0.40357157 </v>
    <v>       0.66693678       0.16612643       0.40224705 </v>
    <v>       0.16612643       0.66693678       0.40224705 </v>
    <v>       0.66693678       0.66693678       0.40224705 </v>
    <v>       0.83282816       0.33358592       0.49988489 </v>
    <v>       0.33358592       0.33358592       0.49988489 </v>
    <v>       0.83333333       0.83333333       0.50249606 </v>
    <v>       0.33358592       0.83282816       0.49988489 </v>
    <v>      -0.01160695      -0.01160695       0.59904124 </v>
    <v>       0.52321391      -0.01160695       0.59904124 </v>
    <v>      -0.01160695       0.52321391       0.59904124 </v>
    <v>       0.50000000       0.50000000       0.59250281 </v>
    <v>       0.16666667       0.16666667       0.64308912 </v>
   </varray>
  </structure>
  <varray name="forces" >
   <v>       0.00000000       0.00000000       0.05489103 </v>
   <v>       0.00000000      -0.01777046       0.00122458 </v>
   <v>      -0.01538967       0.00888523       0.00122458 </v>
   <v>       0.01538967       0.00888523       0.00122458 </v>
   <v>       0.10588200      -0.06113100      -0.03724440 </v>
   <v>      -0.10588200      -0.06113100      -0.03724440 </v>
   <v>       0.00000000       0.00000000      -0.13772783 </v>
   <v>       0.00000000       0.12226201      -0.03724440 </v>
   <v>       0.19886229       0.11481320       0.11828080 </v>
   <v>      -0.19886229       0.11481320       0.11828080 </v>
   <v>      -0.00000000      -0.22962640       0.11828080 </v>
   <v>       0.00000000      -0.00000000      -0.14036405 </v>
   <v>       0.00000000       0.00000000      -0.02358208 </v>
  </varray>
  <varray name="stress" >
   <v>     -12.35074923       0.00000000       0.00000000 </v>
   <v>       0.00000000     -12.35074923      -0.00000000 </v>
   <v>       0.00000000       0.00000000      -0.86674370 </v>
  </varray>
  <energy>
   <i name="e_fr_energy">    -40.94231412 </i>
   <i name="e_wo_entrp">    -40.94069508 </i>
   <i name="e_0_energy">     -0.00485714 </i>
  </energy>
  <time name="totalsc">   32.69   32.82</time>
 </calculation>
 <calculation>
  <scstep>
   <time name="dav">    4.16    4.17</time>
   <time name="total">    4.37    4.37</time>
   <energy>
    <i name="alphaZ">    240.41329906 </i>
    <i name="ewald">  48431.39811395 </i>
    <i name="hartreedc"> -59985.23024666 </i>
    <i name="XCdc">    205.10965105 </i>
    <i name="pawpsdc">  12573.06237832 </i>
    <i name="pawaedc"> -12325.21303571 </i>
    <i name="eentropy">     -0.00442114 </i>
    <i name="bandstr">   -725.69618010 </i>
    <i name="atom">  11545.22942124 </i>
    <i name="e_fr_energy">    -40.93101999 </i>
    <i name="e_wo_entrp">    -40.92659885 </i>
    <i name="e_0_energy">    -40.92954628 </i>
   </energy>
  </scstep>
  <scstep>
   <time name="dav">    4.68    4.69</time>
   <time name="total">    4.87    4.88</time>
   <energy>
    <i name="e_fr_energy">    -40.95017197 </i>
    <i name="e_wo_entrp">    -40.94501882 </i>
    <i name="e_0_energy">    -40.94845425 </i>
   </energy>
  </scstep>
  <scstep>
   <time name="dav">    4.43    4.44</time>
   <time name="total">    4.62    4.63</time>
   <energy>
    <i name="e_fr_energy">    -40.94778611 </i>
    <i name="e_wo_entrp">    -40.94311058 </i>
    <i name="e_0_energy">    -40.94622760 </i>
   </energy>
  </scstep>
  <scstep>
   <time name="dav">    4.39    4.39</time>
   <time name="total">    4.57    4.59</time>
   <energy>
    <i name="e_fr_energy">    -40.94725381 </i>
    <i name="e_wo_entrp">    -40.94237835 </i>
    <i name="e_0_energy">    -40.94562866 </i>
   </energy>
  </scstep>
  <scstep>
   <time name="dav">    4.59    4.60</time>
   <time name="total">    4.78    4.80</time>
   <energy>
    <i name="e_fr_energy">    -40.94695395 </i>
    <i name="e_wo_entrp">    -40.94217045 </i>
    <i name="e_0_energy">    -40.94535945 </i>
   </energy>
  </scstep>
  <scstep>
   <time name="dav">    4.51    4.52</time>
   <time name="total">    4.55    4.56</time>
   <energy>
    <i name="alphaZ">    240.41329906 </i>
    <i name="ewald">  48431.39811395 </i>
    <i name="hartreedc"> -59986.98934758 </i>
    <i name="XCdc">    205.12992004 </i>
    <i name="pawpsdc">  12581.71604974 </i>
    <i name="pawaedc"> -12333.93273052 </i>
    <i name="eentropy">     -0.00471701 </i>
    <i name="bandstr">   -723.90695528 </i>
    <i name="atom">  11545.22942124 </i>
    <i name="e_fr_energy">    -40.94694636 </i>
    <i name="e_wo_entrp">    -40.94222935 </i>
    <i name="e_0_energy">    -40.94537402 </i>
   </energy>
  </scstep>
  <structure>
   <crystal>
    <varray name="basis" >
     <v>       5.88029999       0.00000000       0.00000000 </v>
     <v>       2.94015000       5.09248918       0.00000000 </v>
     <v>       0.00000000       0.00000000      24.80124484 </v>
    </varray>
    <i name="volume">    742.68230579 </i>
    <varray name="rec_basis" >
     <v>       0.17005935      -0.09818381       0.00000000 </v>
     <v>       0.00000000       0.19636762       0.00000000 </v>
     <v>       0.00000000       0.00000000       0.04032056 </v>
    </varray>
   </crystal>
   <varray name="positions" >
    <v>       0.16666667       0.16666667       0.40378241 </v>
    <v>       0.66711155       0.16577691       0.40217704 </v>
    <v>       0.16577691       0.66711155       0.40217704 </v>
    <v>       0.66711155       0.66711155       0.40217704 </v>
    <v>       0.83477621       0.33261189       0.49975815 </v>
    <v>       0.33261189       0.33261189       0.49975815 </v>
    <v>       0.83333333       0.83333333       0.50219038 </v>
    <v>       0.33261189       0.83477621       0.49975815 </v>
    <v>      -0.01023714      -0.01023714       0.59968424 </v>
    <v>       0.52047428      -0.01023714       0.59968424 </v>
    <v>      -0.01023714       0.52047428       0.59968424 </v>
    <v>       0.50000000       0.50000000       0.59169990 </v>
    <v>       0.16666667       0.16666667       0.64264809 </v>
   </varray>
  </structure>
  <varray name="forces" >
   <v>      -0.00000000      -0.00000000       0.00726005 </v>
   <v>      -0.00000000       0.00636726      -0.00536024 </v>
   <v>       0.00551421      -0.00318363      -0.00536024 </v>
   <v>      -0.00551421      -0.00318363      -0.00536024 </v>
   <v>       0.03244088      -0.01872975      -0.02456680 </v>
   <v>      -0.03244088      -0.01872975      -0.02456680 </v>
   <v>      -0.00000000       0.00000000       0.02675019 </v>
   <v>      -0.00000000       0.03745950      -0.02456680 </v>
   <v>      -0.23472057      -0.13551599      -0.06332014 </v>
   <v>       0.23472057      -0.13551599      -0.06332014 </v>
   <v>      -0.00000000       0.27103197      -0.06332014 </v>
   <v>      -0.00000000      -0.00000000      -0.11700639 </v>
   <v>      -0.00000000       0.00000000       0.36273770 </v>
  </varray>
  <varray name="stress" >
   <v>     -12.10667433       0.00000000       0.00000000 </v>
   <v>       0.00000000     -12.10667433       0.00000000 </v>
   <v>       0.00000000       0.00000000      -0.49050924 </v>
  </varray>
  <energy>
   <i name="e_fr_energy">    -40.94694636 </i>
   <i name="e_wo_entrp">    -40.94537402 </i>
   <i name="e_0_energy">     -0.00471701 </i>
  </energy>
  <time name="totalsc">   34.59   34.71</time>
 </calculation>
 <calculation>
  <scstep>
   <time name="dav">    4.11    4.11</time>
   <time name="total">    4.30    4.30</time>
   <energy>
    <i name="alphaZ">    240.41329906 </i>
    <i name="ewald">  48446.30861840 </i>
    <i name="hartreedc"> -60002.12618116 </i>
    <i name="XCdc">    205.12114357 </i>
    <i name="pawpsdc">  12581.63862784 </i>
    <i name="pawaedc"> -12333.85424606 </i>
    <i name="eentropy">     -0.00491500 </i>
    <i name="bandstr">   -723.67323514 </i>
    <i name="atom">  11545.22942124 </i>
    <i name="e_fr_energy">    -40.94746725 </i>
    <i name="e_wo_entrp">    -40.94255225 </i>
    <i name="e_0_energy">    -40.94582892 </i>
   </energy>
  </scstep>
  <scstep>
   <time name="dav">    4.57    4.57</time>
   <time name="total">    4.76    4.78</time>
   <energy>
    <i name="e_fr_energy">    -40.95019892 </i>
    <i name="e_wo_entrp">    -40.94554336 </i>
    <i name="e_0_energy">    -40.94864707 </i>
   </energy>
  </scstep>
  <scstep>
   <time name="dav">    3.71    3.71</time>
   <time name="total">    3.90    3.91</time>
   <energy>
    <i name="e_fr_energy">    -40.94985500 </i>
    <i name="e_wo_entrp">    -40.94503972 </i>
    <i name="e_0_energy">    -40.94824990 </i>
   </energy>
  </scstep>
  <scstep>
   <time name="dav">    3.69    3.69</time>
   <time name="total">    3.73    3.73</time>
   <energy>
    <i name="alphaZ">    240.41329906 </i>
    <i name="ewald">  48446.30861840 </i>
    <i name="hartreedc"> -60001.81989729 </i>
    <i name="XCdc">    205.11803233 </i>
    <i name="pawpsdc">  12579.52424273 </i>
    <i name="pawaedc"> -12331.71403233 </i>
    <i name="eentropy">     -0.00476053 </i>
    <i name="bandstr">   -724.00468285 </i>
    <i name="atom">  11545.22942124 </i>
    <i name="e_fr_energy">    -40.94975924 </i>
    <i name="e_wo_entrp">    -40.94499871 </i>
    <i name="e_0_energy">    -40.94817240 </i>
   </energy>
  </scstep>
  <structure>
   <crystal>
    <varray name="basis" >
     <v>       5.88029999       0.00000000       0.00000000 </v>
     <v>       2.94015000       5.09248918       0.00000000 </v>
     <v>       0.00000000       0.00000000      24.80124484 </v>
    </varray>
    <i name="volume">    742.68230579 </i>
    <varray name="rec_basis" >
     <v>       0.17005935      -0.09818381       0.00000000 </v>
     <v>       0.00000000       0.19636762       0.00000000 </v>
     <v>       0.00000000       0.00000000       0.04032056 </v>
    </varray>
   </crystal>
   <varray name="positions" >
    <v>       0.16666667       0.16666667       0.40370131 </v>
    <v>       0.66704432       0.16591136       0.40220397 </v>
    <v>       0.16591136       0.66704432       0.40220397 </v>
    <v>       0.66704432       0.66704432       0.40220397 </v>
    <v>       0.83402688       0.33298656       0.49980690 </v>
    <v>       0.33298656       0.33298656       0.49980690 </v>
    <v>       0.83333333       0.83333333       0.50230796 </v>
    <v>       0.33298656       0.83402688       0.49980690 </v>
    <v>      -0.01076405      -0.01076405       0.59943691 </v>
    <v>       0.52152810      -0.01076405       0.59943691 </v>
    <v>      -0.01076405       0.52152810       0.59943691 </v>
    <v>       0.50000000       0.50000000       0.59200875 </v>
    <v>       0.16666667       0.16666667       0.64281774 </v>
   </varray>
  </structure>
  <varray name="forces" >
   <v>       0.00000000       0.00000000       0.02719869 </v>
   <v>       0.00000000      -0.00471557      -0.00631300 </v>
   <v>      -0.00408381       0.00235779      -0.00631300 </v>
   <v>       0.00408381       0.00235779      -0.00631300 </v>
   <v>       0.06128231      -0.03538136      -0.02825455 </v>
   <v>      -0.06128231      -0.03538136      -0.02825455 </v>
   <v>       0.00000000       0.00000000      -0.03657489 </v>
   <v>       0.00000000       0.07076271      -0.02825455 </v>
   <v>      -0.06015256      -0.03472910       0.00892270 </v>
   <v>       0.06015256      -0.03472910       0.00892270 </v>
   <v>       0.00000000       0.06945820       0.00892270 </v>
   <v>       0.00000000       0.00000000      -0.12205871 </v>
   <v>       0.00000000       0.00000000       0.20836949 </v>
  </varray>
  <varray name="stress" >
   <v>     -12.41298055       0.00000000       0.00000000 </v>
   <v>       0.00000000     -12.41298055      -0.00000000 </v>
   <v>       0.00000000      -0.00000000      -0.86698921 </v>
  </varray>
  <energy>
   <i name="e_fr_energy">    -40.94975924 </i>
   <i name="e_wo_entrp">    -40.94817240 </i>
   <i name="e_0_energy">     -0.00476053 </i>
  </energy>
  <time name="totalsc">   23.47   23.56</time>
 </calculation>
 <calculation>
  <scstep>
   <time name="dav">    3.41    3.42</time>
   <time name="total">    3.60    3.61</time>
   <energy>
    <i name="alphaZ">    240.41329906 </i>
    <i name="ewald">  48423.65114731 </i>
    <i name="hartreedc"> -59979.43011862 </i>
    <i name="XCdc">    205.10244684 </i>
    <i name="pawpsdc">  12578.10081572 </i>
    <i name="pawaedc"> -12330.28530739 </i>
    <i name="eentropy">     -0.00459433 </i>
    <i name="bandstr">   -723.72719135 </i>
    <i name="atom">  11545.22942124 </i>
    <i name="e_fr_energy">    -40.95008152 </i>
    <i name="e_wo_entrp">    -40.94548719 </i>
    <i name="e_0_energy">    -40.94855008 </i>
   </energy>
  </scstep>
  <scstep>
   <time name="dav">    3.96    3.96</time>
   <time name="total">    4.15    4.16</time>
   <energy>
    <i name="e_fr_energy">    -40.95541668 </i>
    <i name="e_wo_entrp">    -40.95061642 </i>
    <i name="e_0_energy">    -40.95381659 </i>
   </energy>
  </scstep>
  <scstep>
   <time name="dav">    4.23    4.24</time>
   <time name="total">    4.42    4.44</time>
   <energy>
    <i name="e_fr_energy">    -40.95521286 </i>
    <i name="e_wo_entrp">    -40.95063892 </i>
    <i name="e_0_energy">    -40.95368821 </i>
   </energy>
  </scstep>
  <scstep>
   <time name="dav">    3.52    3.53</time>
   <time name="total">    3.71    3.73</time>
   <energy>
    <i name="e_fr_energy">    -40.95516026 </i>
    <i name="e_wo_entrp">    -40.95040226 </i>
    <i name="e_0_energy">    -40.95357426 </i>
   </energy>
  </scstep>
  <scstep>
   <time name="dav">    3.38    3.39</time>
   <time name="total">    3.41    3.43</time>
   <energy>
    <i name="alphaZ">    240.41329906 </i>
    <i name="ewald">  48423.65114731 </i>
    <i name="hartreedc"> -59979.10860974 </i>
    <i name="XCdc">    205.09379708 </i>
    <i name="pawpsdc">  12574.45527158 </i>
    <i name="pawaedc"> -12326.61769316 </i>
    <i name="eentropy">     -0.00464934 </i>
    <i name="bandstr">   -724.06708097 </i>
    <i name="atom">  11545.22942124 </i>
    <i name="e_fr_energy">    -40.95509694 </i>
    <i name="e_wo_entrp">    -40.95044760 </i>
    <i name="e_0_energy">    -40.95354716 </i>
   </energy>
  </scstep>
  <structure>
   <crystal>
    <varray name="basis" >
     <v>       5.88029999       0.00000000       0.00000000 </v>
     <v>       2.94015000       5.09248918       0.00000000 </v>
     <v>       0.00000000       0.00000000      24.80124484 </v>
    </varray>
    <i name="volume">    742.68230579 </i>
    <varray name="rec_basis" >
     <v>       0.17005935      -0.09818381       0.00000000 </v>
     <v>       0.00000000       0.19636762       0.00000000 </v>
     <v>       0.00000000       0.00000000       0.04032056 </v>
    </varray>
   </crystal>
   <varray name="positions" >
    <v>       0.16666667       0.16666667       0.40384274 </v>
    <v>       0.66712821       0.16574357       0.40216520 </v>
    <v>       0.16574357       0.66712821       0.40216520 </v>
    <v>       0.66712821       0.66712821       0.40216520 </v>
    <v>       0.83561501       0.33219249       0.49968600 </v>
    <v>       0.33219249       0.33219249       0.49968600 </v>
    <v>       0.83333333       0.83333333       0.50211152 </v>
    <v>       0.33219249       0.83561501       0.49968600 </v>
    <v>      -0.01088767      -0.01088767       0.59964511 </v>
    <v>       0.52177535      -0.01088767       0.59964511 </v>
    <v>      -0.01088767       0.52177535       0.59964511 </v>
    <v>       0.50000000       0.50000000       0.59141441 </v>
    <v>       0.16666667       0.16666667       0.64332150 </v>
   </varray>
  </structure>
  <varray name="forces" >
   <v>      -0.00000000      -0.00000000      -0.01749501 </v>
   <v>      -0.00000000       0.01055361      -0.00773872 </v>
   <v>       0.00913970      -0.00527681      -0.00773872 </v>
   <v>      -0.00913970      -0.00527681      -0.00773872 </v>
   <v>       0.00164191      -0.00094796      -0.01154711 </v>
   <v>      -0.00164191      -0.00094796      -0.01154711 </v>
   <v>      -0.00000000      -0.00000000       0.01260532 </v>
   <v>      -0.00000000       0.00189592      -0.01154711 </v>
   <v>      -0.02182927      -0.01260313       0.01259166 </v>
   <v>       0.02182927      -0.01260313       0.01259166 </v>
   <v>       0.00000000       0.02520627       0.01259166 </v>
   <v>      -0.00000000       0.00000000      -0.11335849 </v>
   <v>      -0.00000000       0.00000000       0.13833065 </v>
  </varray>
  <varray name="stress" >
   <v>     -12.43216655       0.00000000       0.00000000 </v>
   <v>       0.00000000     -12.43216655       0.00000000 </v>
   <v>      -0.00000000      -0.00000000      -0.97124966 </v>
  </varray>
  <energy>
   <i name="e_fr_energy">    -40.95509694 </i>
   <i name="e_wo_entrp">    -40.95354716 </i>
   <i name="e_0_energy">     -0.00464934 </i>
  </energy>
  <time name="totalsc">   27.14   27.24</time>
 </calculation>
 <calculation>
  <scstep>
   <time name="dav">    4.16    4.17</time>
   <time name="total">    4.35    4.36</time>
   <energy>
    <i name="alphaZ">    240.41329906 </i>
    <i name="ewald">  48398.57956169 </i>
    <i name="hartreedc"> -59954.35636080 </i>
    <i name="XCdc">    205.08233428 </i>
    <i name="pawpsdc">  12574.13054929 </i>
    <i name="pawaedc"> -12326.29135995 </i>
    <i name="eentropy">     -0.00438865 </i>
    <i name="bandstr">   -723.73362558 </i>
    <i name="atom">  11545.22942124 </i>
    <i name="e_fr_energy">    -40.95056942 </i>
    <i name="e_wo_entrp">    -40.94618077 </i>
    <i name="e_0_energy">    -40.94910654 </i>
   </energy>
  </scstep>
  <scstep>
   <time name="dav">    4.83    4.83</time>
   <time name="total">    5.02    5.03</time>
   <energy>
    <i name="e_fr_energy">    -40.95706090 </i>
    <i name="e_wo_entrp">    -40.95243317 </i>
    <i name="e_0_energy">    -40.95551832 </i>
   </energy>
  </scstep>
  <scstep>
   <time name="dav">    5.33    5.33</time>
   <time name="total">    5.53    5.55</time>
   <energy>
    <i name="e_fr_energy">    -40.95684857 </i>
    <i name="e_wo_entrp">    -40.95250374 </i>
    <i name="e_0_energy">    -40.95540029 </i>
   </energy>
  </scstep>
  <scstep>
   <time name="dav">    4.32    4.32</time>
   <time name="total">    4.51    4.52</time>
   <energy>
    <i name="e_fr_energy">    -40.95682394 </i>
    <i name="e_wo_entrp">    -40.95222002 </i>
    <i name="e_0_energy">    -40.95528930 </i>
   </energy>
  </scstep>
  <scstep>
   <time name="dav">    4.15    4.15</time>
   <time name="total">    4.34    4.34</time>
   <energy>
    <i name="e_fr_energy">    -40.95673408 </i>
    <i name="e_wo_entrp">    -40.95229969 </i>
    <i name="e_0_energy">    -40.95525595 </i>
   </energy>
  </scstep>
  <scstep>
   <time name="dav">    3.35    3.35</time>
   <time name="total">    3.39    3.40</time>
   <energy>
    <i name="alphaZ">    240.41329906 </i>
    <i name="ewald">  48398.57956169 </i>
    <i name="hartreedc"> -59953.74886975 </i>
    <i name="XCdc">    205.07216768 </i>
    <i name="pawpsdc">  12570.39748040 </i>
    <i name="pawaedc"> -12322.53502352 </i>
    <i name="eentropy">     -0.00444678 </i>
    <i name="bandstr">   -724.36033210 </i>
    <i name="atom">  11545.22942124 </i>
    <i name="e_fr_energy">    -40.95674207 </i>
    <i name="e_wo_entrp">    -40.95229529 </i>
    <i name="e_0_energy">    -40.95525981 </i>
   </energy>
  </scstep>
  <structure>
   <crystal>
    <varray name="basis" >
     <v>       5.88029999       0.00000000       0.00000000 </v>
     <v>       2.94015000       5.09248918       0.00000000 </v>
     <v>       0.00000000       0.00000000      24.80124484 </v>
    </varray>
    <i name="volume">    742.68230579 </i>
    <varray name="rec_basis" >
     <v>       0.17005935      -0.09818381       0.00000000 </v>
     <v>       0.00000000       0.19636762       0.00000000 </v>
     <v>       0.00000000       0.00000000       0.04032056 </v>
    </varray>
   </crystal>
   <varray name="positions" >
    <v>       0.16666667       0.16666667       0.40399870 </v>
    <v>       0.66722072       0.16555857       0.40212245 </v>
    <v>       0.16555857       0.66722072       0.40212245 </v>
    <v>       0.66722072       0.66722072       0.40212245 </v>
    <v>       0.83736621       0.33131690       0.49955268 </v>
    <v>       0.33131690       0.33131690       0.49955268 </v>
    <v>       0.83333333       0.83333333       0.50189491 </v>
    <v>       0.33131690       0.83736621       0.49955268 </v>
    <v>      -0.01102399      -0.01102399       0.59987468 </v>
    <v>       0.52204798      -0.01102399       0.59987468 </v>
    <v>      -0.01102399       0.52204798       0.59987468 </v>
    <v>       0.50000000       0.50000000       0.59075906 </v>
    <v>       0.16666667       0.16666667       0.64387700 </v>
   </varray>
  </structure>
  <varray name="forces" >
   <v>       0.00000000       0.00000000      -0.06168800 </v>
   <v>      -0.00000000       0.02419059      -0.01004768 </v>
   <v>       0.02094967      -0.01209530      -0.01004768 </v>
   <v>      -0.02094967      -0.01209530      -0.01004768 </v>
   <v>      -0.06421696       0.03707568       0.00995632 </v>
   <v>       0.06421696       0.03707568       0.00995632 </v>
   <v>       0.00000000       0.00000000       0.05825136 </v>
   <v>       0.00000000      -0.07415136       0.00995632 </v>
   <v>       0.02293105       0.01323925       0.02304049 </v>
   <v>      -0.02293105       0.01323925       0.02304049 </v>
   <v>       0.00000000      -0.02647849       0.02304049 </v>
   <v>       0.00000000       0.00000000      -0.09370656 </v>
   <v>       0.00000000       0.00000000       0.02829583 </v>
  </varray>
  <varray name="stress" >
   <v>     -12.61052135       0.00000000       0.00000000 </v>
   <v>       0.00000000     -12.61052135      -0.00000000 </v>
   <v>       0.00000000      -0.00000000      -1.12874366 </v>
  </varray>
  <energy>
   <i name="e_fr_energy">    -40.95674207 </i>
   <i name="e_wo_entrp">    -40.95525981 </i>
   <i name="e_0_energy">     -0.00444678 </i>
  </energy>
  <time name="totalsc">   35.02   35.17</time>
 </calculation>
 <calculation>
  <scstep>
   <time name="dav">    4.19    4.19</time>
   <time name="total">    4.37    4.38</time>
   <energy>
    <i name="alphaZ">    240.41329906 </i>
    <i name="ewald">  48367.17677868 </i>
    <i name="hartreedc"> -59922.60348997 </i>
    <i name="XCdc">    205.06011482 </i>
    <i name="pawpsdc">  12570.31513194 </i>
    <i name="pawaedc"> -12322.45277091 </i>
    <i name="eentropy">     -0.00419092 </i>
    <i name="bandstr">   -724.08934743 </i>
    <i name="atom">  11545.22942124 </i>
    <i name="e_fr_energy">    -40.95505350 </i>
    <i name="e_wo_entrp">    -40.95086258 </i>
    <i name="e_0_energy">    -40.95365652 </i>
   </energy>
  </scstep>
  <scstep>
   <time name="dav">    4.82    4.82</time>
   <time name="total">    5.01    5.02</time>
   <energy>
    <i name="e_fr_energy">    -40.95912745 </i>
    <i name="e_wo_entrp">    -40.95465242 </i>
    <i name="e_0_energy">    -40.95763577 </i>
   </energy>
  </scstep>
  <scstep>
   <time name="dav">    4.54    4.55</time>
   <time name="total">    4.73    4.74</time>
   <energy>
    <i name="e_fr_energy">    -40.95895214 </i>
    <i name="e_wo_entrp">    -40.95480102 </i>
    <i name="e_0_energy">    -40.95756844 </i>
   </energy>
  </scstep>
  <scstep>
   <time name="dav">    4.14    4.14</time>
   <time name="total">    4.33    4.33</time>
   <energy>
    <i name="e_fr_energy">    -40.95882507 </i>
    <i name="e_wo_entrp">    -40.95452968 </i>
    <i name="e_0_energy">    -40.95739328 </i>
   </energy>
  </scstep>
  <scstep>
   <time name="dav">    4.70    4.70</time>
   <time name="total">    4.73    4.74</time>
   <energy>
    <i name="alphaZ">    240.41329906 </i>
    <i name="ewald">  48367.17677868 </i>
    <i name="hartreedc"> -59922.17115325 </i>
    <i name="XCdc">    205.05227304 </i>
    <i name="pawpsdc">  12567.29602201 </i>
    <i name="pawaedc"> -12319.41741696 </i>
    <i name="eentropy">     -0.00430063 </i>
    <i name="bandstr">   -724.53373788 </i>
    <i name="atom">  11545.22942124 </i>
    <i name="e_fr_energy">    -40.95881469 </i>
    <i name="e_wo_entrp">    -40.95451406 </i>
    <i name="e_0_energy">    -40.95738114 </i>
   </energy>
  </scstep>
  <structure>
   <crystal>
    <varray name="basis" >
     <v>       5.88029999       0.00000000       0.00000000 </v>
     <v>       2.94015000       5.09248918       0.00000000 </v>
     <v>       0.00000000       0.00000000      24.80124484 </v>
    </varray>
    <i name="volume">    742.68230579 </i>
    <varray name="rec_basis" >
     <v>       0.17005935      -0.09818381       0.00000000 </v>
     <v>       0.00000000       0.19636762       0.00000000 </v>
     <v>       0.00000000       0.00000000       0.04032056 </v>
    </varray>
   </crystal>
   <varray name="positions" >
    <v>       0.16666667       0.16666667       0.40386007 </v>
    <v>       0.66705638       0.16588724       0.40206127 </v>
    <v>       0.16588724       0.66705638       0.40206127 </v>
    <v>       0.66705638       0.66705638       0.40206127 </v>
    <v>       0.83702940       0.33148530       0.49951380 </v>
    <v>       0.33148530       0.33148530       0.49951380 </v>
    <v>       0.83333333       0.83333333       0.50198654 </v>
    <v>       0.33148530       0.83702940       0.49951380 </v>
    <v>      -0.01086397      -0.01086397       0.60008949 </v>
    <v>       0.52172794      -0.01086397       0.60008949 </v>
    <v>      -0.01086397       0.52172794       0.60008949 </v>
    <v>       0.50000000       0.50000000       0.59004309 </v>
    <v>       0.16666667       0.16666667       0.64429574 </v>
   </varray>
  </structure>
  <varray name="forces" >
   <v>      -0.00000000       0.00000000      -0.04458323 </v>
   <v>      -0.00000000       0.00751240      -0.00789834 </v>
   <v>       0.00650593      -0.00375620      -0.00789834 </v>
   <v>      -0.00650593      -0.00375620      -0.00789834 </v>
   <v>      -0.02264663       0.01307504      -0.01201487 </v>
   <v>       0.02264663       0.01307504      -0.01201487 </v>
   <v>      -0.00000000       0.00000000       0.07309096 </v>
   <v>      -0.00000000      -0.02615007      -0.01201487 </v>
   <v>       0.00793020       0.00457850       0.01957987 </v>
   <v>      -0.00793020       0.00457850       0.01957987 </v>
   <v>      -0.00000000      -0.00915700       0.01957987 </v>
   <v>      -0.00000000       0.00000000      -0.01161450 </v>
   <v>      -0.00000000       0.00000000      -0.01589320 </v>
  </varray>
  <varray name="stress" >
   <v>     -12.78214484       0.00000000       0.00000000 </v>
   <v>       0.00000000     -12.78214484      -0.00000000 </v>
   <v>       0.00000000       0.00000000      -1.17644816 </v>
  </varray>
  <energy>
   <i name="e_fr_energy">    -40.95881469 </i>
   <i name="e_wo_entrp">    -40.95738114 </i>
   <i name="e_0_energy">     -0.00430063 </i>
  </energy>
  <time name="totalsc">   31.23   31.29</time>
 </calculation>
 <calculation>
  <scstep>
   <time name="dav">    4.28    4.29</time>
   <time name="total">    4.47    4.47</time>
   <energy>
    <i name="alphaZ">    240.41329906 </i>
    <i name="ewald">  48354.31529180 </i>
    <i name="hartreedc"> -59909.35897399 </i>
    <i name="XCdc">    205.04893744 </i>
    <i name="pawpsdc">  12567.24976392 </i>
    <i name="pawaedc"> -12319.36963991 </i>
    <i name="eentropy">     -0.00416613 </i>
    <i name="bandstr">   -724.48227600 </i>
    <i name="atom">  11545.22942124 </i>
    <i name="e_fr_energy">    -40.95834258 </i>
    <i name="e_wo_entrp">    -40.95417645 </i>
    <i name="e_0_energy">    -40.95695387 </i>
   </energy>
  </scstep>
  <scstep>
   <time name="dav">    4.77    4.77</time>
   <time name="total">    4.96    4.97</time>
   <energy>
    <i name="e_fr_energy">    -40.95901170 </i>
    <i name="e_wo_entrp">    -40.95474447 </i>
    <i name="e_0_energy">    -40.95758929 </i>
   </energy>
  </scstep>
  <scstep>
   <time name="dav">    3.80    3.81</time>
   <time name="total">    3.84    3.85</time>
   <energy>
    <i name="alphaZ">    240.41329906 </i>
    <i name="ewald">  48354.31529180 </i>
    <i name="hartreedc"> -59909.22966254 </i>
    <i name="XCdc">    205.04730804 </i>
    <i name="pawpsdc">  12566.36619994 </i>
    <i name="pawaedc"> -12318.48221696 </i>
    <i name="eentropy">     -0.00415077 </i>
    <i name="bandstr">   -724.61448300 </i>
    <i name="atom">  11545.22942124 </i>
    <i name="e_fr_energy">    -40.95899319 </i>
    <i name="e_wo_entrp">    -40.95484242 </i>
    <i name="e_0_energy">    -40.95760960 </i>
   </energy>
  </scstep>
  <structure>
   <crystal>
    <varray name="basis" >
     <v>       5.88029999       0.00000000       0.00000000 </v>
     <v>       2.94015000       5.09248918       0.00000000 </v>
     <v>       0.00000000       0.00000000      24.80124484 </v>
    </varray>
    <i name="volume">    742.68230579 </i>
    <varray name="rec_basis" >
     <v>       0.17005935      -0.09818381       0.00000000 </v>
     <v>       0.00000000       0.19636762       0.00000000 </v>
[...]
       <r>   -6.8014    1.0000 </r>
       <r>   -6.7890    1.0000 </r>
       <r>   -6.6327    1.0000 </r>
       <r>   -6.5653    1.0000 </r>
       <r>   -6.5499    1.0000 </r>
       <r>   -6.5188    1.0000 </r>
       <r>   -6.4510    1.0000 </r>
       <r>   -6.4502    1.0000 </r>
       <r>   -6.3280    1.0000 </r>
       <r>   -6.3232    1.0000 </r>
       <r>   -6.2259    1.0000 </r>
       <r>   -6.1021    1.0000 </r>
       <r>   -6.0838    1.0000 </r>
       <r>   -6.0676    1.0000 </r>
       <r>   -6.0490    1.0000 </r>
       <r>   -5.8760    1.0000 </r>
       <r>   -5.8736    1.0000 </r>
       <r>   -5.8375    1.0000 </r>
       <r>   -5.7759    1.0000 </r>
       <r>   -5.6870    1.0000 </r>
       <r>   -5.6276    1.0000 </r>
       <r>   -5.6174    1.0000 </r>
       <r>   -5.5395    1.0000 </r>
       <r>   -5.5294    1.0000 </r>
       <r>   -5.4370    1.0000 </r>
       <r>   -5.3836    1.0000 </r>
       <r>   -5.3245    1.0000 </r>
       <r>   -5.1072    1.0000 </r>
       <r>   -5.0487    1.0000 </r>
       <r>   -5.0123    1.0000 </r>
       <r>   -4.9757    1.0000 </r>
       <r>   -4.9552    1.0000 </r>
       <r>   -4.8799    1.0000 </r>
       <r>   -4.8211    1.0000 </r>
       <r>   -4.7354    1.0000 </r>
       <r>   -4.5700    1.0000 </r>
       <r>   -4.4815    1.0000 </r>
       <r>   -4.4388    1.0000 </r>
       <r>   -4.3850    1.0000 </r>
       <r>   -4.2954    1.0000 </r>
       <r>   -4.1904    1.0000 </r>
       <r>   -4.1664    1.0000 </r>
       <r>   -4.1010    1.0000 </r>
       <r>   -4.0686    1.0000 </r>
       <r>   -3.8507    1.0000 </r>
       <r>   -3.8439    1.0000 </r>
       <r>   -3.8415    1.0000 </r>
       <r>   -3.6502    1.0000 </r>
       <r>   -3.6368    1.0000 </r>
       <r>   -3.5734    1.0000 </r>
       <r>   -3.5107    1.0000 </r>
       <r>   -3.5029    1.0000 </r>
       <r>   -3.4718    1.0000 </r>
       <r>   -3.4704    1.0000 </r>
       <r>   -3.4234    1.0000 </r>
       <r>   -3.4174    1.0000 </r>
       <r>   -3.3958    1.0000 </r>
       <r>   -3.1438    1.0000 </r>
       <r>   -2.9855    1.0000 </r>
       <r>   -2.9121    1.0000 </r>
       <r>   -2.5930    1.0000 </r>
       <r>   -1.7587    1.0000 </r>
       <r>   -1.2702    0.3635 </r>
       <r>   -0.4353   -0.0000 </r>
       <r>   -0.3581   -0.0000 </r>
       <r>    0.4365   -0.0000 </r>
       <r>    1.6095    0.0000 </r>
       <r>    1.7573    0.0000 </r>
       <r>    2.3237    0.0000 </r>
       <r>    2.9144    0.0000 </r>
       <r>    2.9552    0.0000 </r>
       <r>    3.3589    0.0000 </r>
       <r>    4.2545    0.0000 </r>
       <r>    4.2717    0.0000 </r>
       <r>    4.3470    0.0000 </r>
       <r>    4.9791    0.0000 </r>
       <r>    5.1727    0.0000 </r>
       <r>    5.3856    0.0000 </r>
       <r>    6.0182    0.0000 </r>
       <r>    6.0438    0.0000 </r>
       <r>    6.0958    0.0000 </r>
       <r>    6.1639    0.0000 </r>
       <r>    6.1693    0.0000 </r>
       <r>    6.1749    0.0000 </r>
       <r>    6.2509    0.0000 </r>
       <r>    6.4247    0.0000 </r>
       <r>    6.7615    0.0000 </r>
       <r>    7.2077    0.0000 </r>
       <r>    7.2721    0.0000 </r>
      </set>
     </set>
    </set>
   </array>
  </eigenvalues>
  <separator name="orbital magnetization" >
   <v name="MAGDIPOLOUT">      0.00000000      0.00000000      0.00000000</v>
  </separator>
  <dos>
   <i name="efermi">     -1.28657437 </i>
   <total>
    <array>
     <dimension dim="1">gridpoints</dimension>
     <dimension dim="2">spin</dimension>
     <field>energy</field>
     <field>total</field>
     <field>integrated</field>
     <set>
      <set comment="spin 1">
       <r>   -20.8956     0.0000     0.0000 </r>
       <r>   -20.7961     0.0000     0.0000 </r>
       <r>   -20.6966     0.0000     0.0000 </r>
       <r>   -20.5971     0.0000     0.0000 </r>
       <r>   -20.4975     0.0000     0.0000 </r>
       <r>   -20.3980    -0.0000    -0.0000 </r>
       <r>   -20.2985    -0.0000    -0.0000 </r>
       <r>   -20.1990    -0.0000    -0.0000 </r>
       <r>   -20.0995    -0.0000    -0.0000 </r>
       <r>   -20.0000    -0.0000    -0.0000 </r>
       <r>   -19.9004    -0.0000    -0.0000 </r>
       <r>   -19.8009    -0.0068    -0.0007 </r>
       <r>   -19.7014    -0.3078    -0.0313 </r>
       <r>   -19.6019     0.6755     0.0359 </r>
       <r>   -19.5024    13.2989     1.3594 </r>
       <r>   -19.4028     7.1391     2.0699 </r>
       <r>   -19.3033    -0.6234     2.0078 </r>
       <r>   -19.2038    -0.0779     2.0001 </r>
       <r>   -19.1043    -0.0006     2.0000 </r>
       <r>   -19.0048    -0.0000     2.0000 </r>
       <r>   -18.9053    -0.0000     2.0000 </r>
       <r>   -18.8057     0.0000     2.0000 </r>
       <r>   -18.7062     0.0000     2.0000 </r>
       <r>   -18.6067     0.0000     2.0000 </r>
       <r>   -18.5072     0.0000     2.0000 </r>
       <r>   -18.4077     0.0000     2.0000 </r>
       <r>   -18.3081     0.0000     2.0000 </r>
       <r>   -18.2086     0.0000     2.0000 </r>
       <r>   -18.1091     0.0000     2.0000 </r>
       <r>   -18.0096     0.0000     2.0000 </r>
       <r>   -17.9101     0.0000     2.0000 </r>
       <r>   -17.8106     0.0000     2.0000 </r>
       <r>   -17.7110     0.0000     2.0000 </r>
       <r>   -17.6115     0.0000     2.0000 </r>
       <r>   -17.5120     0.0000     2.0000 </r>
       <r>   -17.4125     0.0000     2.0000 </r>
       <r>   -17.3130     0.0000     2.0000 </r>
       <r>   -17.2134     0.0000     2.0000 </r>
       <r>   -17.1139     0.0000     2.0000 </r>
       <r>   -17.0144     0.0000     2.0000 </r>
       <r>   -16.9149     0.0000     2.0000 </r>
       <r>   -16.8154     0.0000     2.0000 </r>
       <r>   -16.7159     0.0000     2.0000 </r>
       <r>   -16.6163     0.0000     2.0000 </r>
       <r>   -16.5168     0.0000     2.0000 </r>
       <r>   -16.4173     0.0000     2.0000 </r>
       <r>   -16.3178     0.0000     2.0000 </r>
       <r>   -16.2183     0.0000     2.0000 </r>
       <r>   -16.1187     0.0000     2.0000 </r>
       <r>   -16.0192     0.0000     2.0000 </r>
       <r>   -15.9197     0.0000     2.0000 </r>
       <r>   -15.8202     0.0000     2.0000 </r>
       <r>   -15.7207     0.0000     2.0000 </r>
       <r>   -15.6212     0.0000     2.0000 </r>
       <r>   -15.5216     0.0000     2.0000 </r>
       <r>   -15.4221     0.0000     2.0000 </r>
       <r>   -15.3226     0.0000     2.0000 </r>
       <r>   -15.2231     0.0000     2.0000 </r>
       <r>   -15.1236     0.0000     2.0000 </r>
       <r>   -15.0241     0.0000     2.0000 </r>
       <r>   -14.9245     0.0000     2.0000 </r>
       <r>   -14.8250     0.0000     2.0000 </r>
       <r>   -14.7255     0.0000     2.0000 </r>
       <r>   -14.6260     0.0000     2.0000 </r>
       <r>   -14.5265     0.0000     2.0000 </r>
       <r>   -14.4269     0.0000     2.0000 </r>
       <r>   -14.3274     0.0000     2.0000 </r>
       <r>   -14.2279     0.0000     2.0000 </r>
       <r>   -14.1284     0.0000     2.0000 </r>
       <r>   -14.0289     0.0000     2.0000 </r>
       <r>   -13.9294     0.0000     2.0000 </r>
       <r>   -13.8298     0.0000     2.0000 </r>
       <r>   -13.7303     0.0000     2.0000 </r>
       <r>   -13.6308     0.0000     2.0000 </r>
       <r>   -13.5313     0.0000     2.0000 </r>
       <r>   -13.4318     0.0000     2.0000 </r>
       <r>   -13.3322     0.0000     2.0000 </r>
       <r>   -13.2327     0.0000     2.0000 </r>
       <r>   -13.1332     0.0000     2.0000 </r>
       <r>   -13.0337     0.0000     2.0000 </r>
       <r>   -12.9342     0.0000     2.0000 </r>
       <r>   -12.8347     0.0000     2.0000 </r>
       <r>   -12.7351     0.0000     2.0000 </r>
       <r>   -12.6356     0.0000     2.0000 </r>
       <r>   -12.5361     0.0000     2.0000 </r>
       <r>   -12.4366     0.0000     2.0000 </r>
       <r>   -12.3371     0.0000     2.0000 </r>
       <r>   -12.2375     0.0000     2.0000 </r>
       <r>   -12.1380     0.0000     2.0000 </r>
       <r>   -12.0385     0.0000     2.0000 </r>
       <r>   -11.9390     0.0000     2.0000 </r>
       <r>   -11.8395     0.0000     2.0000 </r>
       <r>   -11.7400     0.0000     2.0000 </r>
       <r>   -11.6404     0.0000     2.0000 </r>
       <r>   -11.5409     0.0000     2.0000 </r>
       <r>   -11.4414     0.0000     2.0000 </r>
       <r>   -11.3419     0.0000     2.0000 </r>
       <r>   -11.2424     0.0000     2.0000 </r>
       <r>   -11.1429     0.0000     2.0000 </r>
       <r>   -11.0433     0.0000     2.0000 </r>
       <r>   -10.9438     0.0000     2.0000 </r>
       <r>   -10.8443     0.0000     2.0000 </r>
       <r>   -10.7448     0.0000     2.0000 </r>
       <r>   -10.6453    -0.0000     2.0000 </r>
       <r>   -10.5457    -0.0000     2.0000 </r>
       <r>   -10.4462    -0.0000     2.0000 </r>
       <r>   -10.3467    -0.0000     2.0000 </r>
       <r>   -10.2472    -0.0000     2.0000 </r>
       <r>   -10.1477    -0.0000     2.0000 </r>
       <r>   -10.0482    -0.0003     2.0000 </r>
       <r>    -9.9486    -0.0098     1.9990 </r>
       <r>    -9.8491    -0.0070     1.9983 </r>
       <r>    -9.7496     0.5402     2.0521 </r>
       <r>    -9.6501     1.0603     2.1576 </r>
       <r>    -9.5506     0.8595     2.2431 </r>
       <r>    -9.4510     1.7077     2.4131 </r>
       <r>    -9.3515     0.5218     2.4650 </r>
       <r>    -9.2520     0.9288     2.5574 </r>
       <r>    -9.1525     2.0896     2.7654 </r>
       <r>    -9.0530     1.1331     2.8781 </r>
       <r>    -8.9535     0.3144     2.9094 </r>
       <r>    -8.8539     1.4981     3.0585 </r>
       <r>    -8.7544     2.7533     3.3325 </r>
       <r>    -8.6549     0.9908     3.4311 </r>
       <r>    -8.5554     0.9382     3.5245 </r>
       <r>    -8.4559     3.0104     3.8241 </r>
       <r>    -8.3563     1.3905     3.9625 </r>
       <r>    -8.2568     1.8207     4.1437 </r>
       <r>    -8.1573     3.5536     4.4973 </r>
       <r>    -8.0578     8.3042     5.3237 </r>
       <r>    -7.9583     6.8746     6.0079 </r>
       <r>    -7.8588     2.0029     6.2072 </r>
       <r>    -7.7592     3.2730     6.5329 </r>
       <r>    -7.6597    11.6060     7.6879 </r>
       <r>    -7.5602    13.9211     9.0733 </r>
       <r>    -7.4607    12.7997    10.3471 </r>
       <r>    -7.3612    12.4985    11.5910 </r>
       <r>    -7.2617    14.3656    13.0206 </r>
       <r>    -7.1621    14.9295    14.5064 </r>
       <r>    -7.0626    24.2915    16.9238 </r>
       <r>    -6.9631    25.9490    19.5062 </r>
       <r>    -6.8636    26.5442    22.1478 </r>
       <r>    -6.7641    27.0305    24.8378 </r>
       <r>    -6.6645    21.0069    26.9284 </r>
       <r>    -6.5650    17.1053    28.6307 </r>
       <r>    -6.4655    19.0580    30.5273 </r>
       <r>    -6.3660    21.1429    32.6314 </r>
       <r>    -6.2665    20.0773    34.6295 </r>
       <r>    -6.1670    16.1193    36.2336 </r>
       <r>    -6.0674    12.4562    37.4732 </r>
       <r>    -5.9679    24.4209    39.9035 </r>
       <r>    -5.8684    32.6435    43.1522 </r>
       <r>    -5.7689    31.1414    46.2513 </r>
       <r>    -5.6694    34.7880    49.7133 </r>
       <r>    -5.5698    31.2535    52.8236 </r>
       <r>    -5.4703    27.5724    55.5676 </r>
       <r>    -5.3708    27.7226    58.3265 </r>
       <r>    -5.2713    29.1264    61.2251 </r>
       <r>    -5.1718    32.9971    64.5089 </r>
       <r>    -5.0723    30.8007    67.5741 </r>
       <r>    -4.9727    29.3090    70.4909 </r>
       <r>    -4.8732    27.5876    73.2363 </r>
       <r>    -4.7737    27.5272    75.9758 </r>
       <r>    -4.6742    28.7178    78.8337 </r>
       <r>    -4.5747    25.9870    81.4199 </r>
       <r>    -4.4751    25.5128    83.9589 </r>
       <r>    -4.3756    33.4920    87.2919 </r>
       <r>    -4.2761    30.9480    90.3718 </r>
       <r>    -4.1766    35.4110    93.8958 </r>
       <r>    -4.0771    31.9830    97.0787 </r>
       <r>    -3.9776    24.2226    99.4893 </r>
       <r>    -3.8780    23.7195   101.8498 </r>
       <r>    -3.7785    28.7988   104.7158 </r>
       <r>    -3.6790    23.5612   107.0606 </r>
       <r>    -3.5795    27.0908   109.7566 </r>
       <r>    -3.4800    38.7168   113.6096 </r>
       <r>    -3.3804    44.6018   118.0483 </r>
       <r>    -3.2809    39.4481   121.9741 </r>
       <r>    -3.1814    25.0949   124.4715 </r>
       <r>    -3.0819    22.8441   126.7449 </r>
       <r>    -2.9824    17.4752   128.4840 </r>
       <r>    -2.8829     7.9330   129.2734 </r>
       <r>    -2.7833     3.8539   129.6570 </r>
       <r>    -2.6838     7.2281   130.3763 </r>
       <r>    -2.5843    11.9479   131.5653 </r>
       <r>    -2.4848     9.3911   132.4999 </r>
       <r>    -2.3853     8.2490   133.3208 </r>
       <r>    -2.2858     3.7188   133.6909 </r>
       <r>    -2.1862     4.9620   134.1847 </r>
       <r>    -2.0867     3.9763   134.5805 </r>
       <r>    -1.9872     7.2175   135.2987 </r>
       <r>    -1.8877     3.1873   135.6159 </r>
       <r>    -1.7882     2.9002   135.9045 </r>
       <r>    -1.6886     8.5104   136.7515 </r>
       <r>    -1.5891     6.1158   137.3601 </r>
       <r>    -1.4896     0.0874   137.3688 </r>
       <r>    -1.3901     1.1001   137.4783 </r>
       <r>    -1.2906     4.9492   137.9708 </r>
       <r>    -1.1911     7.7616   138.7432 </r>
       <r>    -1.0915     5.8361   139.3240 </r>
       <r>    -0.9920     5.5877   139.8801 </r>
       <r>    -0.8925     4.1552   140.2936 </r>
       <r>    -0.7930     2.3267   140.5252 </r>
       <r>    -0.6935     0.8752   140.6123 </r>
       <r>    -0.5939     6.5888   141.2680 </r>
       <r>    -0.4944     6.8002   141.9447 </r>
       <r>    -0.3949     2.4190   142.1855 </r>
       <r>    -0.2954     2.2773   142.4121 </r>
       <r>    -0.1959     5.4391   142.9534 </r>
       <r>    -0.0964     4.4899   143.4002 </r>
       <r>     0.0032     4.7346   143.8714 </r>
       <r>     0.1027     4.6498   144.3341 </r>
       <r>     0.2022     6.4292   144.9740 </r>
       <r>     0.3017     2.3537   145.2082 </r>
       <r>     0.4012     1.5382   145.3613 </r>
       <r>     0.5008     4.4699   145.8061 </r>
       <r>     0.6003     3.6370   146.1681 </r>
       <r>     0.6998     3.1539   146.4819 </r>
       <r>     0.7993     4.8228   146.9619 </r>
       <r>     0.8988     2.9080   147.2513 </r>
       <r>     0.9983     4.5685   147.7059 </r>
       <r>     1.0979     4.0085   148.1049 </r>
       <r>     1.1974     4.9456   148.5970 </r>
       <r>     1.2969     3.3743   148.9328 </r>
       <r>     1.3964     5.8604   149.5161 </r>
       <r>     1.4959     5.8234   150.0956 </r>
       <r>     1.5954     3.2092   150.4150 </r>
       <r>     1.6950     0.5484   150.4695 </r>
       <r>     1.7945     3.6319   150.8310 </r>
       <r>     1.8940     5.9114   151.4193 </r>
       <r>     1.9935     4.2120   151.8384 </r>
       <r>     2.0930     0.8886   151.9269 </r>
       <r>     2.1926     2.7288   152.1984 </r>
       <r>     2.2921     5.1749   152.7134 </r>
       <r>     2.3916     8.1214   153.5217 </r>
       <r>     2.4911     6.1500   154.1337 </r>
       <r>     2.5906     5.2886   154.6600 </r>
       <r>     2.6901     4.5755   155.1153 </r>
       <r>     2.7897     2.3968   155.3539 </r>
       <r>     2.8892     3.8650   155.7385 </r>
       <r>     2.9887     5.8424   156.3199 </r>
       <r>     3.0882     4.1984   156.7377 </r>
       <r>     3.1877     4.3883   157.1745 </r>
       <r>     3.2873     3.2375   157.4967 </r>
       <r>     3.3868     2.4799   157.7434 </r>
       <r>     3.4863     2.5902   158.0012 </r>
       <r>     3.5858     7.7482   158.7723 </r>
       <r>     3.6853     4.4261   159.2128 </r>
       <r>     3.7848     6.2094   159.8307 </r>
       <r>     3.8844     8.6997   160.6965 </r>
       <r>     3.9839     8.4305   161.5355 </r>
       <r>     4.0834     5.2816   162.0611 </r>
       <r>     4.1829     3.9070   162.4499 </r>
       <r>     4.2824     6.4476   163.0916 </r>
       <r>     4.3820     6.2038   163.7090 </r>
       <r>     4.4815     9.4299   164.6474 </r>
       <r>     4.5810     9.1069   165.5537 </r>
       <r>     4.6805    10.8559   166.6341 </r>
       <r>     4.7800     9.3164   167.5612 </r>
       <r>     4.8795     6.7918   168.2371 </r>
       <r>     4.9791     5.1353   168.7482 </r>
       <r>     5.0786     7.7927   169.5237 </r>
       <r>     5.1781    10.9486   170.6133 </r>
       <r>     5.2776     8.3275   171.4420 </r>
       <r>     5.3771     8.7146   172.3092 </r>
       <r>     5.4766     7.4201   173.0477 </r>
       <r>     5.5762     6.5354   173.6981 </r>
       <r>     5.6757    10.4269   174.7357 </r>
       <r>     5.7752    12.6635   175.9960 </r>
       <r>     5.8747     8.7944   176.8712 </r>
       <r>     5.9742     9.5042   177.8170 </r>
       <r>     6.0738    10.8888   178.9006 </r>
       <r>     6.1733    13.2998   180.2242 </r>
       <r>     6.2728    10.2614   181.2454 </r>
       <r>     6.3723     7.1762   181.9596 </r>
       <r>     6.4718    10.0049   182.9552 </r>
       <r>     6.5713     9.4625   183.8969 </r>
       <r>     6.6709    11.2647   185.0180 </r>
       <r>     6.7704    11.9645   186.2086 </r>
       <r>     6.8699    13.5802   187.5601 </r>
       <r>     6.9694    13.1151   188.8653 </r>
       <r>     7.0689     7.7169   189.6333 </r>
       <r>     7.1685     3.0447   189.9363 </r>
       <r>     7.2680     9.7917   190.9107 </r>
       <r>     7.3675     6.5686   191.5644 </r>
       <r>     7.4670     1.5432   191.7180 </r>
       <r>     7.5665     1.6524   191.8824 </r>
       <r>     7.6660     1.2016   192.0020 </r>
       <r>     7.7656     0.0049   192.0025 </r>
       <r>     7.8651    -0.0246   192.0000 </r>
       <r>     7.9646    -0.0005   192.0000 </r>
       <r>     8.0641    -0.0000   192.0000 </r>
       <r>     8.1636    -0.0000   192.0000 </r>
       <r>     8.2632    -0.0000   192.0000 </r>
       <r>     8.3627     0.0000   192.0000 </r>
       <r>     8.4622     0.0000   192.0000 </r>
       <r>     8.5617     0.0000   192.0000 </r>
       <r>     8.6612     0.0000   192.0000 </r>
       <r>     8.7607     0.0000   192.0000 </r>
       <r>     8.8603     0.0000   192.0000 </r>
       <r>     8.9598     0.0000   192.0000 </r>
      </set>
     </set>
    </array>
   </total>
  </dos>
 </calculation>
 <structure name="finalpos" >
  <crystal>
   <varray name="basis" >
    <v>       5.88029999       0.00000000       0.00000000 </v>
    <v>       2.94015000       5.09248918       0.00000000 </v>
    <v>       0.00000000       0.00000000      24.80124484 </v>
   </varray>
   <i name="volume">    742.68230579 </i>
   <varray name="rec_basis" >
    <v>       0.17005935      -0.09818381       0.00000000 </v>
    <v>       0.00000000       0.19636762       0.00000000 </v>
    <v>       0.00000000       0.00000000       0.04032056 </v>
   </varray>
  </crystal>
  <varray name="positions" >
   <v>       0.16666667       0.16666667       0.40351343 </v>
   <v>       0.66698622       0.16602757       0.40195179 </v>
   <v>       0.16602757       0.66698622       0.40195179 </v>
   <v>       0.66698622       0.66698622       0.40195179 </v>
   <v>       0.83676353       0.33161824       0.49932906 </v>
   <v>       0.33161824       0.33161824       0.49932906 </v>
   <v>       0.83333333       0.83333333       0.50252501 </v>
   <v>       0.33161824       0.83676353       0.49932906 </v>
   <v>      -0.01068899      -0.01068899       0.60031121 </v>
   <v>       0.52137798      -0.01068899       0.60031121 </v>
   <v>      -0.01068899       0.52137798       0.60031121 </v>
   <v>       0.50000000       0.50000000       0.58976581 </v>
   <v>       0.16666667       0.16666667       0.64459867 </v>
  </varray>
 </structure>
</modeling>
