unknown system                          
           1
     5.880300    0.000000    0.000000
     2.940150    5.092489    0.000000
     0.000000    0.000000   24.801245
   Au   O 
  12   1
Direct configuration=     1
   0.16666667  0.16666667  0.40320557
   0.66666667  0.16666667  0.40320557
   0.16666667  0.66666667  0.40320557
   0.66666667  0.66666667  0.40320557
   0.83333333  0.33333333  0.50000000
   0.33333333  0.33333333  0.50000000
   0.83333333  0.83333333  0.50000000
   0.33333333  0.83333333  0.50000000
   0.00000000  0.00000000  0.59679443
   0.50000000  0.00000000  0.59679443
   0.00000000  0.50000000  0.59679443
   0.50000000  0.50000000  0.59679443
   0.16666667  0.16666667  0.64517910
Direct configuration=     2
   0.16666667  0.16666667  0.40325044
   0.66657663  0.16684673  0.40298231
   0.16684673  0.66657663  0.40298231
   0.66657663  0.66657663  0.40298231
   0.83269899  0.33365051  0.49992727
   0.33365051  0.33365051  0.49992727
   0.83333333  0.83333333  0.50117195
   0.33365051  0.83269899  0.49992727
  -0.00804703 -0.00804703  0.59630639
   0.51609406 -0.00804703  0.59630639
  -0.00804703  0.51609406  0.59630639
   0.50000000  0.50000000  0.59595491
   0.16666667  0.16666667  0.64715390
Direct configuration=     3
   0.16666667  0.16666667  0.40324390
   0.66658976  0.16682047  0.40301487
   0.16682047  0.66658976  0.40301487
   0.66658976  0.66658976  0.40301487
   0.83279150  0.33360425  0.49993787
   0.33360425  0.33360425  0.49993787
   0.83333333  0.83333333  0.50100104
   0.33360425  0.83279150  0.49993787
  -0.00687350 -0.00687350  0.59637756
   0.51374699 -0.00687350  0.59637756
  -0.00687350  0.51374699  0.59637756
   0.50000000  0.50000000  0.59607735
   0.16666667  0.16666667  0.64686591
Direct configuration=     4
   0.16666667  0.16666667  0.40331441
   0.66666445  0.16667111  0.40284963
   0.16667111  0.66666445  0.40284963
   0.66666445  0.66666445  0.40284963
   0.83279939  0.33360031  0.49992647
   0.33360031  0.33360031  0.49992647
   0.83333333  0.83333333  0.50132279
   0.33360031  0.83279939  0.49992647
  -0.00789219 -0.00789219  0.59695082
   0.51578439 -0.00789219  0.59695082
  -0.00789219  0.51578439  0.59695082
   0.50000000  0.50000000  0.59530806
   0.16666667  0.16666667  0.64605310
Direct configuration=     5
   0.16666667  0.16666667  0.40352597
   0.66688850  0.16622301  0.40235389
   0.16622301  0.66688850  0.40235389
   0.66688850  0.66688850  0.40235389
   0.83282306  0.33358847  0.49989226
   0.33358847  0.33358847  0.49989226
   0.83333333  0.83333333  0.50228803
   0.33358847  0.83282306  0.49989226
  -0.01094829 -0.01094829  0.59867059
   0.52189658 -0.01094829  0.59867059
  -0.01094829  0.52189658  0.59867059
   0.50000000  0.50000000  0.59300021
   0.16666667  0.16666667  0.64361466
Direct configuration=     6
   0.16666667  0.16666667  0.40357157
   0.66693678  0.16612643  0.40224705
   0.16612643  0.66693678  0.40224705
   0.66693678  0.66693678  0.40224705
   0.83282816  0.33358592  0.49988489
   0.33358592  0.33358592  0.49988489
   0.83333333  0.83333333  0.50249606
   0.33358592  0.83282816  0.49988489
  -0.01160695 -0.01160695  0.59904124
   0.52321391 -0.01160695  0.59904124
  -0.01160695  0.52321391  0.59904124
   0.50000000  0.50000000  0.59250281
   0.16666667  0.16666667  0.64308912
Direct configuration=     7
   0.16666667  0.16666667  0.40378241
   0.66711155  0.16577691  0.40217704
   0.16577691  0.66711155  0.40217704
   0.66711155  0.66711155  0.40217704
   0.83477621  0.33261189  0.49975815
   0.33261189  0.33261189  0.49975815
   0.83333333  0.83333333  0.50219038
   0.33261189  0.83477621  0.49975815
  -0.01023714 -0.01023714  0.59968424
   0.52047428 -0.01023714  0.59968424
  -0.01023714  0.52047428  0.59968424
   0.50000000  0.50000000  0.59169990
   0.16666667  0.16666667  0.64264809
Direct configuration=     8
   0.16666667  0.16666667  0.40370131
   0.66704432  0.16591136  0.40220397
   0.16591136  0.66704432  0.40220397
   0.66704432  0.66704432  0.40220397
   0.83402688  0.33298656  0.49980690
   0.33298656  0.33298656  0.49980690
   0.83333333  0.83333333  0.50230796
   0.33298656  0.83402688  0.49980690
  -0.01076405 -0.01076405  0.59943691
   0.52152810 -0.01076405  0.59943691
  -0.01076405  0.52152810  0.59943691
   0.50000000  0.50000000  0.59200875
   0.16666667  0.16666667  0.64281774
Direct configuration=     9
   0.16666667  0.16666667  0.40384274
   0.66712821  0.16574357  0.40216520
   0.16574357  0.66712821  0.40216520
   0.66712821  0.66712821  0.40216520
   0.83561501  0.33219249  0.49968600
   0.33219249  0.33219249  0.49968600
   0.83333333  0.83333333  0.50211152
   0.33219249  0.83561501  0.49968600
  -0.01088767 -0.01088767  0.59964511
   0.52177535 -0.01088767  0.59964511
  -0.01088767  0.52177535  0.59964511
   0.50000000  0.50000000  0.59141441
   0.16666667  0.16666667  0.64332150
Direct configuration=    10
   0.16666667  0.16666667  0.40399870
   0.66722072  0.16555857  0.40212245
   0.16555857  0.66722072  0.40212245
   0.66722072  0.66722072  0.40212245
   0.83736621  0.33131690  0.49955268
   0.33131690  0.33131690  0.49955268
   0.83333333  0.83333333  0.50189491
   0.33131690  0.83736621  0.49955268
  -0.01102399 -0.01102399  0.59987468
   0.52204798 -0.01102399  0.59987468
  -0.01102399  0.52204798  0.59987468
   0.50000000  0.50000000  0.59075906
   0.16666667  0.16666667  0.64387700
Direct configuration=    11
   0.16666667  0.16666667  0.40386007
   0.66705638  0.16588724  0.40206127
   0.16588724  0.66705638  0.40206127
   0.66705638  0.66705638  0.40206127
   0.83702940  0.33148530  0.49951380
   0.33148530  0.33148530  0.49951380
   0.83333333  0.83333333  0.50198654
   0.33148530  0.83702940  0.49951380
  -0.01086397 -0.01086397  0.60008949
   0.52172794 -0.01086397  0.60008949
  -0.01086397  0.52172794  0.60008949
   0.50000000  0.50000000  0.59004309
   0.16666667  0.16666667  0.64429574
Direct configuration=    12
   0.16666667  0.16666667  0.40380358
   0.66698941  0.16602119  0.40203634
   0.16602119  0.66698941  0.40203634
   0.66698941  0.66698941  0.40203634
   0.83689213  0.33155393  0.49949795
   0.33155393  0.33155393  0.49949795
   0.83333333  0.83333333  0.50202388
   0.33155393  0.83689213  0.49949795
  -0.01079875 -0.01079875  0.60017703
   0.52159751 -0.01079875  0.60017703
  -0.01079875  0.52159751  0.60017703
   0.50000000  0.50000000  0.58975130
   0.16666667  0.16666667  0.64446639
Direct configuration=    13
   0.16666667  0.16666667  0.40363153
   0.66698751  0.16602497  0.40198620
   0.16602497  0.66698751  0.40198620
   0.66698751  0.66698751  0.40198620
   0.83681588  0.33159206  0.49939780
   0.33159206  0.33159206  0.49939780
   0.83333333  0.83333333  0.50232103
   0.33159206  0.83681588  0.49939780
  -0.01073367 -0.01073367  0.60025659
   0.52146733 -0.01073367  0.60025659
  -0.01073367  0.52146733  0.60025659
   0.50000000  0.50000000  0.58975990
   0.16666667  0.16666667  0.64454483
Direct configuration=    14
   0.16666667  0.16666667  0.40351343
   0.66698622  0.16602757  0.40195179
   0.16602757  0.66698622  0.40195179
   0.66698622  0.66698622  0.40195179
   0.83676353  0.33161824  0.49932906
   0.33161824  0.33161824  0.49932906
   0.83333333  0.83333333  0.50252501
   0.33161824  0.83676353  0.49932906
  -0.01068899 -0.01068899  0.60031121
   0.52137798 -0.01068899  0.60031121
  -0.01068899  0.52137798  0.60031121
   0.50000000  0.50000000  0.58976581
   0.16666667  0.16666667  0.64459867
