----- GAMESS execution script 'rungms' -----
This job is running on host crcfe01.crc.nd.edu
under operating system Linux at Thu Oct 17 23:40:50 EDT 2019
Available scratch disk space (Kbyte units) at beginning of the job is
Filesystem      1K-blocks  Used  Available Use% Mounted on
AFS            2147483647     0 2147483647   0% /afs
GAMESS temporary binary files will be written to /afs/crc.nd.edu/user/c/cdrisko
GAMESS supplementary output files will be written to /afs/crc.nd.edu/user/c/cdrisko/scr
Copying input file acetaldehyde.inp to your run's scratch directory...

 Distributed Data Interface kickoff program.
 Initiating 1 compute processes on 1 nodes to run the following command:
 /afs/crc.nd.edu/x86_64_linux/g/gamess/nov-2017/gamess/gamess.00.x acetaldehyde 

          ******************************************************
          *         GAMESS VERSION = 11 NOV 2017 (R3)         *
          *             FROM IOWA STATE UNIVERSITY             *
          * M.W.SCHMIDT, K.K.BALDRIDGE, J.A.BOATZ, S.T.ELBERT, *
          *   M.S.GORDON, J.H.JENSEN, S.KOSEKI, N.MATSUNAGA,   *
          *          K.A.NGUYEN, S.J.SU, T.L.WINDUS,           *
          *       TOGETHER WITH M.DUPUIS, J.A.MONTGOMERY       *
          *         J.COMPUT.CHEM.  14, 1347-1363(1993)        *
          **************** 64 BIT INTEL VERSION ****************

  SINCE 1993, STUDENTS AND POSTDOCS WORKING AT IOWA STATE UNIVERSITY
  AND ALSO IN THEIR VARIOUS JOBS AFTER LEAVING ISU HAVE MADE IMPORTANT
  CONTRIBUTIONS TO THE CODE:
     IVANA ADAMOVIC, CHRISTINE AIKENS, YURI ALEXEEV, POOJA ARORA,
     ANDREY ASADCHEV, ROB BELL, PRADIPTA BANDYOPADHYAY, JONATHAN BENTZ,
     BRETT BODE, KURT BRORSEN, CALEB CARLIN, GALINA CHABAN, WEI CHEN,
     CHEOL HO CHOI, PAUL DAY, ALBERT DEFUSCO, NUWAN DESILVA, TIM DUDLEY,
     DMITRI FEDOROV, ALEX FINDLATER, GRAHAM FLETCHER, MARK FREITAG,
     KURT GLAESEMANN, ANASTASIA GUININA,
     DAN KEMP, GRANT MERRILL, NORIYUKI MINEZAWA, JONATHAN MULLIN,
     TAKESHI NAGATA, SEAN NEDD, HEATHER NETZLOFF, BOSILJKA NJEGIC, RYAN OLSON,
     MIKE PAK, BUU PHAM,
     SPENCER PRUITT, LUKE ROSKOP, JIM SHOEMAKER, LYUDMILA SLIPCHENKO,
     TONY SMITH, SAROM SOK LEANG, JIE SONG, TETSUYA TAKETSUGU, SIMON WEBB,
     PENG XU, SOOHAENG YOO, FEDERICO ZAHARIEV

  ADDITIONAL CODE HAS BEEN PROVIDED BY COLLABORATORS IN OTHER GROUPS:
     IOWA STATE UNIVERSITY:
          JOE IVANIC, AARON WEST, LAIMUTIS BYTAUTAS, KLAUS RUEDENBERG
     UNIVERSITY OF TOKYO: KIMIHIKO HIRAO, TAKAHITO NAKAJIMA,
          TAKAO TSUNEDA, MUNEAKI KAMIYA, SUSUMU YANAGISAWA,
          KIYOSHI YAGI, MAHITO CHIBA, SEIKEN TOKURA, NAOAKI KAWAKAMI
     UNIVERSITY OF AARHUS: FRANK JENSEN
     UNIVERSITY OF IOWA: VISVALDAS KAIRYS, HUI LI
     NATIONAL INST. OF STANDARDS AND TECHNOLOGY: WALT STEVENS, DAVID GARMER
     UNIVERSITY OF PISA: BENEDETTA MENNUCCI, JACOPO TOMASI
     UNIVERSITY OF MEMPHIS: HENRY KURTZ, PRAKASHAN KORAMBATH
     UNIVERSITY OF ALBERTA: TOBY ZENG, MARIUSZ KLOBUKOWSKI
     UNIVERSITY OF NEW ENGLAND: MARK SPACKMAN
     MIE UNIVERSITY: HIROAKI UMEDA
     NAT. INST. OF ADVANCED INDUSTRIAL SCIENCE AND TECHNOLOGY: KAZUO KITAURA
     MICHIGAN STATE UNIVERSITY:
          KAROL KOWALSKI, MARTA WLOCH, JEFFREY GOUR, JESSE LUTZ,
          WEI LI, PIOTR PIECUCH
     UNIVERSITY OF SILESIA: MONIKA MUSIAL, STANISLAW KUCHARSKI
     FACULTES UNIVERSITAIRES NOTRE-DAME DE LA PAIX:
          OLIVIER QUINET, BENOIT CHAMPAGNE
     UNIVERSITY OF CALIFORNIA - SANTA BARBARA: BERNARD KIRTMAN
     INSTITUTE FOR MOLECULAR SCIENCE:
          KAZUYA ISHIMURA, MICHIO KATOUDA, AND SHIGERU NAGASE
     UNIVERSITY OF NOTRE DAME: ANNA POMOGAEVA, DAN CHIPMAN
     KYUSHU UNIVERSITY:
          HARUYUKI NAKANO,
          FENG LONG GU, JACEK KORCHOWIEC, MARCIN MAKOWSKI, AND YURIKO AOKI,
          HIROTOSHI MORI AND EISAKU MIYOSHI
     PENNSYLVANIA STATE UNIVERSITY:
          TZVETELIN IORDANOV, CHET SWALINA, JONATHAN SKONE,
          SHARON HAMMES-SCHIFFER
     WASEDA UNIVERSITY:
          MASATO KOBAYASHI, TOMOKO AKAMA, TSUGUKI TOUMA,
          TAKESHI YOSHIKAWA, YASUHIRO IKABATA, JUNJI SEINO,
          YUYA NAKAJIMA, HIROMI NAKAI
     NANJING UNIVERSITY: SHUHUA LI
     UNIVERSITY OF NEBRASKA:
          PEIFENG SU, DEJUN SI, NANDUN THELLAMUREGE, YALI WANG, HUI LI
     UNIVERSITY OF ZURICH: ROBERTO PEVERATI, KIM BALDRIDGE
     N. COPERNICUS UNIVERSITY AND JACKSON STATE UNIVERSITY:
          MARIA BARYSZ
     UNIVERSITY OF COPENHAGEN: Jimmy Kromann, CASPER STEINMANN
     TOKYO INSTITUTE OF TECHNOLOGY: HIROYA NAKATA
     NAGOYA UNIVERSITY: YOSHIO NISHIMOTO, STEPHAN IRLE
     MOSCOW STATE UNIVERSITY: VLADIMIR MIRONOV

 EXECUTION OF GAMESS BEGUN Thu Oct 17 23:40:50 2019

            ECHO OF THE FIRST FEW INPUT CARDS -
 INPUT CARD> $CONTRL SCFTYP=RHF DFTTYP=B3LYP RUNTYP=ENERGY                                  
 INPUT CARD>       ISPHER=1 MULT=1 COORD=ZMT NZVAR=15 $END                                  
 INPUT CARD> $BASIS GBASIS=N31 NGAUSS=6 NDFUNC=1 $END                                       
 INPUT CARD> $STATPT IFREEZ(1)=9 $END                                                       
 INPUT CARD> $DATA                                                                          
 INPUT CARD>Title Single Point Energy Calculation of Acetaldehyde                           
 INPUT CARD>C1                                                                              
 INPUT CARD>C                                                                               
 INPUT CARD>C      1   1.5086892                                                            
 INPUT CARD>O      2   1.2107245  1  124.7161                                               
 INPUT CARD>H      2   1.1145804  1  114.7739  3  180.0000  0                               
 INPUT CARD>H      1   1.0926781  2  110.5176  3  0.      0                                 
 INPUT CARD>H      1   1.0983769  2  109.8265  3  121.4889  0                               
 INPUT CARD>H      1   1.0983769  2  109.8265  3 -121.4889  0                               
 INPUT CARD> $END                                                                           
    1000000 WORDS OF MEMORY AVAILABLE

     BASIS OPTIONS
     -------------
     GBASIS=N31          IGAUSS=       6      POLAR=POPN31  
     NDFUNC=       1     NFFUNC=       0     DIFFSP=       F
     NPFUNC=       0      DIFFS=       F     BASNAM=        


     RUN TITLE
     ---------
 Title Single Point Energy Calculation of Acetaldehyde                           

 THE POINT GROUP OF THE MOLECULE IS C1      
 THE ORDER OF THE PRINCIPAL AXIS IS     0

 YOUR FULLY SUBSTITUTED Z-MATRIX IS
 C   
 C      1   1.5086892
 O      2   1.2107245  1  124.7161
 H      2   1.1145804  1  114.7739  3  180.0000  0
 H      1   1.0926781  2  110.5176  3    0.0000  0
 H      1   1.0983769  2  109.8265  3  121.4889  0
 H      1   1.0983769  2  109.8265  3 -121.4889  0

 THE MOMENTS OF INERTIA ARE (AMU-ANGSTROM**2)
 IXX=     8.889   IYY=    50.194   IZZ=    55.953

 ATOM      ATOMIC                      COORDINATES (BOHR)
           CHARGE         X                   Y                   Z
 C           6.0    -2.3884272227        0.3118083862        0.0000000000
 C           6.0     0.2403186739       -0.7917986113        0.0000000000
 O           8.0     2.1697281769        0.4378506110        0.0000000000
 H           1.0     0.3138307101       -2.8967669154        0.0000000000
 H           1.0    -2.3071390650        2.3750699178        0.0000000000
 H           1.0    -3.4323410984       -0.3560732952       -1.6650596005
 H           1.0    -3.4323410984       -0.3560732952        1.6650596005

          INTERNUCLEAR DISTANCES (ANGS.)
          ------------------------------

                1 C          2 C          3 O          4 H          5 H     

   1 C       0.0000000    1.5086892 *  2.4129941 *  2.2198436 *  1.0926781 *
   2 C       1.5086892 *  0.0000000    1.2107245 *  1.1145804 *  2.1507392 *
   3 O       2.4129941 *  1.2107245 *  0.0000000    2.0194911 *  2.5813415 *
   4 H       2.2198436 *  1.1145804 *  2.0194911 *  0.0000000    3.1154902  
   5 H       1.0926781 *  2.1507392 *  2.5813415 *  3.1154902    0.0000000  
   6 H       1.0983769 *  2.1463151 *  3.1210656    2.5522231 *  1.7943437 *
   7 H       1.0983769 *  2.1463151 *  3.1210656    2.5522231 *  1.7943437 *

                6 H          7 H     

   1 C       1.0983769 *  1.0983769 *
   2 C       2.1463151 *  2.1463151 *
   3 O       3.1210656    3.1210656  
   4 H       2.5522231 *  2.5522231 *
   5 H       1.7943437 *  1.7943437 *
   6 H       0.0000000    1.7622233 *
   7 H       1.7622233 *  0.0000000  

  * ... LESS THAN  3.000


     ATOMIC BASIS SET
     ----------------
 THE CONTRACTED PRIMITIVE FUNCTIONS HAVE BEEN UNNORMALIZED
 THE CONTRACTED BASIS FUNCTIONS ARE NOW NORMALIZED TO UNITY

  SHELL TYPE  PRIMITIVE        EXPONENT          CONTRACTION COEFFICIENT(S)

 C         

      1   S       1          3047.5248800    0.001834737132
      1   S       2           457.3695180    0.014037322813
      1   S       3           103.9486850    0.068842622264
      1   S       4            29.2101553    0.232184443216
      1   S       5             9.2866630    0.467941348435
      1   S       6             3.1639270    0.362311985337

      2   L       7             7.8682723   -0.119332419775    0.068999066591
      2   L       8             1.8812885   -0.160854151696    0.316423960957
      2   L       9             0.5442493    1.143456437840    0.744308290898

      3   L      10             0.1687145    1.000000000000    1.000000000000

      4   D      11             0.8000000    1.000000000000

 C         

      5   S      12          3047.5248800    0.001834737132
      5   S      13           457.3695180    0.014037322813
      5   S      14           103.9486850    0.068842622264
      5   S      15            29.2101553    0.232184443216
      5   S      16             9.2866630    0.467941348435
      5   S      17             3.1639270    0.362311985337

      6   L      18             7.8682723   -0.119332419775    0.068999066591
      6   L      19             1.8812885   -0.160854151696    0.316423960957
      6   L      20             0.5442493    1.143456437840    0.744308290898

      7   L      21             0.1687145    1.000000000000    1.000000000000

      8   D      22             0.8000000    1.000000000000

 O         

      9   S      23          5484.6716600    0.001831074430
      9   S      24           825.2349460    0.013950172200
      9   S      25           188.0469580    0.068445078098
      9   S      26            52.9645000    0.232714335992
      9   S      27            16.8975704    0.470192897984
      9   S      28             5.7996353    0.358520852987

     10   L      29            15.5396162   -0.110777549525    0.070874268231
     10   L      30             3.5999336   -0.148026262701    0.339752839147
     10   L      31             1.0137618    1.130767015354    0.727158577316

     11   L      32             0.2700058    1.000000000000    1.000000000000

     12   D      33             0.8000000    1.000000000000

 H         

     13   S      34            18.7311370    0.033494604338
     13   S      35             2.8253944    0.234726953484
     13   S      36             0.6401217    0.813757326146

     14   S      37             0.1612778    1.000000000000

 H         

     15   S      38            18.7311370    0.033494604338
     15   S      39             2.8253944    0.234726953484
     15   S      40             0.6401217    0.813757326146

     16   S      41             0.1612778    1.000000000000

 H         

     17   S      42            18.7311370    0.033494604338
     17   S      43             2.8253944    0.234726953484
     17   S      44             0.6401217    0.813757326146

     18   S      45             0.1612778    1.000000000000

 H         

     19   S      46            18.7311370    0.033494604338
     19   S      47             2.8253944    0.234726953484
     19   S      48             0.6401217    0.813757326146

     20   S      49             0.1612778    1.000000000000

 TOTAL NUMBER OF BASIS SET SHELLS             =   20
 NUMBER OF CARTESIAN GAUSSIAN BASIS FUNCTIONS =   53
 NOTE: THIS RUN WILL RESTRICT THE MO VARIATION SPACE TO SPHERICAL HARMONICS.
 THE NUMBER OF ORBITALS KEPT IN THE VARIATIONAL SPACE WILL BE PRINTED LATER.
 NUMBER OF ELECTRONS                          =   24
 CHARGE OF MOLECULE                           =    0
 SPIN MULTIPLICITY                            =    1
 NUMBER OF OCCUPIED ORBITALS (ALPHA)          =   12
 NUMBER OF OCCUPIED ORBITALS (BETA )          =   12
 TOTAL NUMBER OF ATOMS                        =    7
 THE NUCLEAR REPULSION ENERGY IS       69.4579862586

     LEBEDEV GRID-BASED DFT OPTIONS
     ------------------------------
     DFTTYP=B3LYP   
     NRAD  =      96     NLEB  =     302
     NRAD0 =      24     NLEB0 =     110
     SWOFF =    5.00E-03 (PURE SCF -> DFT)
     SWITCH=    3.00E-04 (COARSE -> TIGHT GRID)
     THRESH=    0.00E+00 GTHRE=    1.00E+00

 GRIMME'S EMPIRICAL DISPERSION CORRECTION= F

     $CONTRL OPTIONS
     ---------------
 SCFTYP=RHF          RUNTYP=ENERGY       EXETYP=RUN     
 MPLEVL=       0     CITYP =NONE         CCTYP =NONE         VBTYP =NONE    
 DFTTYP=B3LYP        TDDFT =NONE    
 MULT  =       1     ICHARG=       0     NZVAR =      15     COORD =ZMT     
 PP    =NONE         RELWFN=NONE         LOCAL =NONE         NUMGRD=       F
 ISPHER=       1     NOSYM =       0     MAXIT =      30     UNITS =ANGS    
 PLTORB=       F     MOLPLT=       F     AIMPAC=       F     FRIEND=        
 NPRINT=       7     IREST =       0     GEOM  =INPUT   
 NORMF =       0     NORMP =       0     ITOL  =      20     ICUT  =       9
 INTTYP=BEST         GRDTYP=BEST         QMTTOL= 1.0E-06

     $SYSTEM OPTIONS
     ---------------
  REPLICATED MEMORY=     1000000 WORDS (ON EVERY NODE).
 DISTRIBUTED MEMDDI=           0 MILLION WORDS IN AGGREGATE,
 MEMDDI DISTRIBUTED OVER   1 PROCESSORS IS           0 WORDS/PROCESSOR.
 TOTAL MEMORY REQUESTED ON EACH PROCESSOR=     1000000 WORDS.
 TIMLIM=      525600.00 MINUTES, OR     365.0 DAYS.
 PARALL= F  BALTYP=  DLB     KDIAG=    0  COREFL= F
 MXSEQ2=     300 MXSEQ3=     150  mem10=         0

          ----------------
          PROPERTIES INPUT
          ----------------

     MOMENTS            FIELD           POTENTIAL          DENSITY
 IEMOM =       1   IEFLD =       0   IEPOT =       0   IEDEN =       0
 WHERE =COMASS     WHERE =NUCLEI     WHERE =NUCLEI     WHERE =NUCLEI  
 OUTPUT=BOTH       OUTPUT=BOTH       OUTPUT=BOTH       OUTPUT=BOTH    
 IEMINT=       0   IEFINT=       0                     IEDINT=       0
                                                       MORB  =       0
          EXTRAPOLATION IN EFFECT
          DIIS IN EFFECT
 ORBITAL PRINTING OPTION: NPREO=     1    53     2     1

     -------------------------------
     INTEGRAL TRANSFORMATION OPTIONS
     -------------------------------
     NWORD  =            0
     CUTOFF = 1.0E-09     MPTRAN =       0
     DIRTRF =       F     AOINTS =DUP     

          ----------------------
          INTEGRAL INPUT OPTIONS
          ----------------------
 NOPK  =       1 NORDER=       0 SCHWRZ=       T

   --- ENCODED Z MATRIX ---
 COORD  TYPE   I   J   K   L   M   N
    1      1    2   1
    2      1    3   2
    3      2    3   2   1
    4      1    4   2
    5      2    4   2   1
    6      3    4   2   1   3
    7      1    5   1
    8      2    5   1   2
    9      3    5   1   2   3
   10      1    6   1
   11      2    6   1   2
   12      3    6   1   2   3
   13      1    7   1
   14      2    7   1   2
   15      3    7   1   2   3

 THE DETERMINANT OF THE G MATRIX IS 10**(    -8)


                     --------------------
                     INTERNAL COORDINATES
                     --------------------

                 - - ATOMS - -         COORDINATE      COORDINATE
 NO.   TYPE    I  J  K  L  M  N        (BOHR,RAD)       (ANG,DEG)
 ----------------------------------------------------------------
   1 STRETCH   2  1                     2.8510092       1.5086892
   2 STRETCH   3  2                     2.2879376       1.2107245
   3 BEND      3  2  1                  2.1767066     124.7161000
   4 STRETCH   4  2                     2.1062515       1.1145804
   5 BEND      4  2  1                  2.0031825     114.7739000
   6 TORSION   4  2  1  3               3.1415927     180.0000000
   7 STRETCH   5  1                     2.0648622       1.0926781
   8 BEND      5  1  2                  1.9288960     110.5176000
   9 TORSION   5  1  2  3               0.0000000       0.0000000
  10 STRETCH   6  1                     2.0756314       1.0983769
  11 BEND      6  1  2                  1.9168340     109.8265000
  12 TORSION   6  1  2  3               2.1203813     121.4889000
  13 STRETCH   7  1                     2.0756314       1.0983769
  14 BEND      7  1  2                  1.9168340     109.8265000
  15 TORSION   7  1  2  3              -2.1203813    -121.4889000

     ------------------------------------------
     THE POINT GROUP IS C1 , NAXIS= 0, ORDER= 1
     ------------------------------------------

 -- VARIATIONAL SPACE WILL BE RESTRICTED TO PURE SPHERICAL HARMONICS ONLY --
 AFTER EXCLUDING CONTAMINANT COMBINATIONS FROM THE CARTESIAN GAUSSIAN BASIS
 SET, THE NUMBER OF SPHERICAL HARMONICS KEPT IN THE VARIATION SPACE IS   50

     DIMENSIONS OF THE SYMMETRY SUBSPACES ARE
 A   =   50

 ..... DONE SETTING UP THE RUN .....
 STEP CPU TIME =     0.02 TOTAL CPU TIME =          0.0 (      0.0 MIN)
 TOTAL WALL CLOCK TIME=          0.0 SECONDS, CPU UTILIZATION IS   100.00%

          ********************
          1 ELECTRON INTEGRALS
          ********************
 ...... END OF ONE-ELECTRON INTEGRALS ......
 STEP CPU TIME =     0.00 TOTAL CPU TIME =          0.0 (      0.0 MIN)
 TOTAL WALL CLOCK TIME=          0.0 SECONDS, CPU UTILIZATION IS   100.00%

          -------------
          GUESS OPTIONS
          -------------
          GUESS =HUCKEL            NORB  =       0          NORDER=       0
          MIX   =       F          PRTMO =       F          PUNMO =       F
          TOLZ  = 1.0E-08          TOLE  = 1.0E-05
          SYMDEN=       F          PURIFY=       F

 INITIAL GUESS ORBITALS GENERATED BY HUCKEL   ROUTINE.
 HUCKEL GUESS REQUIRES     27154 WORDS.

 STATISTICS FOR GENERATION OF SYMMETRY ORBITAL -Q- MATRIX
 NUMBER OF CARTESIAN ATOMIC ORBITALS=         53
 NUMBER OF SPHERICAL CONTAMINANTS DROPPED=     3
 NUMBER OF LINEARLY DEPENDENT MOS DROPPED=     0
 TOTAL NUMBER OF MOS IN VARIATION SPACE=      50

 SYMMETRIES FOR INITIAL GUESS ORBITALS FOLLOW.   BOTH SET(S).
    12 ORBITALS ARE OCCUPIED (    3 CORE ORBITALS).
     4=A        5=A        6=A        7=A        8=A        9=A       10=A   
    11=A       12=A       13=A       14=A       15=A       16=A       17=A   
    18=A       19=A       20=A       21=A       22=A   
 ...... END OF INITIAL ORBITAL SELECTION ......
 STEP CPU TIME =     0.00 TOTAL CPU TIME =          0.0 (      0.0 MIN)
 TOTAL WALL CLOCK TIME=          0.0 SECONDS, CPU UTILIZATION IS    66.67%

                    ----------------------
                    AO INTEGRAL TECHNOLOGY
                    ----------------------
     S,P,L SHELL ROTATED AXIS INTEGRALS, REPROGRAMMED BY
        KAZUYA ISHIMURA (IMS) AND JOSE SIERRA (SYNSTAR).
     S,P,D,L SHELL ROTATED AXIS INTEGRALS PROGRAMMED BY
        KAZUYA ISHIMURA (INSTITUTE FOR MOLECULAR SCIENCE).
     S,P,D,F,G SHELL TO TOTAL QUARTET ANGULAR MOMENTUM SUM 5,
        ERIC PROGRAM BY GRAHAM FLETCHER (ELORET AND NASA ADVANCED
        SUPERCOMPUTING DIVISION, AMES RESEARCH CENTER).
     S,P,D,F,G,L SHELL GENERAL RYS QUADRATURE PROGRAMMED BY
        MICHEL DUPUIS (PACIFIC NORTHWEST NATIONAL LABORATORY).

          --------------------
          2 ELECTRON INTEGRALS
          --------------------

 THE -PK- OPTION IS OFF, THE INTEGRALS ARE NOT IN SUPERMATRIX FORM.
 STORING   15000 INTEGRALS/RECORD ON DISK, USING 12 BYTES/INTEGRAL.
 TWO ELECTRON INTEGRAL EVALUATION REQUIRES   90606 WORDS OF MEMORY.
 SCHWARZ INEQUALITY OVERHEAD:      1430 INTEGRALS, T=        0.00
 II,JST,KST,LST =  1  1  1  1 NREC =         1 INTLOC =    1
 II,JST,KST,LST =  2  1  1  1 NREC =         1 INTLOC =    2
 II,JST,KST,LST =  3  1  1  1 NREC =         1 INTLOC =   34
 II,JST,KST,LST =  4  1  1  1 NREC =         1 INTLOC =  214
 II,JST,KST,LST =  5  1  1  1 NREC =         1 INTLOC = 1189
 II,JST,KST,LST =  6  1  1  1 NREC =         1 INTLOC = 2363
 II,JST,KST,LST =  7  1  1  1 NREC =         1 INTLOC = 9257
 II,JST,KST,LST =  8  1  1  1 NREC =         2 INTLOC = 6296
 II,JST,KST,LST =  9  1  1  1 NREC =         4 INTLOC = 7022
 II,JST,KST,LST = 10  1  1  1 NREC =         4 INTLOC =14203
 II,JST,KST,LST = 11  1  1  1 NREC =         7 INTLOC = 8211
 II,JST,KST,LST = 12  1  1  1 NREC =        11 INTLOC = 3704
 II,JST,KST,LST = 13  1  1  1 NREC =        18 INTLOC =14971
 II,JST,KST,LST = 14  1  1  1 NREC =        20 INTLOC =11789
 II,JST,KST,LST = 15  1  1  1 NREC =        22 INTLOC =10789
 II,JST,KST,LST = 16  1  1  1 NREC =        24 INTLOC =11478
 II,JST,KST,LST = 17  1  1  1 NREC =        26 INTLOC =14765
 II,JST,KST,LST = 18  1  1  1 NREC =        30 INTLOC =13998
 II,JST,KST,LST = 19  1  1  1 NREC =        35 INTLOC = 4672
 II,JST,KST,LST = 20  1  1  1 NREC =        39 INTLOC =10889
 SCHWARZ INEQUALITY TEST SKIPPED         774 INTEGRAL BLOCKS.
 TOTAL NUMBER OF NONZERO TWO-ELECTRON INTEGRALS =              654140
         44 INTEGRAL RECORDS WERE STORED ON DISK FILE  8.
  ...... END OF TWO-ELECTRON INTEGRALS .....
 STEP CPU TIME =     0.09 TOTAL CPU TIME =          0.1 (      0.0 MIN)
 TOTAL WALL CLOCK TIME=          0.1 SECONDS, CPU UTILIZATION IS    91.67%

          --------------------------
             R-B3LYP SCF CALCULATION
          --------------------------

     NUCLEAR ENERGY =        69.4579862586
     MAXIT =   30     NPUNCH=    2
     EXTRAP=T  DAMP=F  SHIFT=F  RSTRCT=F  DIIS=T  DEM=F  SOSCF=F
         DENSITY MATRIX CONVERGENCE THRESHOLD=  1.00E-05
     COARSE -> FINE DFT GRID SWITCH THRESHOLD=  3.00E-04 (SWITCH IN $DFT)
                   HF -> DFT SWITCH THRESHOLD=  5.00E-03 (SWOFF IN $DFT)
     MEMORY REQUIRED FOR RHF ITERS=    307426 WORDS.

 DFT CODE IS SWITCHING FROM THE FINE GRID NRAD= 96,  NLEB=  302
                      TO THE COARSE GRID NRAD0= 24, NLEB0=  110

     EXCHANGE FUNCTIONAL   =B88&HFX   
     CORRELATION FUNCTIONAL=LYP88&VWN5
     DFT THRESHOLD         =.197E-07
     GRID CHANGE THRESHOLD =.300E-03
 FOR AN EULER-MACLAURIN QUADRATURE USING  96 RADIAL POINTS:
 SMALLEST GAUSSIAN PRIMITIVE EXPONENT=        0.1612777588 OF TYPE -S-
 ON ATOM NUMBER   4 HAS RADIAL NORMALIZATION=  1.000000
  LARGEST GAUSSIAN PRIMITIVE EXPONENT=     5484.6716600000 OF TYPE -S-
 ON ATOM NUMBER   3 HAS RADIAL NORMALIZATION=  1.000000
 DFT IS SWITCHED OFF, PERFORMING PURE SCF UNTIL SWOFF THRESHOLD IS REACHED.

 ITER EX DEM     TOTAL ENERGY        E CHANGE  DENSITY CHANGE    DIIS ERROR
   1  0  0     -152.4614351044  -152.4614351044   0.248845871   0.512839373
          * * *   INITIATING DIIS PROCEDURE   * * *
   2  1  0     -152.8550927826    -0.3936576782   0.150291038   0.130326123
   3  2  0     -152.8864144637    -0.0313216810   0.074677257   0.112080982
   4  3  0     -152.9129301931    -0.0265157294   0.009197981   0.007409769
   5  4  0     -152.9134901207    -0.0005599277   0.004568534   0.003589212
 CONVERGED TO SWOFF, SO DFT CALCULATION IS NOW SWITCHED ON.
          * * *   INITIATING DIIS PROCEDURE   * * *
   6  5  0     -153.7253164520    -0.8118263312   0.093294463   0.059075164
   7  6  0     -153.7354432313    -0.0101267793   0.055836006   0.035164678
   8  7  0     -153.7334879909     0.0019552404   0.042828912   0.045849884
   9  8  0     -153.7389956345    -0.0055076436   0.008461725   0.010917733
  10  9  0     -153.7392378785    -0.0002422440   0.000712510   0.000681831
  11 10  0     -153.7392400690    -0.0000021905   0.000251046   0.000190591
 DFT CODE IS SWITCHING BACK TO THE FINE GRID
          * * *   INITIATING DIIS PROCEDURE   * * *
  12 11  0     -153.7386994026     0.0005406663   0.002351592   0.001728054
  13 12  0     -153.7387077921    -0.0000083895   0.000657773   0.000220704
  14 13  0     -153.7387075413     0.0000002509   0.000391822   0.000397638
  15 14  0     -153.7387080220    -0.0000004807   0.000067867   0.000068166
  16 15  0     -153.7387080301    -0.0000000081   0.000015144   0.000018724
  17 16  0     -153.7387080307    -0.0000000007   0.000004532   0.000004961
  18 17  0     -153.7387080308    -0.0000000001   0.000000536   0.000000498

          -----------------
          DENSITY CONVERGED
          -----------------
     TIME TO FORM FOCK OPERATORS=       4.9 SECONDS (       0.3 SEC/ITER)
     TIME TO SOLVE SCF EQUATIONS=       0.1 SECONDS (       0.0 SEC/ITER)

 FINAL R-B3LYP ENERGY IS     -153.7387080308 AFTER  18 ITERATIONS
 DFT EXCHANGE + CORRELATION ENERGY =       -16.8248223923
 TOTAL ELECTRON NUMBER             =        24.0001019280

          ------------
          EIGENVECTORS
          ------------

                      1          2          3          4          5
                  -19.1431   -10.2725   -10.1865    -1.0423    -0.7501
                     A          A          A          A          A   
    1  C  1  S    0.000029   0.000968   0.995272  -0.017856  -0.181425
    2  C  1  S   -0.000074  -0.000839   0.037468   0.033148   0.347904
    3  C  1  X   -0.000255  -0.000941   0.000143   0.025616   0.030966
    4  C  1  Y    0.000202   0.000390  -0.000243  -0.004092  -0.031030
    5  C  1  Z    0.000000   0.000000   0.000000   0.000000   0.000000
    6  C  1  S   -0.000914   0.004833  -0.033344   0.020331   0.317309
    7  C  1  X   -0.001403   0.002663  -0.001672   0.006171   0.000631
    8  C  1  Y   -0.002486  -0.002126   0.000859   0.008712  -0.007557
    9  C  1  Z   -0.000000  -0.000000  -0.000000  -0.000000  -0.000001
   10  C  1 XX   -0.000374  -0.000995  -0.000000   0.004984  -0.001009
   11  C  1 YY    0.000276   0.000311   0.000030  -0.002254   0.000619
   12  C  1 ZZ    0.000098   0.000684  -0.000030  -0.002730   0.000390
   13  C  1 XY   -0.000223   0.000691  -0.000068  -0.001505  -0.000492
   14  C  1 XZ    0.000000   0.000000   0.000000   0.000000   0.000000
   15  C  1 YZ    0.000000   0.000000   0.000000   0.000000   0.000000
   16  C  2  S    0.000227   0.995142  -0.000921  -0.117411  -0.079995
   17  C  2  S    0.000037   0.035738  -0.001248   0.224202   0.161225
   18  C  2  X   -0.000039   0.001733   0.000527   0.154293  -0.183059
   19  C  2  Y   -0.000220   0.001350  -0.000364   0.101941  -0.010804
   20  C  2  Z    0.000000   0.000000   0.000000   0.000000   0.000000
   21  C  2  S    0.009406  -0.015775   0.007916   0.082966   0.118192
   22  C  2  X    0.005277   0.005754  -0.004058  -0.013116  -0.039944
   23  C  2  Y    0.005778   0.002734   0.002533  -0.018686  -0.015015
   24  C  2  Z    0.000000   0.000000   0.000000   0.000000   0.000000
   25  C  2 XX   -0.000520   0.001314  -0.000905   0.016121   0.003384
   26  C  2 YY    0.000266  -0.000105   0.000473  -0.000616   0.001610
   27  C  2 ZZ    0.000254  -0.001209   0.000431  -0.015505  -0.004994
   28  C  2 XY   -0.000806   0.001308   0.000745   0.022854  -0.013846
   29  C  2 XZ    0.000000   0.000000  -0.000000  -0.000000  -0.000000
   30  C  2 YZ    0.000000  -0.000000   0.000000   0.000000   0.000000
   31  O  3  S    0.995121  -0.000045  -0.000006  -0.194440   0.053491
   32  O  3  S    0.029543   0.000492  -0.000266   0.428656  -0.124399
   33  O  3  X   -0.001958   0.000954   0.000128  -0.138723  -0.016720
   34  O  3  Y   -0.001205   0.000559   0.000029  -0.087173   0.015508
   35  O  3  Z    0.000000   0.000000   0.000000   0.000000   0.000000
   36  O  3  S   -0.019961  -0.006050  -0.000037   0.376608  -0.119869
   37  O  3  X    0.005251   0.003742   0.000273  -0.042141  -0.015259
   38  O  3  Y    0.002831   0.002768  -0.000605  -0.024300   0.001342
   39  O  3  Z    0.000000   0.000000   0.000000   0.000000  -0.000000
   40  O  3 XX   -0.000203  -0.001093  -0.000074   0.005960   0.003468
   41  O  3 YY    0.000120  -0.000039   0.000286  -0.002819  -0.001672
   42  O  3 ZZ    0.000082   0.001132  -0.000212  -0.003141  -0.001796
   43  O  3 XY   -0.000125  -0.001536   0.000083   0.010166   0.000276
   44  O  3 XZ    0.000000   0.000000   0.000000  -0.000000   0.000000
   45  O  3 YZ    0.000000   0.000000   0.000000   0.000000   0.000000
   46  H  4  S   -0.000184  -0.000976  -0.000344   0.027987   0.053469
   47  H  4  S    0.001314   0.004954   0.000851  -0.011308   0.009252
   48  H  5  S    0.000135  -0.000243  -0.000544   0.007365   0.104721
   49  H  5  S    0.001358   0.000812   0.005717  -0.003240   0.019479
   50  H  6  S   -0.000023  -0.000433  -0.000497   0.005412   0.115098
   51  H  6  S   -0.000571   0.000688   0.005751  -0.000177   0.024524
   52  H  7  S   -0.000023  -0.000433  -0.000497   0.005412   0.115099
   53  H  7  S   -0.000571   0.000688   0.005751  -0.000177   0.024526

                      6          7          8          9         10
                   -0.5776    -0.4733    -0.4413    -0.4297    -0.3952
                     A          A          A          A          A   
    1  C  1  S    0.071423   0.013486  -0.000000  -0.006990  -0.003367
    2  C  1  S   -0.140372  -0.024429  -0.000001   0.013713   0.006819
    3  C  1  X    0.131543   0.281009   0.000000  -0.189470   0.126157
    4  C  1  Y   -0.115094   0.112253   0.000000   0.214239   0.356672
    5  C  1  Z   -0.000000  -0.000000   0.385766  -0.000000  -0.000000
    6  C  1  S   -0.170907  -0.033976   0.000004   0.021610   0.015633
    7  C  1  X    0.042462   0.122141  -0.000001  -0.091793   0.059408
    8  C  1  Y   -0.032983   0.071037  -0.000001   0.121324   0.164116
    9  C  1  Z    0.000001   0.000001   0.178984  -0.000000   0.000001
   10  C  1 XX    0.008490   0.010275  -0.000000  -0.008582  -0.009628
   11  C  1 YY   -0.003496   0.002717  -0.000000   0.007652   0.023957
   12  C  1 ZZ   -0.004993  -0.012993   0.000000   0.000930  -0.014330
   13  C  1 XY   -0.011556  -0.005339   0.000000   0.008039  -0.006907
   14  C  1 XZ   -0.000000  -0.000000  -0.011793   0.000000  -0.000000
   15  C  1 YZ   -0.000000  -0.000000  -0.015209   0.000000  -0.000000
   16  C  2  S   -0.134276  -0.045364  -0.000000  -0.008719   0.005011
   17  C  2  S    0.282771   0.105985   0.000000   0.028308  -0.018585
   18  C  2  X   -0.034247  -0.089799   0.000000   0.366542  -0.076220
   19  C  2  Y   -0.219607   0.317678   0.000000  -0.004039  -0.207537
   20  C  2  Z    0.000000  -0.000000   0.231136  -0.000000   0.000000
   21  C  2  S    0.265743   0.063387  -0.000000  -0.013154   0.033967
   22  C  2  X   -0.040265  -0.053934   0.000001   0.081104   0.018413
   23  C  2  Y   -0.089286   0.079948   0.000001  -0.034976  -0.054932
   24  C  2  Z   -0.000000  -0.000000   0.118525   0.000000  -0.000000
   25  C  2 XX   -0.008769  -0.003024  -0.000000   0.004657  -0.012893
   26  C  2 YY    0.013532   0.001946   0.000000  -0.001784   0.013893
   27  C  2 ZZ   -0.004764   0.001078   0.000000  -0.002873  -0.001000
   28  C  2 XY   -0.004233  -0.000039   0.000000   0.005444  -0.016562
   29  C  2 XZ    0.000000   0.000000  -0.001157  -0.000000   0.000000
   30  C  2 YZ   -0.000000  -0.000000   0.008711   0.000000  -0.000000
   31  O  3  S    0.068771   0.051258   0.000000   0.063778  -0.024062
   32  O  3  S   -0.161933  -0.118941  -0.000000  -0.139533   0.050134
   33  O  3  X   -0.062043  -0.295070  -0.000000  -0.250097   0.262687
   34  O  3  Y   -0.125093   0.072687  -0.000000  -0.341369   0.064141
   35  O  3  Z   -0.000000  -0.000000   0.205063  -0.000000   0.000000
   36  O  3  S   -0.192794  -0.178981  -0.000001  -0.268604   0.101912
   37  O  3  X   -0.039427  -0.162231  -0.000000  -0.126063   0.147336
   38  O  3  Y   -0.065358   0.042696   0.000000  -0.184016   0.038093
   39  O  3  Z    0.000000   0.000000   0.115949  -0.000000   0.000000
   40  O  3 XX   -0.000362   0.019993   0.000000   0.001595  -0.011260
   41  O  3 YY    0.005516  -0.013381  -0.000000   0.007945   0.006578
   42  O  3 ZZ   -0.005154  -0.006611  -0.000000  -0.009540   0.004683
   43  O  3 XY    0.009823   0.000803   0.000000   0.017263  -0.005962
   44  O  3 XZ   -0.000000  -0.000000  -0.013503   0.000000  -0.000000
   45  O  3 YZ   -0.000000  -0.000000  -0.007798   0.000000  -0.000000
   46  H  4  S    0.211692  -0.120791  -0.000000   0.017151   0.126469
   47  H  4  S    0.100330  -0.106637   0.000000   0.000463   0.120553
   48  H  5  S   -0.111209   0.055098  -0.000000   0.132923   0.244773
   49  H  5  S   -0.055843   0.027250   0.000000   0.073448   0.206932
   50  H  6  S   -0.073110  -0.117449  -0.193784   0.026578  -0.117806
   51  H  6  S   -0.032046  -0.079357  -0.150460   0.020679  -0.101352
   52  H  7  S   -0.073111  -0.117449   0.193783   0.026578  -0.117806
   53  H  7  S   -0.032047  -0.079359   0.150455   0.020680  -0.101355

                     11         12         13         14         15
                   -0.3606    -0.2514    -0.0182     0.1104     0.1342
                     A          A          A          A          A   
    1  C  1  S    0.000000   0.037560   0.000000  -0.120482   0.089920
    2  C  1  S    0.000001  -0.069518   0.000000   0.133374  -0.105942
    3  C  1  X   -0.000000  -0.220887   0.000000  -0.233851  -0.085713
    4  C  1  Y   -0.000000   0.070558   0.000000  -0.023692  -0.110343
    5  C  1  Z   -0.224878   0.000000  -0.019770  -0.000002   0.000001
    6  C  1  S   -0.000003  -0.294675  -0.000004   2.041702  -1.445700
    7  C  1  X    0.000001  -0.166927   0.000001  -0.621137  -0.305478
    8  C  1  Y    0.000001   0.046939   0.000001   0.012713  -0.103529
    9  C  1  Z   -0.108361  -0.000000   0.042038  -0.000003   0.000003
   10  C  1 XX    0.000000  -0.004137   0.000000   0.004331  -0.003380
   11  C  1 YY    0.000000   0.002792   0.000000   0.003167   0.008520
   12  C  1 ZZ   -0.000000   0.001345  -0.000000  -0.007498  -0.005140
   13  C  1 XY   -0.000000   0.005780  -0.000000  -0.008337  -0.013672
   14  C  1 XZ    0.019231   0.000000   0.032727  -0.000000   0.000000
   15  C  1 YZ    0.007093   0.000000  -0.006185  -0.000000   0.000000
   16  C  2  S    0.000000   0.001725  -0.000000  -0.030944  -0.102534
   17  C  2  S   -0.000000  -0.016889  -0.000000   0.104855   0.130752
   18  C  2  X    0.000000   0.086857   0.000000  -0.016350  -0.064280
   19  C  2  Y    0.000000  -0.120312   0.000000  -0.143632  -0.270433
   20  C  2  Z    0.276082   0.000000   0.510699   0.000001  -0.000000
   21  C  2  S    0.000000   0.034565   0.000000   0.276213   1.635238
   22  C  2  X   -0.000001  -0.065092  -0.000001  -0.033017  -0.353918
   23  C  2  Y   -0.000000   0.043232  -0.000000  -0.397150  -0.615545
   24  C  2  Z    0.169089   0.000000   0.560131   0.000002  -0.000001
   25  C  2 XX    0.000000  -0.038760   0.000000   0.002269   0.000664
   26  C  2 YY   -0.000000   0.040941  -0.000000   0.003931  -0.007036
   27  C  2 ZZ    0.000000  -0.002181   0.000000  -0.006201   0.006371
   28  C  2 XY   -0.000000   0.019161  -0.000000   0.001013   0.010676
   29  C  2 XZ    0.028773  -0.000000  -0.023935   0.000000  -0.000000
   30  C  2 YZ    0.012230   0.000000  -0.017449  -0.000000   0.000000
   31  O  3  S   -0.000000   0.000652   0.000000  -0.010982   0.003527
   32  O  3  S   -0.000000  -0.003308  -0.000000   0.021007  -0.018798
   33  O  3  X   -0.000000  -0.312520   0.000000  -0.048867   0.019350
   34  O  3  Y   -0.000000   0.486692  -0.000000   0.072383   0.047122
   35  O  3  Z    0.473788  -0.000000  -0.429537  -0.000001   0.000000
   36  O  3  S    0.000000   0.007028   0.000000   0.159217   0.052056
   37  O  3  X   -0.000000  -0.221444   0.000000  -0.117583  -0.008746
   38  O  3  Y   -0.000000   0.344614  -0.000000   0.072330   0.105876
   39  O  3  Z    0.304365  -0.000000  -0.449536  -0.000001   0.000000
   40  O  3 XX   -0.000000   0.014041  -0.000000   0.004376  -0.005531
   41  O  3 YY   -0.000000  -0.013766   0.000000  -0.002587   0.000627
   42  O  3 ZZ    0.000000  -0.000275   0.000000  -0.001789   0.004904
   43  O  3 XY    0.000000  -0.007981   0.000000   0.005964   0.003005
   44  O  3 XZ   -0.024561   0.000000  -0.000534  -0.000000  -0.000000
   45  O  3 YZ   -0.015848   0.000000  -0.000691  -0.000000   0.000000
   46  H  4  S   -0.000000   0.178015  -0.000000   0.014867  -0.105142
   47  H  4  S   -0.000000   0.290760  -0.000000  -0.635525  -1.625139
   48  H  5  S   -0.000000   0.018496  -0.000000  -0.008582   0.054829
   49  H  5  S   -0.000000   0.094930  -0.000000  -0.642872   0.964056
   50  H  6  S    0.137028   0.032310   0.100664  -0.042019  -0.011799
   51  H  6  S    0.136587   0.066596   0.225185  -1.223762   0.239620
   52  H  7  S   -0.137028   0.032310  -0.100664  -0.042018  -0.011799
   53  H  7  S   -0.136583   0.066597  -0.225180  -1.223758   0.239614

                     16         17         18         19         20
                    0.1556     0.1575     0.2585     0.2849     0.5286
                     A          A          A          A          A   
    1  C  1  S   -0.006138   0.000001  -0.073363  -0.022895   0.000000
    2  C  1  S    0.007748  -0.000002   0.025574   0.048776  -0.000001
    3  C  1  X   -0.016668   0.000002   0.134678   0.180027   0.000002
    4  C  1  Y   -0.339605   0.000012  -0.120991   0.170105   0.000001
    5  C  1  Z   -0.000015  -0.424567   0.000000  -0.000000   0.319294
    6  C  1  S   -0.030530  -0.000003   1.677400  -0.071875   0.000002
    7  C  1  X   -0.148135   0.000005   1.693697   0.681973  -0.000002
    8  C  1  Y   -1.297706   0.000043  -0.641424   0.677325  -0.000001
    9  C  1  Z   -0.000049  -1.400168  -0.000000  -0.000001  -0.614218
   10  C  1 XX   -0.012192   0.000000  -0.032559  -0.035331   0.000000
   11  C  1 YY    0.025203  -0.000001   0.005171   0.034459  -0.000000
   12  C  1 ZZ   -0.013012   0.000001   0.027387   0.000873   0.000000
   13  C  1 XY    0.005913  -0.000000   0.027736  -0.006561   0.000000
   14  C  1 XZ   -0.000000  -0.006172   0.000000   0.000000  -0.033804
   15  C  1 YZ   -0.000001  -0.013264   0.000000   0.000000  -0.050865
   16  C  2  S    0.068357  -0.000003   0.054069   0.059357   0.000000
   17  C  2  S   -0.080650   0.000003  -0.106514  -0.031807   0.000000
   18  C  2  X    0.008832  -0.000000   0.391262   0.024041   0.000000
   19  C  2  Y    0.055734  -0.000002  -0.317478  -0.239298  -0.000000
   20  C  2  Z    0.000003   0.075857  -0.000000  -0.000000   0.900773
   21  C  2  S   -1.183701   0.000046  -0.981501  -1.732828  -0.000000
   22  C  2  X   -0.091374   0.000005   1.775673  -1.469077   0.000001
   23  C  2  Y    0.265074  -0.000008  -0.793907  -1.445210   0.000001
   24  C  2  Z    0.000014   0.402191   0.000000   0.000000  -0.863383
   25  C  2 XX    0.021978  -0.000001  -0.000159  -0.002771   0.000000
   26  C  2 YY   -0.007289   0.000000   0.001315   0.010809   0.000000
   27  C  2 ZZ   -0.014689   0.000001  -0.001156  -0.008038  -0.000000
   28  C  2 XY    0.020985  -0.000001  -0.007601  -0.000890  -0.000000
   29  C  2 XZ    0.000000   0.011717  -0.000000   0.000000   0.010279
   30  C  2 YZ   -0.000001  -0.020777   0.000000  -0.000000   0.003584
   31  O  3  S   -0.026168   0.000001   0.026270  -0.099027  -0.000000
   32  O  3  S    0.051901  -0.000002  -0.040140   0.143446   0.000000
   33  O  3  X   -0.097001   0.000004  -0.071554  -0.148958  -0.000000
   34  O  3  Y   -0.104729   0.000004   0.132486  -0.056610   0.000000
   35  O  3  Z   -0.000002  -0.042088   0.000000   0.000000   0.062355
   36  O  3  S    0.326683  -0.000014  -0.544024   2.022572  -0.000001
   37  O  3  X   -0.164288   0.000007  -0.058673  -0.793323  -0.000000
   38  O  3  Y   -0.169131   0.000007   0.430982  -0.399981   0.000000
   39  O  3  Z   -0.000005  -0.125991   0.000000  -0.000000   0.052965
   40  O  3 XX    0.001175  -0.000000  -0.012127   0.024118  -0.000000
   41  O  3 YY    0.005032  -0.000000   0.010774   0.002086   0.000000
   42  O  3 ZZ   -0.006207   0.000000   0.001353  -0.026204  -0.000000
   43  O  3 XY    0.002107  -0.000000  -0.011619   0.041794   0.000000
   44  O  3 XZ    0.000000   0.006017   0.000000   0.000000  -0.047592
   45  O  3 YZ   -0.000000  -0.004729   0.000000   0.000000  -0.039736
   46  H  4  S    0.006551  -0.000000   0.006339   0.067030   0.000000
   47  H  4  S    0.722800  -0.000027  -0.807174  -0.579241   0.000000
   48  H  5  S    0.134588  -0.000005   0.026659   0.109432   0.000000
   49  H  5  S    1.685168  -0.000055   0.126280  -0.701005   0.000000
   50  H  6  S   -0.048407  -0.077072   0.092774  -0.000290  -0.256541
   51  H  6  S   -0.649015  -1.505816   0.117386   0.460991  -0.141358
   52  H  7  S   -0.048401   0.077076   0.092774  -0.000291   0.256541
   53  H  7  S   -0.648910   1.505865   0.117386   0.460995   0.141356

                     21         22         23         24         25
                    0.5428     0.5893     0.6005     0.6713     0.7104
                     A          A          A          A          A   
    1  C  1  S   -0.022492   0.010302  -0.000000   0.019168  -0.015722
    2  C  1  S    0.253278  -0.082611   0.000002  -0.142584   0.037522
    3  C  1  X    0.790798  -0.491395  -0.000001  -0.331262   0.084209
    4  C  1  Y   -0.534844  -0.478079  -0.000001  -0.122796   0.250517
    5  C  1  Z   -0.000000   0.000000  -0.731085   0.000001  -0.000001
    6  C  1  S    0.039794  -0.338426  -0.000002   1.136014  -0.601986
    7  C  1  X   -0.844402   0.845716   0.000000   1.340128  -0.954438
    8  C  1  Y    0.870927   1.391000   0.000001   0.360195  -0.616101
    9  C  1  Z    0.000001   0.000000   1.784886  -0.000002   0.000002
   10  C  1 XX    0.028659   0.004461  -0.000000   0.016670  -0.015529
   11  C  1 YY   -0.036305  -0.096236   0.000000   0.004095   0.013530
   12  C  1 ZZ    0.007646   0.091775  -0.000000  -0.020765   0.001999
   13  C  1 XY   -0.020241   0.017807  -0.000000  -0.092247   0.025680
   14  C  1 XZ    0.000000   0.000000   0.063703   0.000000  -0.000000
   15  C  1 YZ    0.000000   0.000000   0.080401   0.000000  -0.000000
   16  C  2  S    0.054008   0.002318   0.000000   0.041405   0.039336
   17  C  2  S    0.143713   0.031827  -0.000001  -0.222322  -0.442583
   18  C  2  X   -0.074728   0.034859   0.000000  -0.974453  -0.202842
   19  C  2  Y   -0.077419  -0.047628   0.000000   0.102452  -0.912021
   20  C  2  Z   -0.000001   0.000001   0.494752   0.000000  -0.000000
   21  C  2  S    0.062264  -0.634855   0.000002  -0.917868   0.659494
   22  C  2  X    0.189467  -0.951727   0.000001   1.456438  -0.162745
   23  C  2  Y   -0.164850  -0.258543  -0.000001  -1.435500   2.339618
   24  C  2  Z    0.000001  -0.000002  -1.150610   0.000000   0.000000
   25  C  2 XX    0.091307  -0.051963   0.000000   0.036780   0.072388
   26  C  2 YY    0.012897   0.046287  -0.000000  -0.016371  -0.008930
   27  C  2 ZZ   -0.104204   0.005676   0.000000  -0.020409  -0.063457
   28  C  2 XY   -0.063808  -0.014138   0.000000   0.107582   0.093760
   29  C  2 XZ   -0.000000  -0.000000  -0.008812  -0.000000   0.000000
   30  C  2 YZ   -0.000000   0.000000   0.047920  -0.000000  -0.000000
   31  O  3  S   -0.019868  -0.020429   0.000000  -0.043126  -0.011446
   32  O  3  S    0.111385   0.005099  -0.000000   0.158108   0.075184
   33  O  3  X   -0.122566   0.187601  -0.000000  -0.293613  -0.179824
   34  O  3  Y    0.062147  -0.183315   0.000000  -0.006454  -0.352220
   35  O  3  Z   -0.000000   0.000000   0.044036   0.000000  -0.000000
   36  O  3  S   -0.022076   0.775352  -0.000001   0.146120  -0.665197
   37  O  3  X   -0.104143  -0.257631   0.000000  -0.436081   0.148305
   38  O  3  Y    0.036029  -0.194477   0.000000  -0.051480  -0.106441
   39  O  3  Z   -0.000000   0.000000   0.181759  -0.000000   0.000000
   40  O  3 XX   -0.013836   0.037139  -0.000000  -0.020136  -0.117870
   41  O  3 YY    0.019498  -0.011685   0.000000  -0.024686   0.039111
   42  O  3 ZZ   -0.005662  -0.025454   0.000000   0.044822   0.078759
   43  O  3 XY   -0.009772   0.000957  -0.000000  -0.106151  -0.083950
   44  O  3 XZ    0.000000  -0.000000  -0.046683   0.000000  -0.000000
   45  O  3 YZ    0.000000  -0.000000   0.004438  -0.000000   0.000000
   46  H  4  S    0.222431   0.359533  -0.000001  -0.109577   0.023395
   47  H  4  S   -0.120306  -0.107386  -0.000000  -0.684117   1.179412
   48  H  5  S   -0.234656  -0.397510   0.000000   0.076922  -0.171156
   49  H  5  S   -0.182176  -0.328717  -0.000001  -0.349804   0.254817
   50  H  6  S   -0.014005   0.259643   0.311950   0.050882  -0.106867
   51  H  6  S    0.010753   0.234798   0.340383   0.408065  -0.261013
   52  H  7  S   -0.014006   0.259642  -0.311953   0.050881  -0.106866
   53  H  7  S    0.010752   0.234801  -0.340380   0.408069  -0.261016

                     26         27         28         29         30
                    0.7564     0.8474     0.8594     0.8954     0.9313
                     A          A          A          A          A   
    1  C  1  S   -0.038155   0.000000  -0.015659  -0.023028  -0.021898
    2  C  1  S    0.075128   0.000004   0.072306  -0.111958   0.678072
    3  C  1  X   -0.144191  -0.000001   0.052035   0.209996  -0.131671
    4  C  1  Y   -0.535409  -0.000002   0.183700   0.515533   0.366094
    5  C  1  Z    0.000001   0.793472   0.000005   0.000002  -0.000001
    6  C  1  S   -0.621203  -0.000008  -0.417407   0.328911  -1.062868
    7  C  1  X   -0.296277   0.000001  -0.393316  -0.355726   0.606512
    8  C  1  Y    1.662055   0.000001  -0.224357  -0.580845  -0.239350
    9  C  1  Z   -0.000003  -1.200647  -0.000007  -0.000002   0.000001
   10  C  1 XX   -0.101016   0.000000  -0.024485   0.036075   0.029036
   11  C  1 YY    0.055095   0.000000   0.001630  -0.150472  -0.128332
   12  C  1 ZZ    0.045921  -0.000001   0.022855   0.114398   0.099296
   13  C  1 XY   -0.058941  -0.000000   0.034443   0.020606  -0.114894
   14  C  1 XZ   -0.000000   0.181332   0.000001   0.000001  -0.000000
   15  C  1 YZ   -0.000000   0.086107   0.000000   0.000000  -0.000000
   16  C  2  S   -0.005042  -0.000000   0.050648  -0.019247   0.016530
   17  C  2  S   -0.975740   0.000008  -0.978235  -0.848183   0.761571
   18  C  2  X    0.365814  -0.000000   0.128860  -0.062453   0.026062
   19  C  2  Y   -0.015693  -0.000004   0.553352   0.110244   0.016942
   20  C  2  Z   -0.000000   0.049266   0.000000   0.000000   0.000000
   21  C  2  S    2.147567  -0.000014   2.805293   0.590779  -0.838510
   22  C  2  X   -1.149648  -0.000001   0.013618  -0.262165   0.192164
   23  C  2  Y   -0.500700   0.000010  -0.663269  -0.899103  -0.372656
   24  C  2  Z    0.000001   0.048208   0.000000   0.000000  -0.000000
   25  C  2 XX    0.067395   0.000001  -0.002625  -0.091114   0.105290
   26  C  2 YY   -0.150849  -0.000001   0.104420   0.005171  -0.061952
   27  C  2 ZZ    0.083455   0.000000  -0.101796   0.085944  -0.043338
   28  C  2 XY    0.049708  -0.000000   0.095159  -0.107976   0.058514
   29  C  2 XZ    0.000000  -0.071661  -0.000000  -0.000000   0.000000
   30  C  2 YZ   -0.000000   0.035886   0.000000   0.000000  -0.000000
   31  O  3  S    0.002686   0.000000   0.026254  -0.043961   0.025125
   32  O  3  S   -0.031552  -0.000000  -0.094348   0.176758  -0.124804
   33  O  3  X   -0.091622   0.000001  -0.310328   0.307278  -0.417730
   34  O  3  Y    0.058658   0.000001  -0.302737   0.274746  -0.111253
   35  O  3  Z   -0.000000   0.243412   0.000002   0.000001  -0.000001
   36  O  3  S    0.154625   0.000001  -0.532183   0.432267   0.095413
   37  O  3  X    0.136642  -0.000001   0.662186  -0.827451   0.625000
   38  O  3  Y    0.028730  -0.000002   0.520163  -0.448673   0.385666
   39  O  3  Z   -0.000000  -0.229078  -0.000002  -0.000001   0.000001
   40  O  3 XX   -0.047698  -0.000000   0.004005   0.000657  -0.008027
   41  O  3 YY    0.012111   0.000000  -0.052906   0.001577   0.040832
   42  O  3 ZZ    0.035587  -0.000000   0.048901  -0.002234  -0.032805
   43  O  3 XY    0.001296   0.000000  -0.068839   0.007233   0.018498
   44  O  3 XZ    0.000000   0.015119   0.000000   0.000000  -0.000000
   45  O  3 YZ   -0.000000  -0.001742  -0.000000   0.000000  -0.000000
   46  H  4  S   -0.601240  -0.000005   0.711388  -0.130657  -0.398053
   47  H  4  S   -0.089008   0.000015  -1.744862  -0.693853   0.321939
   48  H  5  S   -0.082072   0.000002  -0.120062  -0.727492  -0.728007
   49  H  5  S   -1.007004  -0.000001   0.321601   1.089247   1.106777
   50  H  6  S   -0.333916   0.693560  -0.086559   0.143487   0.025908
   51  H  6  S    0.362717  -1.363958  -0.111675  -0.591529   0.297291
   52  H  7  S   -0.333915  -0.693560  -0.086568   0.143483   0.025910
   53  H  7  S    0.362719   1.363963  -0.111659  -0.591523   0.297288

                     31         32         33         34         35
                    0.9411     0.9941     1.0838     1.2616     1.4027
                     A          A          A          A          A   
    1  C  1  S    0.054247   0.000000  -0.016697  -0.112930  -0.000000
    2  C  1  S   -1.087109   0.000000  -0.165710  -2.128350  -0.000001
    3  C  1  X    0.410388   0.000000  -0.109470  -0.071999   0.000000
    4  C  1  Y    0.008626   0.000000  -0.040502   0.043447   0.000000
    5  C  1  Z   -0.000000   0.194075   0.000000   0.000001   0.119773
    6  C  1  S    1.621857  -0.000001  -0.398763   6.557133   0.000002
    7  C  1  X   -0.840661  -0.000001  -0.312580   1.218181   0.000000
    8  C  1  Y    0.385391   0.000000  -0.097186  -0.424173  -0.000000
    9  C  1  Z    0.000001  -0.206215  -0.000000  -0.000001   0.063362
   10  C  1 XX   -0.110907  -0.000000  -0.013236   0.051772   0.000000
   11  C  1 YY   -0.033844   0.000000  -0.006560   0.012267   0.000000
   12  C  1 ZZ    0.144751   0.000000   0.019796  -0.064039  -0.000000
   13  C  1 XY    0.010245   0.000000   0.051651  -0.053612   0.000000
   14  C  1 XZ    0.000001   0.031984   0.000000   0.000000  -0.350131
   15  C  1 YZ    0.000000   0.065326  -0.000000   0.000000   0.478360
   16  C  2  S   -0.009131  -0.000000   0.000889   0.040089   0.000000
   17  C  2  S   -0.192507  -0.000001   0.039065   0.598584   0.000000
   18  C  2  X    0.093935   0.000000   0.132792  -0.015903  -0.000000
   19  C  2  Y   -0.049752   0.000000  -0.265226   0.043600  -0.000000
   20  C  2  Z    0.000000   0.123097   0.000000  -0.000000  -0.039347
   21  C  2  S    0.927839   0.000002  -0.200463  -3.301239  -0.000001
   22  C  2  X   -0.522060  -0.000001  -0.829562   1.715975   0.000000
   23  C  2  Y    0.130676   0.000000   1.543683  -1.303651  -0.000000
   24  C  2  Z   -0.000001  -0.586444   0.000000   0.000000   0.087918
   25  C  2 XX    0.009046  -0.000000  -0.136309   0.016517  -0.000000
   26  C  2 YY   -0.059106  -0.000000   0.152708   0.108529   0.000000
   27  C  2 ZZ    0.050059   0.000000  -0.016399  -0.125047  -0.000000
   28  C  2 XY    0.107934  -0.000000   0.054787  -0.015053  -0.000000
   29  C  2 XZ   -0.000000  -0.054622  -0.000000  -0.000000   0.569814
   30  C  2 YZ    0.000000   0.012167  -0.000000   0.000000  -0.155370
   31  O  3  S    0.014481  -0.000000   0.002300   0.002284   0.000000
   32  O  3  S   -0.090570   0.000000  -0.039042  -0.089311  -0.000000
   33  O  3  X   -0.280033   0.000000  -0.426840   0.051852   0.000000
   34  O  3  Y   -0.068832  -0.000000   0.695772  -0.099820  -0.000000
   35  O  3  Z    0.000000  -0.915546  -0.000000  -0.000000  -0.056751
   36  O  3  S   -0.014484  -0.000000   0.021307   0.391339   0.000000
   37  O  3  X    0.477313  -0.000000   0.776845  -0.359516  -0.000000
   38  O  3  Y    0.112034  -0.000000  -1.298831   0.360618   0.000000
   39  O  3  Z   -0.000000   1.255800   0.000000   0.000000  -0.127163
   40  O  3 XX   -0.017088  -0.000000   0.092391   0.057778   0.000000
   41  O  3 YY   -0.010978  -0.000000  -0.090783   0.115848   0.000000
   42  O  3 ZZ    0.028066   0.000000  -0.001608  -0.173625  -0.000000
   43  O  3 XY   -0.006815  -0.000000  -0.055212  -0.020454  -0.000000
   44  O  3 XZ   -0.000000   0.029886   0.000000   0.000000  -0.120353
   45  O  3 YZ    0.000000   0.023491  -0.000000   0.000000  -0.275226
   46  H  4  S   -0.323718   0.000000   0.229166   0.021856  -0.000000
   47  H  4  S    0.253684  -0.000000   0.732638  -0.346317  -0.000000
   48  H  5  S    0.167740   0.000000  -0.074399  -0.454659  -0.000000
   49  H  5  S   -0.610103   0.000000   0.087256  -0.774817  -0.000000
   50  H  6  S    0.636434   0.163143  -0.120338  -0.493086   0.131665
   51  H  6  S   -1.072539  -0.380027  -0.052880  -0.638939  -0.047607
   52  H  7  S    0.636432  -0.163142  -0.120338  -0.493088  -0.131665
   53  H  7  S   -1.072539   0.380026  -0.052879  -0.638937   0.047606

                     36         37         38         39         40
                    1.5340     1.6135     1.6956     1.8028     1.8122
                     A          A          A          A          A   
    1  C  1  S   -0.000000   0.010760  -0.042298   0.022133   0.000000
    2  C  1  S    0.000000   0.102930  -0.283592  -0.367916   0.000000
    3  C  1  X   -0.000000  -0.000121   0.114376  -0.274648  -0.000000
    4  C  1  Y   -0.000000  -0.016803   0.059016   0.063908  -0.000000
    5  C  1  Z    0.039239  -0.000000   0.000000  -0.000000   0.069100
    6  C  1  S   -0.000001  -0.467594   1.602752  -0.146833  -0.000000
    7  C  1  X    0.000000   0.100158   0.274423   0.045558  -0.000000
    8  C  1  Y    0.000000   0.501624  -0.684094  -0.111865   0.000000
    9  C  1  Z   -0.322829   0.000000  -0.000000  -0.000000  -0.327500
   10  C  1 XX   -0.000000  -0.080940  -0.457267   0.353357  -0.000000
   11  C  1 YY    0.000000   0.021872   0.109414  -0.215998   0.000000
   12  C  1 ZZ   -0.000000   0.059068   0.347854  -0.137359   0.000000
   13  C  1 XY   -0.000000  -0.228926  -0.428483  -0.046461  -0.000000
   14  C  1 XZ    0.119835  -0.000000   0.000000   0.000000  -0.339911
   15  C  1 YZ   -0.053366  -0.000000   0.000000   0.000000   0.408715
   16  C  2  S    0.000000  -0.015631   0.024523   0.016700  -0.000000
   17  C  2  S   -0.000000  -0.102441   0.525707  -0.208173  -0.000000
   18  C  2  X    0.000000  -0.072537  -0.026206   0.029120   0.000000
   19  C  2  Y    0.000000  -0.006146   0.048024   0.076651  -0.000000
   20  C  2  Z   -0.187300  -0.000000  -0.000000   0.000000   0.090600
   21  C  2  S    0.000000  -1.820994  -1.576402   0.098215   0.000000
   22  C  2  X    0.000000  -1.575637   1.087895  -0.526297   0.000000
   23  C  2  Y    0.000000  -1.009250   0.508575   0.660346   0.000000
   24  C  2  Z    0.206880   0.000000   0.000000   0.000000   0.211197
   25  C  2 XX    0.000000  -0.012978  -0.009012   0.315261   0.000000
   26  C  2 YY   -0.000000   0.044943  -0.293079  -0.376031   0.000000
   27  C  2 ZZ    0.000000  -0.031965   0.302091   0.060770  -0.000000
   28  C  2 XY    0.000000  -0.258499   0.267295  -0.276185   0.000000
   29  C  2 XZ    0.127729  -0.000000  -0.000000  -0.000000  -0.143531
   30  C  2 YZ    0.718351   0.000000  -0.000000  -0.000000  -0.066442
   31  O  3  S   -0.000000   0.035358   0.011874  -0.007972   0.000000
   32  O  3  S    0.000000  -1.629061  -0.008880   0.106804   0.000000
   33  O  3  X   -0.000000   0.099772   0.161742  -0.226423   0.000000
   34  O  3  Y    0.000000   0.096958   0.059331   0.172059   0.000000
   35  O  3  Z   -0.091425  -0.000000   0.000000   0.000000   0.073630
   36  O  3  S   -0.000000   3.817463  -0.434720  -0.049010  -0.000000
   37  O  3  X    0.000000  -1.099244  -0.076737   0.299913   0.000000
   38  O  3  Y    0.000000  -0.731199   0.029632  -0.338759   0.000000
   39  O  3  Z   -0.117236  -0.000000  -0.000000  -0.000000  -0.113039
   40  O  3 XX   -0.000000  -0.126388  -0.085653  -0.512870   0.000000
   41  O  3 YY   -0.000000   0.121829  -0.358605   0.252433   0.000000
   42  O  3 ZZ    0.000000   0.004559   0.444258   0.260437  -0.000000
   43  O  3 XY    0.000000  -0.196690   0.208074   0.372532  -0.000000
   44  O  3 XZ   -0.512358  -0.000000   0.000000   0.000000  -0.227650
   45  O  3 YZ    0.037609   0.000000  -0.000000   0.000000   0.809104
   46  H  4  S    0.000000   0.035949   0.481881   0.476124  -0.000000
   47  H  4  S    0.000000  -0.154554   0.325064   0.134483   0.000000
   48  H  5  S    0.000000   0.014205  -0.140531   0.181619   0.000000
   49  H  5  S    0.000000  -0.172619   0.153302  -0.038374   0.000000
   50  H  6  S   -0.067268   0.082586  -0.180623   0.061751  -0.012016
   51  H  6  S   -0.144317   0.116758  -0.146070  -0.063755  -0.132377
   52  H  7  S    0.067268   0.082586  -0.180623   0.061751   0.012016
   53  H  7  S    0.144318   0.116758  -0.146070  -0.063755   0.132378

                     41         42         43         44         45
                    1.8563     2.0632     2.0633     2.1548     2.2965
                     A          A          A          A          A   
    1  C  1  S    0.045719  -0.010223  -0.000000   0.007384  -0.000000
    2  C  1  S    0.234872   0.104003   0.000003   0.148254   0.000000
    3  C  1  X   -0.077767   0.040357   0.000001   0.032591  -0.000000
    4  C  1  Y    0.144836  -0.043056  -0.000001   0.105984  -0.000000
    5  C  1  Z   -0.000000   0.000002  -0.070497  -0.000000  -0.093990
    6  C  1  S   -1.639318  -0.028769  -0.000002  -0.551552  -0.000000
    7  C  1  X   -0.734469  -0.314785  -0.000008  -0.013783   0.000000
    8  C  1  Y   -0.583755  -0.133655  -0.000003   0.662803   0.000000
    9  C  1  Z    0.000000   0.000018  -0.646905  -0.000000  -0.221632
   10  C  1 XX   -0.214212  -0.310299  -0.000008  -0.221693   0.000000
   11  C  1 YY    0.066662  -0.125766  -0.000003   0.847073   0.000000
   12  C  1 ZZ    0.147549   0.436064   0.000012  -0.625380  -0.000000
   13  C  1 XY   -0.617158   0.378590   0.000010   0.239056  -0.000000
   14  C  1 XZ    0.000000  -0.000003   0.107291   0.000000   0.972543
   15  C  1 YZ    0.000000  -0.000020   0.750086   0.000000   0.360758
   16  C  2  S   -0.018473   0.014714   0.000000  -0.027640   0.000000
   17  C  2  S   -0.360185   0.342183   0.000009  -0.032213   0.000000
   18  C  2  X    0.244004  -0.312701  -0.000009  -0.046678   0.000000
   19  C  2  Y   -0.017262   0.131636   0.000004   0.166211  -0.000000
   20  C  2  Z    0.000000  -0.000001   0.047176   0.000000  -0.076118
   21  C  2  S    2.159522  -0.568067  -0.000015   0.301027  -0.000000
   22  C  2  X    0.097788  -0.109779  -0.000003  -0.330756  -0.000000
   23  C  2  Y    1.846552   0.254762   0.000007   0.076821  -0.000000
   24  C  2  Z   -0.000000  -0.000011   0.398065   0.000000  -0.038933
   25  C  2 XX    0.363474  -0.261479  -0.000007   0.282510  -0.000000
   26  C  2 YY   -0.136062  -0.361058  -0.000010  -0.233870  -0.000000
   27  C  2 ZZ   -0.227412   0.622538   0.000017  -0.048639   0.000000
   28  C  2 XY    0.037963  -0.029399  -0.000001   0.428326  -0.000000
   29  C  2 XZ   -0.000000   0.000010  -0.351266  -0.000000   0.237778
   30  C  2 YZ    0.000000  -0.000014   0.501751   0.000000  -0.403385
   31  O  3  S    0.007254  -0.011936  -0.000000   0.019256  -0.000000
   32  O  3  S    0.554966   0.043335   0.000001  -0.321204   0.000000
   33  O  3  X    0.068576  -0.170407  -0.000005   0.189273  -0.000000
   34  O  3  Y    0.159727  -0.055261  -0.000002   0.227192  -0.000000
   35  O  3  Z    0.000000  -0.000002   0.074458   0.000000  -0.016537
   36  O  3  S   -2.108568   0.293427   0.000008   0.220822   0.000000
   37  O  3  X    0.695847   0.017643   0.000000  -0.016785  -0.000000
   38  O  3  Y    0.013640  -0.148774  -0.000004  -0.262077   0.000000
   39  O  3  Z    0.000000   0.000006  -0.210556  -0.000000   0.064598
   40  O  3 XX    0.165904  -0.172472  -0.000005  -0.138831   0.000000
   41  O  3 YY    0.357582   0.582712   0.000016   0.243803  -0.000000
   42  O  3 ZZ   -0.523486  -0.410240  -0.000011  -0.104972  -0.000000
   43  O  3 XY   -0.204116  -0.121023  -0.000003   0.086352  -0.000000
   44  O  3 XZ    0.000000  -0.000012   0.450912   0.000000  -0.244055
   45  O  3 YZ   -0.000000   0.000006  -0.218212  -0.000000   0.141648
   46  H  4  S    0.289440   0.378611   0.000010   0.210067   0.000000
   47  H  4  S    0.436385   0.119975   0.000003  -0.030862  -0.000000
   48  H  5  S    0.238142   0.083864   0.000002  -0.693621  -0.000000
   49  H  5  S    0.361839   0.041256   0.000001  -0.004734  -0.000000
   50  H  6  S    0.170192  -0.251959  -0.417038   0.297391  -0.547678
   51  H  6  S   -0.097849   0.004244  -0.077606   0.069966   0.126720
   52  H  7  S    0.170192  -0.251982   0.417024   0.297391   0.547677
   53  H  7  S   -0.097849   0.004240   0.077607   0.069966  -0.126719

                     46         47         48         49         50
                    2.3642     2.5423     2.5841     2.8575     2.9475
                     A          A          A          A          A   
    1  C  1  S    0.044743   0.041220  -0.000000   0.029286  -0.012845
    2  C  1  S    0.325572   0.063156  -0.000000  -0.138183   0.047491
    3  C  1  X   -0.150106  -0.244763   0.000000  -0.232587   0.090712
    4  C  1  Y    0.006984   0.101613  -0.000000   0.140846  -0.055693
    5  C  1  Z   -0.000000  -0.000000   0.030708   0.000000  -0.000000
    6  C  1  S   -1.758938  -1.274720   0.000000  -0.143400   0.165825
    7  C  1  X   -0.954803  -0.697088   0.000000  -0.188188   0.199967
    8  C  1  Y    0.032752   0.242377  -0.000000   0.236125   0.116543
    9  C  1  Z    0.000000   0.000000   0.031103   0.000000  -0.000000
   10  C  1 XX   -0.411304  -0.773674   0.000000  -0.242365   0.074108
   11  C  1 YY   -0.223893   0.678775  -0.000000  -0.045142   0.021529
   12  C  1 ZZ    0.635197   0.094898   0.000000   0.287507  -0.095637
   13  C  1 XY    0.338129   0.069463  -0.000000   0.521847  -0.172058
   14  C  1 XZ    0.000000  -0.000000   0.146714  -0.000000   0.000000
   15  C  1 YZ    0.000000  -0.000000  -0.165435  -0.000000   0.000000
   16  C  2  S   -0.080518  -0.020590   0.000000  -0.043158  -0.029705
   17  C  2  S   -0.247845   0.005536   0.000000  -0.293358  -1.334794
   18  C  2  X   -0.225140  -0.220403   0.000000  -0.344926  -1.073603
   19  C  2  Y    0.137385   0.054630  -0.000000  -0.156170  -0.696544
   20  C  2  Z   -0.000000   0.000000   0.243071   0.000000  -0.000000
   21  C  2  S    1.869953   1.375858  -0.000000   0.156112  -1.766718
   22  C  2  X   -0.495466  -0.693805   0.000000  -0.323620  -0.692875
   23  C  2  Y    0.937836   0.628474  -0.000000  -0.562715  -0.617999
   24  C  2  Z   -0.000000   0.000000   0.237013  -0.000000   0.000000
   25  C  2 XX    0.341172  -0.106170  -0.000000   0.938071  -0.643923
   26  C  2 YY    0.441960   0.297577  -0.000000  -0.825178   0.185368
   27  C  2 ZZ   -0.783132  -0.191407   0.000000  -0.112894   0.458556
   28  C  2 XY    0.286529  -0.886206   0.000000  -0.491066  -0.457253
   29  C  2 XZ    0.000000   0.000000   0.893631   0.000000  -0.000000
   30  C  2 YZ   -0.000000   0.000000   0.445524  -0.000000   0.000000
   31  O  3  S    0.022905  -0.022039   0.000000  -0.008403  -0.062038
   32  O  3  S   -0.193024   0.572334  -0.000000  -0.328423  -0.698845
   33  O  3  X    0.252188  -0.357934   0.000000  -0.000861  -0.246158
   34  O  3  Y    0.200520  -0.166275   0.000000   0.049065  -0.175094
   35  O  3  Z    0.000000  -0.000000  -0.011116   0.000000   0.000000
   36  O  3  S   -0.522123  -0.606325   0.000000   0.957407   3.157851
   37  O  3  X    0.200590   0.462244  -0.000000  -0.634085  -1.514496
   38  O  3  Y   -0.276228   0.011259  -0.000000   0.086396  -1.009673
   39  O  3  Z    0.000000  -0.000000  -0.453561  -0.000000  -0.000000
   40  O  3 XX   -0.333604  -0.144688  -0.000000   0.823627   0.699866
   41  O  3 YY    0.293068  -0.009049   0.000000  -0.673912   0.020284
   42  O  3 ZZ    0.040536   0.153737  -0.000000  -0.149716  -0.720150
   43  O  3 XY    0.359321   0.089998   0.000000  -0.093858   1.182822
   44  O  3 XZ   -0.000000   0.000000   0.824763   0.000000  -0.000000
   45  O  3 YZ    0.000000   0.000000   0.567865   0.000000   0.000000
   46  H  4  S   -0.202468  -0.217048   0.000000   0.251780  -0.019393
   47  H  4  S    0.268264   0.270603  -0.000000  -0.427468  -0.016908
   48  H  5  S    0.286426  -0.318812   0.000000   0.003131  -0.019157
   49  H  5  S    0.072899   0.169177  -0.000000  -0.108768  -0.045159
   50  H  6  S   -0.155146   0.095628   0.011642  -0.109682   0.031647
   51  H  6  S    0.057288  -0.062102   0.029390   0.028714   0.029391
   52  H  7  S   -0.155146   0.095628  -0.011642  -0.109682   0.031647
   53  H  7  S    0.057288  -0.062102  -0.029390   0.028714   0.029391
 ...... END OF RHF CALCULATION ......
 STEP CPU TIME =     5.11 TOTAL CPU TIME =          5.2 (      0.1 MIN)
 TOTAL WALL CLOCK TIME=          5.3 SECONDS, CPU UTILIZATION IS    99.24%

     ---------------------------------------------------------------------
     PROPERTIES FOR THE B3LYP    DFT FUNCTIONAL (RHF  TYPE) DENSITY MATRIX
     ---------------------------------------------------------------------

          -----------------
          ENERGY COMPONENTS
          -----------------

         WAVEFUNCTION NORMALIZATION =       1.0000000000

                ONE ELECTRON ENERGY =    -345.6751623259
                TWO ELECTRON ENERGY =     122.4784680364
           NUCLEAR REPULSION ENERGY =      69.4579862586
                                      ------------------
                       TOTAL ENERGY =    -153.7387080308

 ELECTRON-ELECTRON POTENTIAL ENERGY =     122.4784680364
  NUCLEUS-ELECTRON POTENTIAL ENERGY =    -498.4960665980
   NUCLEUS-NUCLEUS POTENTIAL ENERGY =      69.4579862586
                                      ------------------
             TOTAL POTENTIAL ENERGY =    -306.5596123029
               TOTAL KINETIC ENERGY =     152.8209042721
                 VIRIAL RATIO (V/T) =       2.0060057475

          ---------------------------------------
          MULLIKEN AND LOWDIN POPULATION ANALYSES
          ---------------------------------------

     ATOMIC MULLIKEN POPULATION IN EACH MOLECULAR ORBITAL

                      1          2          3          4          5

                  2.000000   2.000000   2.000000   2.000000   2.000000

    1            -0.000053   0.001177   1.994814   0.022247   1.135660
    2             0.002394   2.000690   0.001864   0.524291   0.435314
    3             1.997619  -0.002828  -0.000004   1.453909   0.085629
    4             0.000033   0.000895   0.000022  -0.000562   0.023799
    5             0.000008   0.000025   0.001099  -0.000289   0.091957
    6            -0.000001   0.000021   0.001102   0.000202   0.113819
    7            -0.000001   0.000021   0.001102   0.000202   0.113821

                      6          7          8          9         10

                  2.000000   2.000000   2.000000   2.000000   2.000000

    1             0.350934   0.534676   0.844312   0.447697   0.722304
    2             0.823718   0.515402   0.342006   0.451012   0.163804
    3             0.270445   0.571906   0.217341   0.965948   0.329927
    4             0.362222   0.132363  -0.000000   0.001307   0.124749
    5             0.107963   0.022238  -0.000000   0.122084   0.456323
    6             0.042359   0.111707   0.298173   0.005976   0.101446
    7             0.042359   0.111709   0.298168   0.005976   0.101447

                     11         12

                  2.000000   2.000000

    1             0.237855   0.226263
    2             0.405767   0.089518
    3             1.079015   1.383569
    4             0.000000   0.256261
    5             0.000000   0.016866
    6             0.138683   0.013761
    7             0.138680   0.013761

               ----- POPULATIONS IN EACH AO -----
                             MULLIKEN      LOWDIN
              1  C  1  S      1.99672     1.98031
              2  C  1  S      0.67332     0.36597
              3  C  1  X      0.70596     0.63573
              4  C  1  Y      0.72813     0.65439
              5  C  1  Z      0.71175     0.63531
              6  C  1  S      0.64620     0.33500
              7  C  1  X      0.30618     0.41228
              8  C  1  Y      0.35896     0.47658
              9  C  1  Z      0.35910     0.48869
             10  C  1 XX      0.00633     0.14870
             11  C  1 YY      0.00889     0.15899
             12  C  1 ZZ      0.00504     0.15437
             13  C  1 XY      0.00768     0.00927
             14  C  1 XZ      0.00363     0.01526
             15  C  1 YZ      0.00000     0.00576
             16  C  2  S      1.99655     1.97465
             17  C  2  S      0.70969     0.36697
             18  C  2  X      0.74475     0.65088
             19  C  2  Y      0.75011     0.65253
             20  C  2  Z      0.45326     0.40688
             21  C  2  S      0.45019     0.30807
             22  C  2  X      0.10177     0.28180
             23  C  2  Y      0.18608     0.37363
             24  C  2  Z      0.27816     0.32936
             25  C  2 XX      0.00504     0.21571
             26  C  2 YY      0.04067     0.19667
             27  C  2 ZZ      0.02316     0.10491
             28  C  2 XY      0.01287     0.04744
             29  C  2 XZ      0.00349     0.02454
             30  C  2 YZ      0.00000     0.00605
             31  O  3  S      1.99730     1.97770
             32  O  3  S      0.92816     0.71999
             33  O  3  X      0.99959     0.93786
             34  O  3  Y      1.08710     1.03863
             35  O  3  Z      0.77110     0.72009
             36  O  3  S      0.93162     0.46971
             37  O  3  X      0.50003     0.57495
             38  O  3  Y      0.59549     0.65977
             39  O  3  Z      0.51404     0.55069
             40  O  3 XX      0.00227     0.18358
             41  O  3 YY      0.00731     0.17491
             42  O  3 ZZ      0.00726     0.17351
             43  O  3 XY      0.00801     0.01589
             44  O  3 XZ      0.00321     0.01037
             45  O  3 YZ      0.00000     0.00417
             46  H  4  S      0.53476     0.50122
             47  H  4  S      0.36632     0.38869
             48  H  5  S      0.52044     0.48126
             49  H  5  S      0.29783     0.34808
             50  H  6  S      0.51819     0.47661
             51  H  6  S      0.30906     0.34951
             52  H  7  S      0.51819     0.47661
             53  H  7  S      0.30906     0.34951

          ----- MULLIKEN ATOMIC OVERLAP POPULATIONS -----
          (OFF-DIAGONAL ELEMENTS NEED TO BE MULTIPLIED BY 2)

             1           2           3           4           5

    1    5.3683175
    2    0.3075391   4.5403172
    3   -0.0793178   0.6257019   7.8593407
    4   -0.1220736   0.3403765  -0.0619899   0.7303119
    5    0.3477690  -0.0205053   0.0057711   0.0061092   0.5210355
    6    0.3478234  -0.0188238   0.0014855   0.0041768  -0.0209526
    7    0.3478276  -0.0188246   0.0014856   0.0041769  -0.0209529

             6           7

    6    0.5402701
    7   -0.0267314   0.5402659

          TOTAL MULLIKEN AND LOWDIN ATOMIC POPULATIONS
       ATOM         MULL.POP.    CHARGE          LOW.POP.     CHARGE
    1 C             6.517885   -0.517885         6.476604   -0.476604
    2 C             5.755781    0.244219         5.940082    0.059918
    3 O             8.352477   -0.352477         8.211821   -0.211821
    4 H             0.901088    0.098912         0.889909    0.110091
    5 H             0.818274    0.181726         0.829343    0.170657
    6 H             0.827248    0.172752         0.826121    0.173879
    7 H             0.827247    0.172753         0.826120    0.173880

          MULLIKEN SPHERICAL HARMONIC POPULATIONS
       ATOM           S       P       D      F      G      H      I    TOTAL
    1 C             3.32    3.17    0.03   0.00   0.00   0.00   0.00    6.52
    2 C             3.16    2.51    0.09   0.00   0.00   0.00   0.00    5.76
    3 O             3.86    4.47    0.03   0.00   0.00   0.00   0.00    8.35
    4 H             0.90    0.00    0.00   0.00   0.00   0.00   0.00    0.90
    5 H             0.82    0.00    0.00   0.00   0.00   0.00   0.00    0.82
    6 H             0.83    0.00    0.00   0.00   0.00   0.00   0.00    0.83
    7 H             0.83    0.00    0.00   0.00   0.00   0.00   0.00    0.83

          -------------------------------
          BOND ORDER AND VALENCE ANALYSIS     BOND ORDER THRESHOLD=0.050
          -------------------------------

                   BOND                       BOND                       BOND
  ATOM PAIR DIST  ORDER      ATOM PAIR DIST  ORDER      ATOM PAIR DIST  ORDER
    1   2  1.509  0.967        1   5  1.093  0.940        1   6  1.098  0.929
    1   7  1.098  0.929        2   3  1.211  2.024        2   4  1.115  0.885

                       TOTAL       BONDED        FREE
      ATOM            VALENCE     VALENCE     VALENCE
    1 C                 3.767       3.767      -0.000
    2 C                 3.872       3.872      -0.000
    3 O                 2.120       2.120       0.000
    4 H                 0.927       0.927      -0.000
    5 H                 0.937       0.937       0.000
    6 H                 0.930       0.930      -0.000
    7 H                 0.930       0.930       0.000

          ---------------------
          ELECTROSTATIC MOMENTS
          ---------------------

 POINT   1           X           Y           Z (BOHR)    CHARGE
                -0.000000   -0.000000    0.000000       -0.00 (A.U.)
         DX          DY          DZ         /D/  (DEBYE)
    -2.438467   -0.990571    0.000007    2.631986
 ...... END OF PROPERTY EVALUATION ......
 STEP CPU TIME =     0.01 TOTAL CPU TIME =          5.2 (      0.1 MIN)
 TOTAL WALL CLOCK TIME=          5.3 SECONDS, CPU UTILIZATION IS    99.24%
                580000  WORDS OF DYNAMIC MEMORY USED
 EXECUTION OF GAMESS TERMINATED NORMALLY Thu Oct 17 23:40:56 2019
 DDI: 263640 bytes (0.3 MB / 0 MWords) used by master data server.

 ----------------------------------------
 CPU timing information for all processes
 ========================================
 0: 5.139 + 0.101 = 5.241
 ----------------------------------------
 ddikick.x: exited gracefully.
----- accounting info -----
Files used on the master node crcfe01.crc.nd.edu were:
-rw-r--r-- 1 cdrisko campus     488 Oct 17 23:40 /afs/crc.nd.edu/user/c/cdrisko/acetaldehyde.F05
-rw-r--r-- 1 cdrisko campus   45118 Oct 17 23:40 /afs/crc.nd.edu/user/c/cdrisko/acetaldehyde.F07
-rw-r--r-- 1 cdrisko campus 7920704 Oct 17 23:40 /afs/crc.nd.edu/user/c/cdrisko/acetaldehyde.F08
-rw-r--r-- 1 cdrisko campus 1799600 Oct 17 23:40 /afs/crc.nd.edu/user/c/cdrisko/acetaldehyde.F10
Thu Oct 17 23:40:59 EDT 2019
0.406u 0.217s 0:08.88 6.8%	0+0k 0+16io 0pf+0w
