   4   4   0   0
  0.1710448E+02  0.4090000E-09  0.4090000E-09  0.4090000E-09  0.5000000E-15
  1.000000000000000E-004
  CAR 
 unknown system                          
     39.75039644     -1.22116870  301      8.32568073      1.00000000
     -1.221  0.0000E+00  0.0000E+00
     -1.085  0.0000E+00  0.0000E+00
     -0.948  0.0000E+00  0.0000E+00
     -0.811  0.0000E+00  0.0000E+00
     -0.675  0.0000E+00  0.0000E+00
     -0.538  0.0000E+00  0.0000E+00
     -0.402  0.0000E+00  0.0000E+00
     -0.265 -0.2306E-36 -0.3149E-37
     -0.129 -0.1711E-26 -0.2337E-27
      0.008 -0.2950E-18 -0.4028E-19
      0.145 -0.1117E-11 -0.1525E-12
      0.281 -0.9406E-07 -0.1285E-07
      0.418 -0.1487E-03 -0.2032E-04
      0.554 -0.1192E-03 -0.3660E-04
      0.691  0.3168E-01  0.4289E-02
      0.827  0.8503E-01  0.1590E-01
      0.964  0.1833E+00  0.4094E-01
      1.101  0.4190E+00  0.9816E-01
      1.237  0.2508E+00  0.1324E+00
      1.374  0.2007E+00  0.1598E+00
      1.510  0.1853E+00  0.1851E+00
      1.647  0.7390E+00  0.2860E+00
      1.783  0.1105E+01  0.4370E+00
      1.920  0.2122E+00  0.4660E+00
      2.057  0.1176E+01  0.6267E+00
      2.193  0.6038E+01  0.1451E+01
      2.330  0.7595E+01  0.2489E+01
      2.466  0.1383E+02  0.4378E+01
      2.603  0.1283E+02  0.6130E+01
      2.739  0.1454E+02  0.8116E+01
      2.876  0.8376E+01  0.9260E+01
      3.013  0.7934E+01  0.1034E+02
      3.149  0.1161E+02  0.1193E+02
      3.286  0.9282E+01  0.1320E+02
      3.422  0.9825E+01  0.1454E+02
      3.559  0.9658E+01  0.1586E+02
      3.695  0.1508E+02  0.1792E+02
      3.832  0.1512E+02  0.1998E+02
      3.969  0.1574E+02  0.2213E+02
      4.105  0.1104E+02  0.2364E+02
      4.242  0.1066E+02  0.2510E+02
      4.378  0.1167E+02  0.2669E+02
      4.515  0.1041E+02  0.2811E+02
      4.651  0.1459E+02  0.3010E+02
      4.788  0.1221E+02  0.3177E+02
      4.925  0.8059E+01  0.3287E+02
      5.061  0.1264E+02  0.3460E+02
      5.198  0.1189E+02  0.3622E+02
      5.334  0.1258E+02  0.3794E+02
      5.471  0.1563E+02  0.4008E+02
      5.607  0.7382E+01  0.4109E+02
      5.744  0.4181E+01  0.4166E+02
      5.881  0.8955E+00  0.4178E+02
      6.017  0.2327E+00  0.4181E+02
      6.154  0.8203E+00  0.4192E+02
      6.290 -0.2572E-01  0.4192E+02
      6.427 -0.6706E-01  0.4191E+02
      6.563  0.9750E+00  0.4204E+02
      6.700  0.1735E+01  0.4228E+02
      6.837  0.1827E+01  0.4253E+02
      6.973  0.1498E+01  0.4273E+02
      7.110  0.1649E+00  0.4276E+02
      7.246  0.5085E+00  0.4283E+02
      7.383  0.1339E+01  0.4301E+02
      7.519  0.3219E+00  0.4305E+02
      7.656 -0.2231E-01  0.4305E+02
      7.793  0.8247E+00  0.4316E+02
      7.929  0.1621E+01  0.4338E+02
      8.066  0.2246E+01  0.4369E+02
      8.202  0.1506E+01  0.4390E+02
      8.339  0.8830E+00  0.4402E+02
      8.475  0.1030E+01  0.4416E+02
      8.612  0.7369E+00  0.4426E+02
      8.749  0.1495E+01  0.4446E+02
      8.885  0.1613E+00  0.4448E+02
      9.022 -0.7451E-02  0.4448E+02
      9.158 -0.3624E-01  0.4448E+02
      9.295  0.2598E+01  0.4483E+02
      9.431  0.2117E+01  0.4512E+02
      9.568 -0.4283E-01  0.4512E+02
      9.705  0.1234E+01  0.4528E+02
      9.841  0.2649E+01  0.4565E+02
      9.978  0.1593E+01  0.4586E+02
     10.114  0.8393E+00  0.4598E+02
     10.251 -0.7280E-01  0.4597E+02
     10.387  0.1969E+00  0.4600E+02
     10.524  0.1032E+01  0.4614E+02
     10.661  0.3442E+00  0.4618E+02
     10.797  0.1787E+01  0.4643E+02
     10.934  0.1715E+00  0.4645E+02
     11.070  0.1782E+01  0.4669E+02
     11.207  0.1975E+01  0.4696E+02
     11.343 -0.1249E+00  0.4695E+02
     11.480  0.4006E+00  0.4700E+02
     11.617  0.6482E+00  0.4709E+02
     11.753  0.5289E+00  0.4716E+02
     11.890  0.9759E+00  0.4730E+02
     12.026  0.1774E+01  0.4754E+02
     12.163  0.8289E+00  0.4765E+02
     12.299  0.1876E+01  0.4791E+02
     12.436  0.1630E+01  0.4813E+02
     12.573  0.1153E+01  0.4829E+02
     12.709  0.1581E+00  0.4831E+02
     12.846  0.3253E+00  0.4835E+02
     12.982  0.1813E+01  0.4860E+02
     13.119  0.1416E+01  0.4879E+02
     13.255  0.1197E+01  0.4896E+02
     13.392  0.1940E+01  0.4922E+02
     13.529  0.3168E+01  0.4966E+02
     13.665 -0.3690E-01  0.4965E+02
     13.802  0.7621E+00  0.4975E+02
     13.938  0.1580E+01  0.4997E+02
     14.075  0.7252E+00  0.5007E+02
     14.211  0.1066E+01  0.5022E+02
     14.348  0.1096E+01  0.5036E+02
     14.485 -0.1008E+00  0.5035E+02
     14.621  0.4560E+00  0.5041E+02
     14.758  0.1754E+01  0.5065E+02
     14.894  0.1013E+01  0.5079E+02
     15.031  0.2662E+01  0.5115E+02
     15.167  0.1404E+01  0.5135E+02
     15.304  0.1690E+01  0.5158E+02
     15.441  0.2046E+01  0.5186E+02
     15.577  0.1703E+01  0.5209E+02
     15.714  0.1255E+01  0.5226E+02
     15.850  0.2449E+01  0.5260E+02
     15.987  0.1025E+00  0.5261E+02
     16.123  0.1072E+01  0.5276E+02
     16.260  0.1041E+01  0.5290E+02
     16.397  0.9785E+00  0.5303E+02
     16.533  0.2459E+01  0.5337E+02
     16.670  0.1675E+01  0.5360E+02
     16.806  0.3171E+01  0.5403E+02
     16.943  0.1741E+01  0.5427E+02
     17.079  0.1954E+01  0.5453E+02
     17.216  0.1598E+01  0.5475E+02
     17.353  0.2714E+01  0.5512E+02
     17.489  0.2671E+00  0.5516E+02
     17.626  0.9502E+00  0.5529E+02
     17.762  0.3692E+01  0.5579E+02
     17.899  0.3101E+01  0.5622E+02
     18.035  0.7972E+00  0.5633E+02
     18.172  0.1611E+01  0.5655E+02
     18.309  0.9868E+00  0.5668E+02
     18.445  0.3709E+01  0.5719E+02
     18.582  0.9238E+00  0.5731E+02
     18.718  0.8776E+00  0.5743E+02
     18.855  0.2344E+01  0.5775E+02
     18.991  0.2844E+01  0.5814E+02
     19.128  0.1177E+01  0.5830E+02
     19.265  0.1938E+01  0.5857E+02
     19.401  0.2241E+01  0.5887E+02
     19.538  0.2868E+01  0.5926E+02
     19.674  0.8745E+00  0.5938E+02
     19.811  0.2354E+01  0.5971E+02
     19.947  0.2966E+01  0.6011E+02
     20.084  0.1911E+01  0.6037E+02
     20.221  0.3548E+01  0.6086E+02
     20.357  0.1477E+01  0.6106E+02
     20.494  0.2641E+01  0.6142E+02
     20.630  0.2008E+01  0.6169E+02
     20.767  0.2106E+01  0.6198E+02
     20.903  0.3195E+01  0.6242E+02
     21.040  0.1864E+01  0.6267E+02
     21.177  0.1791E+01  0.6292E+02
     21.313  0.1906E+01  0.6318E+02
     21.450  0.8260E-01  0.6319E+02
     21.586  0.3161E+00  0.6323E+02
     21.723  0.2111E+01  0.6352E+02
     21.859  0.4263E+01  0.6410E+02
     21.996  0.2823E+01  0.6449E+02
     22.133  0.1129E+01  0.6464E+02
     22.269  0.1409E+01  0.6483E+02
     22.406  0.2038E+01  0.6511E+02
     22.542  0.4293E+00  0.6517E+02
     22.679  0.2031E+01  0.6545E+02
     22.815  0.2111E+01  0.6574E+02
     22.952  0.3119E+01  0.6616E+02
     23.089  0.1461E+01  0.6636E+02
     23.225  0.2538E+01  0.6671E+02
     23.362  0.2260E+01  0.6702E+02
     23.498  0.4844E+00  0.6708E+02
     23.635  0.1431E+01  0.6728E+02
     23.771  0.1041E+01  0.6742E+02
     23.908  0.4146E+01  0.6799E+02
     24.045  0.3073E+01  0.6841E+02
     24.181  0.1247E+01  0.6858E+02
     24.318  0.1902E+01  0.6884E+02
     24.454  0.9185E+00  0.6896E+02
     24.591  0.1491E+01  0.6917E+02
     24.727  0.2894E+01  0.6956E+02
     24.864  0.1337E+01  0.6974E+02
     25.001  0.2298E+01  0.7006E+02
     25.137  0.3057E+01  0.7047E+02
     25.274  0.2345E+01  0.7079E+02
     25.410  0.3344E+01  0.7125E+02
     25.547  0.3309E+01  0.7170E+02
     25.683  0.3385E+01  0.7217E+02
     25.820  0.3664E+01  0.7267E+02
     25.957  0.3461E+00  0.7271E+02
     26.093  0.3073E+01  0.7313E+02
     26.230  0.6932E+01  0.7408E+02
     26.366  0.6887E+01  0.7502E+02
     26.503  0.2967E+01  0.7543E+02
     26.639  0.2986E+01  0.7583E+02
     26.776  0.2125E+01  0.7612E+02
     26.913  0.2574E+01  0.7648E+02
     27.049  0.1151E+01  0.7663E+02
     27.186  0.1879E+01  0.7689E+02
     27.322  0.1914E+01  0.7715E+02
     27.459  0.1435E+01  0.7735E+02
     27.595  0.1766E+01  0.7759E+02
     27.732  0.2082E+01  0.7787E+02
     27.869  0.5062E+01  0.7856E+02
     28.005  0.2935E+01  0.7896E+02
     28.142  0.1725E+01  0.7920E+02
     28.278  0.3841E+01  0.7972E+02
     28.415  0.1091E+01  0.7987E+02
     28.552  0.9678E+00  0.8001E+02
     28.688  0.1148E+01  0.8016E+02
     28.825  0.1480E+01  0.8036E+02
     28.961  0.2057E+01  0.8065E+02
     29.098  0.6735E+00  0.8074E+02
     29.234  0.2548E+01  0.8109E+02
     29.371  0.1970E+01  0.8135E+02
     29.508  0.4938E+00  0.8142E+02
     29.644 -0.7600E-01  0.8141E+02
     29.781  0.5905E+00  0.8149E+02
     29.917  0.1172E+01  0.8165E+02
     30.054  0.2231E+01  0.8196E+02
     30.190  0.1792E+01  0.8220E+02
     30.327  0.1500E+01  0.8241E+02
     30.464  0.2990E+01  0.8282E+02
     30.600  0.1534E+01  0.8302E+02
     30.737  0.1712E-01  0.8303E+02
     30.873 -0.1441E+00  0.8301E+02
     31.010  0.2119E+01  0.8330E+02
     31.146  0.6434E+01  0.8418E+02
     31.283  0.7334E+01  0.8518E+02
     31.420  0.3579E+01  0.8567E+02
     31.556  0.8467E+00  0.8578E+02
     31.693  0.3080E+01  0.8620E+02
     31.829  0.5312E+01  0.8693E+02
     31.966  0.8944E+00  0.8705E+02
     32.102  0.1679E+01  0.8728E+02
     32.239  0.2600E+01  0.8763E+02
     32.376  0.2071E+01  0.8792E+02
     32.512  0.1653E+01  0.8814E+02
     32.649  0.4260E+01  0.8872E+02
     32.785  0.1415E+01  0.8892E+02
     32.922  0.9697E+00  0.8905E+02
     33.058  0.3979E+01  0.8959E+02
     33.195  0.2455E+01  0.8993E+02
     33.332  0.4644E+01  0.9056E+02
     33.468  0.1659E+01  0.9079E+02
     33.605  0.1758E+01  0.9103E+02
     33.741  0.2943E+01  0.9143E+02
     33.878  0.5897E+01  0.9224E+02
     34.014  0.3506E+01  0.9272E+02
     34.151  0.2621E+01  0.9307E+02
     34.288  0.4755E+01  0.9372E+02
     34.424  0.3269E+00  0.9377E+02
     34.561  0.4957E+00  0.9384E+02
     34.697  0.3920E+01  0.9437E+02
     34.834  0.4390E+01  0.9497E+02
     34.970  0.2078E+01  0.9525E+02
     35.107  0.2825E+01  0.9564E+02
     35.244  0.6792E+00  0.9573E+02
     35.380 -0.6159E-01  0.9572E+02
     35.517  0.1118E+00  0.9574E+02
     35.653  0.4203E+00  0.9580E+02
     35.790 -0.2598E-01  0.9579E+02
     35.926  0.3327E+00  0.9584E+02
     36.063  0.4686E+00  0.9590E+02
     36.200 -0.1730E-01  0.9590E+02
     36.336 -0.9840E-03  0.9590E+02
     36.473 -0.2437E-05  0.9590E+02
     36.609 -0.2820E-02  0.9590E+02
     36.746  0.5593E-02  0.9590E+02
     36.882  0.6067E+00  0.9598E+02
     37.019  0.8097E-01  0.9600E+02
     37.156 -0.7268E-02  0.9599E+02
     37.292 -0.1278E-04  0.9599E+02
     37.429 -0.4212E-09  0.9599E+02
     37.565 -0.1053E-05  0.9599E+02
     37.702 -0.5178E-03  0.9599E+02
     37.838  0.6144E-02  0.9599E+02
     37.975  0.3731E-01  0.9600E+02
     38.112 -0.9347E-04  0.9600E+02
     38.248 -0.1487E-03  0.9600E+02
     38.385 -0.9406E-07  0.9600E+02
     38.521 -0.1117E-11  0.9600E+02
     38.658  0.0000E+00  0.9600E+02
     38.794  0.0000E+00  0.9600E+02
     38.931  0.0000E+00  0.9600E+02
     39.068  0.0000E+00  0.9600E+02
     39.204  0.0000E+00  0.9600E+02
     39.341  0.0000E+00  0.9600E+02
     39.477  0.0000E+00  0.9600E+02
     39.614  0.0000E+00  0.9600E+02
     39.750  0.0000E+00  0.9600E+02
