       N       E                     dE             d eps       ncg     rms          rms(c)
DAV:   1     0.196478660300E+03    0.19648E+03   -0.18641E+04  1920   0.734E+02
DAV:   2    -0.880006960649E+01   -0.20528E+03   -0.19328E+03  2448   0.186E+02
DAV:   3    -0.118476039388E+02   -0.30475E+01   -0.30452E+01  2304   0.245E+01
DAV:   4    -0.118568088888E+02   -0.92050E-02   -0.92047E-02  2760   0.142E+00
DAV:   5    -0.118568924160E+02   -0.83527E-04   -0.83528E-04  2088   0.134E-01    0.104E+01
DAV:   6    -0.108803818674E+02    0.97651E+00   -0.24489E+00  2544   0.873E+00    0.668E+00
DAV:   7    -0.108467809390E+02    0.33601E-01   -0.32311E-02  2280   0.979E-01    0.372E+00
DAV:   8    -0.108353120015E+02    0.11469E-01   -0.25814E-03  2568   0.199E-01    0.183E-01
DAV:   9    -0.108353339864E+02   -0.21985E-04   -0.27978E-05  1872   0.204E-02
   1 F= -.10835334E+02 E0= -.10835097E+02  d E =-.710918E-03
