   4   4   0   0
  0.1196463E+02  0.3630667E-09  0.3630667E-09  0.3630667E-09  0.5000000E-15
  1.000000000000000E-004
  CAR 
 unknown system                          
     23.71318640      4.06030590  301     13.79164169      1.00000000
      4.060  0.0000E+00  0.0000E+00
      4.126  0.0000E+00  0.0000E+00
      4.191  0.0000E+00  0.0000E+00
      4.257 -0.9939E-28 -0.6511E-29
      4.322 -0.2217E-23 -0.1453E-24
      4.388 -0.2080E-19 -0.1363E-20
      4.453 -0.8194E-16 -0.5369E-17
      4.519 -0.1306E-12 -0.8564E-14
      4.584 -0.8907E-10 -0.5844E-11
      4.650 -0.2509E-07 -0.1650E-08
      4.715 -0.2883E-05 -0.1905E-06
      4.781 -0.1317E-03 -0.8815E-05
      4.846 -0.2239E-02 -0.1555E-03
      4.912 -0.1116E-01 -0.8866E-03
      4.977  0.1495E-01  0.9313E-04
      5.043  0.1682E+00  0.1111E-01
      5.108  0.2405E+00  0.2687E-01
      5.174  0.8313E-01  0.3231E-01
      5.239 -0.1021E-01  0.3165E-01
      5.305 -0.1859E-01  0.3043E-01
      5.370 -0.3708E-01  0.2800E-01
      5.436  0.1376E+00  0.3701E-01
      5.502  0.6418E+00  0.7905E-01
      5.567  0.6266E+00  0.1201E+00
      5.633  0.1229E+00  0.1282E+00
      5.698 -0.4695E-01  0.1251E+00
      5.764 -0.4798E-01  0.1219E+00
      5.829  0.1049E+00  0.1288E+00
      5.895  0.6047E+00  0.1684E+00
      5.960  0.6606E+00  0.2117E+00
      6.026  0.1511E+00  0.2216E+00
      6.091 -0.5794E-01  0.2178E+00
      6.157  0.1915E-01  0.2190E+00
      6.222  0.3433E+00  0.2415E+00
      6.288  0.7733E+00  0.2922E+00
      6.353  0.8194E+00  0.3459E+00
      6.419  0.7567E+00  0.3954E+00
      6.484  0.4552E+00  0.4253E+00
      6.550  0.2839E+00  0.4439E+00
      6.615  0.1569E+01  0.5466E+00
      6.681  0.3334E+01  0.7650E+00
      6.746  0.3836E+01  0.1016E+01
      6.812  0.2718E+01  0.1194E+01
      6.877  0.2333E+01  0.1347E+01
      6.943  0.3781E+01  0.1595E+01
      7.008  0.4974E+01  0.1921E+01
      7.074  0.5045E+01  0.2251E+01
      7.139  0.5341E+01  0.2601E+01
      7.205  0.4739E+01  0.2912E+01
      7.270  0.5792E+01  0.3291E+01
      7.336  0.9000E+01  0.3881E+01
      7.401  0.9833E+01  0.4525E+01
      7.467  0.8411E+01  0.5076E+01
      7.532  0.7648E+01  0.5577E+01
      7.598  0.6338E+01  0.5992E+01
      7.663  0.6104E+01  0.6392E+01
      7.729  0.7065E+01  0.6855E+01
      7.794  0.7428E+01  0.7341E+01
      7.860  0.7861E+01  0.7856E+01
      7.925  0.5062E+01  0.8188E+01
      7.991  0.4466E+01  0.8480E+01
      8.056  0.6760E+01  0.8923E+01
      8.122  0.5646E+01  0.9293E+01
      8.187  0.4056E+01  0.9559E+01
      8.253  0.4428E+01  0.9849E+01
      8.318  0.3493E+01  0.1008E+02
      8.384  0.1876E+01  0.1020E+02
      8.449  0.2762E+01  0.1038E+02
      8.515  0.4324E+01  0.1066E+02
      8.580  0.7065E+01  0.1113E+02
      8.646  0.8502E+01  0.1168E+02
      8.711  0.7219E+01  0.1216E+02
      8.777  0.5306E+01  0.1251E+02
      8.843  0.2686E+01  0.1268E+02
      8.908  0.2131E+01  0.1282E+02
      8.974  0.3187E+01  0.1303E+02
      9.039  0.5986E+01  0.1342E+02
      9.105  0.7160E+01  0.1389E+02
      9.170  0.3749E+01  0.1414E+02
      9.236  0.2554E+01  0.1430E+02
      9.301  0.4461E+01  0.1460E+02
      9.367  0.5177E+01  0.1493E+02
      9.432  0.6418E+01  0.1536E+02
      9.498  0.6349E+01  0.1577E+02
      9.563  0.3351E+01  0.1599E+02
      9.629  0.3517E+01  0.1622E+02
      9.694  0.6074E+01  0.1662E+02
      9.760  0.5561E+01  0.1698E+02
      9.825  0.6970E+01  0.1744E+02
      9.891  0.9823E+01  0.1808E+02
      9.956  0.6937E+01  0.1854E+02
     10.022  0.3509E+01  0.1877E+02
     10.087  0.6677E+01  0.1921E+02
     10.153  0.9494E+01  0.1983E+02
     10.218  0.7884E+01  0.2034E+02
     10.284  0.8597E+01  0.2091E+02
     10.349  0.9697E+01  0.2154E+02
     10.415  0.7128E+01  0.2201E+02
     10.480  0.7440E+01  0.2250E+02
     10.546  0.7748E+01  0.2300E+02
     10.611  0.5312E+01  0.2335E+02
     10.677  0.5213E+01  0.2369E+02
     10.742  0.5070E+01  0.2403E+02
     10.808  0.4521E+01  0.2432E+02
     10.873  0.3677E+01  0.2456E+02
     10.939  0.4062E+01  0.2483E+02
     11.004  0.6924E+01  0.2528E+02
     11.070  0.7385E+01  0.2577E+02
     11.135  0.6240E+01  0.2617E+02
     11.201  0.4599E+01  0.2648E+02
     11.266  0.2154E+01  0.2662E+02
     11.332  0.2470E+01  0.2678E+02
     11.397  0.3879E+01  0.2703E+02
     11.463  0.2812E+01  0.2722E+02
     11.528  0.4207E+01  0.2749E+02
     11.594  0.5717E+01  0.2787E+02
     11.659  0.6732E+01  0.2831E+02
     11.725  0.8773E+01  0.2888E+02
     11.790  0.7064E+01  0.2935E+02
     11.856  0.6091E+01  0.2974E+02
     11.921  0.7345E+01  0.3023E+02
     11.987  0.7220E+01  0.3070E+02
     12.052  0.4349E+01  0.3098E+02
     12.118  0.2298E+01  0.3113E+02
     12.183  0.3184E+01  0.3134E+02
     12.249  0.3708E+01  0.3159E+02
     12.315  0.3894E+01  0.3184E+02
     12.380  0.4453E+01  0.3213E+02
     12.446  0.6151E+01  0.3254E+02
     12.511  0.7662E+01  0.3304E+02
     12.577  0.7258E+01  0.3351E+02
     12.642  0.4750E+01  0.3382E+02
     12.708  0.4150E+01  0.3410E+02
     12.773  0.3965E+01  0.3436E+02
     12.839  0.1759E+01  0.3447E+02
     12.904  0.3996E+00  0.3450E+02
     12.970  0.2929E+01  0.3469E+02
     13.035  0.6658E+01  0.3513E+02
     13.101  0.7344E+01  0.3561E+02
     13.166  0.6913E+01  0.3606E+02
     13.232  0.5538E+01  0.3642E+02
     13.297  0.4174E+01  0.3670E+02
     13.363  0.3646E+01  0.3693E+02
     13.428  0.4493E+01  0.3723E+02
     13.494  0.4866E+01  0.3755E+02
     13.559  0.4431E+01  0.3784E+02
     13.625  0.7203E+01  0.3831E+02
     13.690  0.1126E+02  0.3905E+02
     13.756  0.1030E+02  0.3972E+02
     13.821  0.7482E+01  0.4021E+02
     13.887  0.6683E+01  0.4065E+02
     13.952  0.3660E+01  0.4089E+02
     14.018  0.1586E+01  0.4099E+02
     14.083  0.4551E+01  0.4129E+02
     14.149  0.8163E+01  0.4183E+02
     14.214  0.5266E+01  0.4217E+02
     14.280  0.6524E+00  0.4221E+02
     14.345 -0.3592E+00  0.4219E+02
     14.411  0.5304E-01  0.4219E+02
     14.476  0.6375E+00  0.4224E+02
     14.542  0.6236E+00  0.4228E+02
     14.607  0.1213E+00  0.4228E+02
     14.673 -0.3663E-01  0.4228E+02
     14.738 -0.1138E-01  0.4228E+02
     14.804 -0.3529E-02  0.4228E+02
     14.869 -0.2223E-01  0.4228E+02
     14.935 -0.1956E-01  0.4228E+02
     15.000  0.2964E+00  0.4230E+02
     15.066  0.6922E+00  0.4234E+02
     15.131  0.3752E+00  0.4237E+02
     15.197  0.5025E+00  0.4240E+02
     15.262  0.1740E+01  0.4251E+02
     15.328  0.2910E+01  0.4271E+02
     15.393  0.3063E+01  0.4291E+02
     15.459  0.1884E+01  0.4303E+02
     15.524  0.1438E+01  0.4312E+02
     15.590  0.1252E+01  0.4321E+02
     15.656  0.3069E+00  0.4323E+02
     15.721 -0.7467E-01  0.4322E+02
     15.787 -0.4545E-01  0.4322E+02
     15.852 -0.9535E-01  0.4321E+02
     15.918  0.7164E-01  0.4322E+02
     15.983  0.1325E+01  0.4330E+02
     16.049  0.2285E+01  0.4345E+02
     16.114  0.1487E+01  0.4355E+02
     16.180  0.6206E+00  0.4359E+02
     16.245  0.1011E+00  0.4360E+02
     16.311 -0.7792E-01  0.4359E+02
     16.376 -0.7684E-01  0.4359E+02
     16.442  0.4392E+00  0.4362E+02
     16.507  0.1399E+01  0.4371E+02
     16.573  0.1002E+01  0.4377E+02
     16.638  0.2380E+00  0.4379E+02
     16.704  0.9908E+00  0.4385E+02
     16.769  0.1387E+01  0.4394E+02
     16.835  0.3844E+00  0.4397E+02
     16.900  0.3820E-01  0.4397E+02
     16.966  0.9919E+00  0.4404E+02
     17.031  0.1913E+01  0.4416E+02
     17.097  0.1196E+01  0.4424E+02
     17.162  0.5870E+00  0.4428E+02
     17.228  0.1316E+01  0.4437E+02
     17.293  0.9673E+00  0.4443E+02
     17.359  0.2922E+00  0.4445E+02
     17.424  0.1095E+01  0.4452E+02
     17.490  0.1678E+01  0.4463E+02
     17.555  0.1496E+01  0.4473E+02
     17.621  0.1067E+01  0.4480E+02
     17.686  0.2667E+00  0.4482E+02
     17.752 -0.1321E+00  0.4481E+02
     17.817  0.3038E+00  0.4483E+02
     17.883  0.1656E+01  0.4493E+02
     17.948  0.1934E+01  0.4506E+02
     18.014  0.5706E+00  0.4510E+02
     18.079  0.4855E-01  0.4510E+02
     18.145  0.5528E+00  0.4514E+02
     18.210  0.5632E+00  0.4518E+02
     18.276  0.3736E+00  0.4520E+02
     18.341  0.1325E+01  0.4529E+02
     18.407  0.2570E+01  0.4545E+02
     18.472  0.2359E+01  0.4561E+02
     18.538  0.8348E+00  0.4566E+02
     18.603 -0.4293E-01  0.4566E+02
     18.669 -0.6805E-01  0.4566E+02
     18.734 -0.1011E-01  0.4566E+02
     18.800 -0.9512E-02  0.4566E+02
     18.865 -0.8014E-01  0.4565E+02
     18.931 -0.9703E-01  0.4564E+02
     18.996  0.1065E+01  0.4571E+02
     19.062  0.2897E+01  0.4590E+02
     19.128  0.1948E+01  0.4603E+02
     19.193  0.1483E+00  0.4604E+02
     19.259 -0.1857E+00  0.4603E+02
     19.324 -0.2817E-01  0.4603E+02
     19.390  0.7315E+00  0.4607E+02
     19.455  0.1504E+01  0.4617E+02
     19.521  0.1509E+01  0.4627E+02
     19.586  0.1470E+01  0.4637E+02
     19.652  0.5921E+00  0.4641E+02
     19.717 -0.1558E-01  0.4641E+02
     19.783  0.7371E+00  0.4645E+02
     19.848  0.1471E+01  0.4655E+02
     19.914  0.1007E+01  0.4662E+02
     19.979  0.7092E+00  0.4666E+02
     20.045  0.3451E+00  0.4669E+02
     20.110  0.1614E+00  0.4670E+02
     20.176  0.6273E+00  0.4674E+02
     20.241  0.6042E+00  0.4678E+02
     20.307  0.1044E+00  0.4678E+02
     20.372 -0.8627E-01  0.4678E+02
     20.438 -0.1317E+00  0.4677E+02
     20.503  0.5580E+00  0.4681E+02
     20.569  0.2401E+01  0.4696E+02
     20.634  0.2477E+01  0.4713E+02
     20.700  0.6149E+00  0.4717E+02
     20.765 -0.1895E+00  0.4715E+02
     20.831  0.1941E+00  0.4717E+02
     20.896  0.1249E+01  0.4725E+02
     20.962  0.1282E+01  0.4733E+02
     21.027  0.2720E+00  0.4735E+02
     21.093 -0.9213E-01  0.4734E+02
     21.158 -0.5152E-01  0.4734E+02
     21.224  0.2520E+00  0.4736E+02
     21.289  0.7235E+00  0.4740E+02
     21.355  0.4997E+00  0.4744E+02
     21.420  0.4251E-01  0.4744E+02
     21.486 -0.3547E-01  0.4744E+02
     21.551 -0.3340E-01  0.4744E+02
     21.617 -0.8023E-01  0.4743E+02
     21.682  0.2531E+00  0.4745E+02
     21.748  0.1316E+01  0.4753E+02
     21.813  0.1990E+01  0.4766E+02
     21.879  0.1714E+01  0.4778E+02
     21.944  0.6531E+00  0.4782E+02
     22.010 -0.3263E-01  0.4782E+02
     22.075 -0.5329E-01  0.4781E+02
     22.141 -0.7237E-02  0.4781E+02
     22.206 -0.3255E-03  0.4781E+02
     22.272 -0.5614E-05  0.4781E+02
     22.337 -0.2121E-05  0.4781E+02
     22.403 -0.1474E-03  0.4781E+02
     22.469 -0.4040E-02  0.4781E+02
     22.534 -0.3803E-01  0.4781E+02
     22.600 -0.5542E-01  0.4781E+02
     22.665  0.4989E+00  0.4784E+02
     22.731  0.1443E+01  0.4793E+02
     22.796  0.1009E+01  0.4800E+02
     22.862  0.8973E-01  0.4801E+02
     22.927 -0.6696E-01  0.4800E+02
     22.993 -0.1344E-01  0.4800E+02
     23.058 -0.7899E-03  0.4800E+02
     23.124 -0.1730E-04  0.4800E+02
     23.189 -0.1506E-06  0.4800E+02
     23.255 -0.5344E-09  0.4800E+02
     23.320 -0.7836E-12  0.4800E+02
     23.386 -0.6355E-15  0.4800E+02
     23.451  0.0000E+00  0.4800E+02
     23.517  0.0000E+00  0.4800E+02
     23.582  0.0000E+00  0.4800E+02
     23.648  0.0000E+00  0.4800E+02
     23.713  0.0000E+00  0.4800E+02
