    4    4    1    1
  0.1196463E+02  0.3630667E-09  0.3630667E-09  0.3630667E-09  0.5000000E-15
  1.000000000000000E-004
  CAR 
 unknown system                          
     40     20     24
 
  0.6250000E-01  0.6250000E-01  0.6250000E-01  0.1562500E-01
    1        5.060306   1.000000
    2        6.414175   1.000000
    3        6.414175   1.000000
    4        6.414175   1.000000
    5        6.796578   1.000000
    6        6.796578   1.000000
    7        6.796578   1.000000
    8        9.744049   1.000000
    9        9.885871   1.000000
   10        9.885871   1.000000
   11       12.046074   1.000000
   12       12.046074   1.000000
   13       13.599183   1.010122
   14       13.599183   1.010122
   15       13.599183   1.010122
   16       13.679494   1.033575
   17       13.679494   1.033575
   18       13.679494   1.033575
   19       14.156534  -0.000002
   20       14.156534  -0.000002
   21       14.156534  -0.000002
   22       17.525273   0.000000
   23       17.525273   0.000000
   24       17.525273   0.000000
 
  0.1875000E+00  0.6250000E-01  0.6250000E-01  0.4687500E-01
    1        5.500346   1.000000
    2        6.667140   1.000000
    3        6.704648   1.000000
    4        6.704648   1.000000
    5        6.983953   1.000000
    6        7.115829   1.000000
    7        7.115829   1.000000
    8        9.486318   1.000000
    9       10.092293   1.000000
   10       10.100723   1.000000
   11       11.756270   1.000000
   12       12.176201   1.000000
   13       12.396061   1.000000
   14       12.396061   1.000000
   15       13.115045   1.000000
   16       13.218596   1.000000
   17       13.218596   1.000000
   18       13.272928   1.000000
   19       13.881082  -0.010416
   20       14.124156  -0.000014
   21       14.124156  -0.000014
   22       16.018538  -0.000000
   23       19.036748   0.000000
   24       19.036748   0.000000
 
  0.3125000E+00  0.6250000E-01  0.6250000E-01  0.4687500E-01
    1        6.288725   1.000000
    2        7.083834   1.000000
    3        7.212761   1.000000
    4        7.212761   1.000000
    5        7.345315   1.000000
    6        7.718679   1.000000
    7        7.718679   1.000000
    8        9.001983   1.000000
    9       10.476254   1.000000
   10       10.521309   1.000000
   11       10.950552   1.000000
   12       10.950552   1.000000
   13       11.378560   1.000000
   14       12.158654   1.000000
   15       12.422046   1.000000
   16       12.553039   1.000000
   17       12.553039   1.000000
   18       12.630623   1.000000
   19       13.519913   1.000415
   20       14.112062  -0.000028
   21       14.112062  -0.000028
   22       14.167934  -0.000001
   23       20.897346   0.000000
   24       20.897346   0.000000
 
  0.4375000E+00  0.6250000E-01  0.6250000E-01  0.4687500E-01
    1        7.127405   1.000000
    2        7.406814   1.000000
    3        7.700843   1.000000
    4        7.700843   1.000000
    5        7.842893   1.000000
    6        8.419264   1.000000
    7        8.550464   1.000000
    8        8.550464   1.000000
    9        9.646784   1.000000
   10        9.646784   1.000000
   11       10.642649   1.000000
   12       11.123286   1.000000
   13       11.124768   1.000000
   14       11.643649   1.000000
   15       11.857551   1.000000
   16       11.968280   1.000000
   17       11.968280   1.000000
   18       12.656654   1.000000
   19       12.754927   1.000000
   20       13.135097   1.000000
   21       14.108675  -0.000035
   22       14.108675  -0.000035
   23       22.713186   0.000000
   24       22.713186   0.000000
 
  0.1875000E+00  0.1875000E+00  0.6250000E-01  0.4687500E-01
    1        5.898935   1.000000
    2        6.881926   1.000000
    3        6.953988   1.000000
    4        6.953988   1.000000
    5        7.296599   1.000000
    6        7.296599   1.000000
    7        7.491901   1.000000
    8        9.401328   1.000000
    9       10.173010   1.000000
   10       10.211501   1.000000
   11       11.707733   1.000000
   12       11.802904   1.000000
   13       11.802904   1.000000
   14       11.808551   1.000000
   15       12.200021   1.000000
   16       12.810542   1.000000
   17       13.027809   1.000000
   18       13.027809   1.000000
   19       13.830634   0.196190
   20       13.830634   0.196190
   21       13.890821  -0.024255
   22       17.429113   0.000000
   23       17.429113   0.000000
   24       20.171949   0.000000
 
  0.3125000E+00  0.1875000E+00  0.6250000E-01  0.9375000E-01
    1        6.610422   1.000000
    2        7.292242   1.000000
    3        7.348018   1.000000
    4        7.467666   1.000000
    5        7.661186   1.000000
    6        7.869852   1.000000
    7        8.076617   1.000000
    8        9.069058   1.000000
    9       10.332892   1.000000
   10       10.477367   1.000000
   11       10.513136   1.000000
   12       10.750854   1.000000
   13       10.986962   1.000000
   14       11.521112   1.000000
   15       12.286704   1.000000
   16       12.440539   1.000000
   17       12.525006   1.000000
   18       12.567389   1.000000
   19       13.398526   1.000000
   20       13.711588   0.990184
   21       13.725830   0.944392
   22       15.530810  -0.000000
   23       19.048540   0.000000
   24       21.744127   0.000000
 
  0.4375000E+00  0.1875000E+00  0.6250000E-01  0.9375000E-01
    1        7.381083   1.000000
    2        7.649554   1.000000
    3        7.851842   1.000000
    4        7.989033   1.000000
    5        8.137446   1.000000
    6        8.562363   1.000000
    7        8.606147   1.000000
    8        8.619035   1.000000
    9        9.441180   1.000000
   10        9.673986   1.000000
   11       10.166404   1.000000
   12       10.276154   1.000000
   13       11.038284   1.000000
   14       11.705301   1.000000
   15       11.845671   1.000000
   16       11.910127   1.000000
   17       11.955529   1.000000
   18       12.729333   1.000000
   19       13.154112   1.000000
   20       13.661852   1.034713
   21       13.662358   1.034808
   22       14.048031  -0.000866
   23       20.551901   0.000000
   24       21.844792   0.000000
 
  0.3125000E+00  0.3125000E+00  0.6250000E-01  0.4687500E-01
    1        7.164256   1.000000
    2        7.559555   1.000000
    3        7.826898   1.000000
    4        7.826898   1.000000
    5        8.226862   1.000000
    6        8.226862   1.000000
    7        8.583865   1.000000
    8        9.067746   1.000000
    9        9.875706   1.000000
   10        9.875706   1.000000
   11       10.231186   1.000000
   12       10.283611   1.000000
   13       10.636582   1.000000
   14       11.390604   1.000000
   15       11.860746   1.000000
   16       12.156278   1.000000
   17       12.156278   1.000000
   18       13.121750   1.000000
   19       13.121750   1.000000
   20       13.194943   1.000000
   21       13.308142   1.000000
   22       17.023482   0.000000
   23       17.023482   0.000000
   24       21.271388   0.000000
 
  0.4375000E+00  0.3125000E+00  0.6250000E-01  0.9375000E-01
    1        7.752847   1.000000
    2        8.017104   1.000000
    3        8.034553   1.000000
    4        8.436273   1.000000
    5        8.575234   1.000000
    6        8.715042   1.000000
    7        8.855395   1.000000
    8        8.926963   1.000000
    9        9.281301   1.000000
   10        9.512474   1.000000
   11        9.681143   1.000000
   12        9.873913   1.000000
   13       10.962764   1.000000
   14       11.530919   1.000000
   15       11.535527   1.000000
   16       11.683314   1.000000
   17       11.705046   1.000000
   18       12.407128   1.000000
   19       12.995344   1.000000
   20       13.053941   1.000000
   21       14.131353  -0.000009
   22       15.365065  -0.000000
   23       18.444863   0.000000
   24       19.811746   0.000000
 
  0.4375000E+00  0.4375000E+00  0.6250000E-01  0.4687500E-01
    1        8.067422   1.000000
    2        8.218379   1.000000
    3        8.301404   1.000000
    4        8.301404   1.000000
    5        9.039631   1.000000
    6        9.066546   1.000000
    7        9.066546   1.000000
    8        9.148153   1.000000
    9        9.386203   1.000000
   10        9.386203   1.000000
   11        9.682303   1.000000
   12        9.765860   1.000000
   13       10.862964   1.000000
   14       11.164554   1.000000
   15       11.211890   1.000000
   16       11.211890   1.000000
   17       11.746656   1.000000
   18       12.289088   1.000000
   19       12.289088   1.000000
   20       12.533378   1.000000
   21       15.323641  -0.000000
   22       16.717773   0.000000
   23       16.717773   0.000000
   24       18.145407   0.000000
 
  0.1875000E+00  0.1875000E+00  0.1875000E+00  0.1562500E-01
    1        6.209933   1.000000
    2        7.079097   1.000000
    3        7.079097   1.000000
    4        7.079097   1.000000
    5        7.696074   1.000000
    6        7.696074   1.000000
    7        7.696074   1.000000
    8        9.479058   1.000000
    9       10.207446   1.000000
   10       10.207446   1.000000
   11       11.351343   1.000000
   12       11.351343   1.000000
   13       11.351343   1.000000
   14       11.999719   1.000000
   15       11.999719   1.000000
   16       12.314385   1.000000
   17       12.314385   1.000000
   18       12.314385   1.000000
   19       13.976832  -0.012518
   20       13.976832  -0.012518
   21       13.976832  -0.012518
   22       18.315390   0.000000
   23       18.315390   0.000000
   24       18.315390   0.000000
 
  0.3125000E+00  0.1875000E+00  0.1875000E+00  0.4687500E-01
    1        6.742127   1.000000
    2        7.349757   1.000000
    3        7.438245   1.000000
    4        7.438245   1.000000
    5        8.128855   1.000000
    6        8.244698   1.000000
    7        8.244698   1.000000
    8        9.392920   1.000000
    9       10.257920   1.000000
   10       10.348119   1.000000
   11       10.455661   1.000000
   12       10.455661   1.000000
   13       10.655890   1.000000
   14       11.687735   1.000000
   15       11.909693   1.000000
   16       11.909693   1.000000
   17       11.939641   1.000000
   18       12.477302   1.000000
   19       13.802304   0.410333
   20       13.802304   0.410333
   21       13.863461   0.033936
   22       16.120405  -0.000000
   23       19.550369   0.000000
   24       19.550369   0.000000
 
  0.4375000E+00  0.1875000E+00  0.1875000E+00  0.4687500E-01
    1        7.280518   1.000000
    2        7.497012   1.000000
    3        7.990940   1.000000
    4        7.990940   1.000000
    5        8.468013   1.000000
    6        8.468013   1.000000
    7        8.712654   1.000000
    8        9.153266   1.000000
    9        9.856416   1.000000
   10        9.856416   1.000000
   11       10.029180   1.000000
   12       10.065559   1.000000
   13       10.645502   1.000000
   14       11.103960   1.000000
   15       11.561642   1.000000
   16       11.561642   1.000000
   17       12.677000   1.000000
   18       13.021094   1.000000
   19       13.518839   1.000394
   20       13.628090   1.021432
   21       13.628090   1.021432
   22       14.159962  -0.000001
   23       20.588974   0.000000
   24       20.588974   0.000000
 
  0.3125000E+00  0.3125000E+00  0.1875000E+00  0.4687500E-01
    1        6.975407   1.000000
    2        7.552658   1.000000
    3        7.552658   1.000000
    4        7.565365   1.000000
    5        8.649506   1.000000
    6        8.657924   1.000000
    7        8.657924   1.000000
    8        9.781308   1.000000
    9       10.098933   1.000000
   10       10.098933   1.000000
   11       10.216720   1.000000
   12       10.269525   1.000000
   13       10.355898   1.000000
   14       11.339550   1.000000
   15       11.358810   1.000000
   16       11.358810   1.000000
   17       12.033597   1.000000
   18       12.967173   1.000000
   19       13.658669   1.033992
   20       13.714017   0.983719
   21       13.714017   0.983719
   22       17.213722   0.000000
   23       17.213722   0.000000
   24       19.952955   0.000000
 
  0.4375000E+00  0.3125000E+00  0.1875000E+00  0.9375000E-01
    1        7.253743   1.000000
    2        7.483280   1.000000
    3        7.800878   1.000000
    4        7.827815   1.000000
    5        8.740890   1.000000
    6        8.745562   1.000000
    7        9.289333   1.000000
    8        9.831206   1.000000
    9        9.893740   1.000000
   10        9.955395   1.000000
   11       10.105684   1.000000
   12       10.312531   1.000000
   13       10.440394   1.000000
   14       10.827260   1.000000
   15       11.036422   1.000000
   16       11.111419   1.000000
   17       12.518170   1.000000
   18       13.283183   1.000000
   19       13.434703   1.000003
   20       13.447810   1.000007
   21       13.870420   0.013144
   22       15.238406  -0.000000
   23       18.380365   0.000000
   24       19.419972   0.000000
 
  0.4375000E+00  0.4375000E+00  0.1875000E+00  0.4687500E-01
    1        7.343419   1.000000
    2        7.545919   1.000000
    3        7.545919   1.000000
    4        7.643420   1.000000
    5        9.057428   1.000000
    6        9.253040   1.000000
    7        9.253040   1.000000
    8        9.646401   1.000000
    9       10.321422   1.000000
   10       10.335518   1.000000
   11       10.335518   1.000000
   12       10.570127   1.000000
   13       10.639634   1.000000
   14       10.641783   1.000000
   15       10.717723   1.000000
   16       10.717723   1.000000
   17       12.469731   1.000000
   18       12.983558   1.000000
   19       12.983558   1.000000
   20       13.091839   1.000000
   21       15.041932  -0.000000
   22       16.493614  -0.000000
   23       16.493614  -0.000000
   24       17.861852   0.000000
 
  0.3125000E+00  0.3125000E+00  0.3125000E+00  0.1562500E-01
    1        6.871930   1.000000
    2        7.407485   1.000000
    3        7.407485   1.000000
    4        7.407485   1.000000
    5        8.961166   1.000000
    6        8.961166   1.000000
    7        8.961166   1.000000
    8       10.070989   1.000000
    9       10.070989   1.000000
   10       10.530500   1.000000
   11       10.530500   1.000000
   12       10.530500   1.000000
   13       10.773562   1.000000
   14       10.773562   1.000000
   15       10.773562   1.000000
   16       10.835682   1.000000
   17       12.735767   1.000000
   18       12.735767   1.000000
   19       13.864187   0.031555
   20       13.864187   0.031555
   21       13.864187   0.031555
   22       17.581741   0.000000
   23       17.581741   0.000000
   24       17.581741   0.000000
 
  0.4375000E+00  0.3125000E+00  0.3125000E+00  0.4687500E-01
    1        6.936757   1.000000
    2        7.145437   1.000000
    3        7.359054   1.000000
    4        7.359054   1.000000
    5        9.047111   1.000000
    6        9.047111   1.000000
    7        9.437233   1.000000
    8        9.842885   1.000000
    9       10.092735   1.000000
   10       10.335708   1.000000
   11       10.496178   1.000000
   12       10.496178   1.000000
   13       10.827915   1.000000
   14       10.995429   1.000000
   15       10.995429   1.000000
   16       11.158509   1.000000
   17       13.352988   1.000000
   18       13.482234   1.000055
   19       13.689843   1.026894
   20       13.689843   1.026894
   21       13.760425   0.750446
   22       15.318853  -0.000000
   23       17.905099   0.000000
   24       17.905099   0.000000
 
  0.4375000E+00  0.4375000E+00  0.3125000E+00  0.4687500E-01
    1        6.858300   1.000000
    2        7.011073   1.000000
    3        7.011073   1.000000
    4        7.082942   1.000000
    5        9.330889   1.000000
    6        9.456776   1.000000
    7        9.456776   1.000000
    8        9.771189   1.000000
    9        9.936118   1.000000
   10       10.105706   1.000000
   11       10.105706   1.000000
   12       10.153028   1.000000
   13       11.649574   1.000000
   14       11.649574   1.000000
   15       11.667124   1.000000
   16       12.013509   1.000000
   17       13.157600   1.000000
   18       13.579760   1.005345
   19       13.579760   1.005345
   20       13.586646   1.006780
   21       14.474750  -0.000000
   22       16.000366  -0.000000
   23       16.000366  -0.000000
   24       16.959609   0.000000
 
  0.4375000E+00  0.4375000E+00  0.4375000E+00  0.1562500E-01
    1        6.654665   1.000000
    2        6.735867   1.000000
    3        6.735867   1.000000
    4        6.735867   1.000000
    5        9.613892   1.000000
    6        9.613892   1.000000
    7        9.613892   1.000000
    8        9.773325   1.000000
    9        9.773325   1.000000
   10        9.849449   1.000000
   11        9.849449   1.000000
   12        9.849449   1.000000
   13       12.691777   1.000000
   14       12.691777   1.000000
   15       12.691777   1.000000
   16       13.639905   1.026871
   17       13.639905   1.026871
   18       13.694078   1.022410
   19       13.795570   0.466784
   20       13.795570   0.466784
   21       13.795570   0.466784
   22       15.420035  -0.000000
   23       15.420035  -0.000000
   24       15.420035  -0.000000
