       N       E                     dE             d eps       ncg     rms          rms(c)
DAV:   1     0.144686237596E+03    0.14469E+03   -0.19001E+04   960   0.135E+03
DAV:   2    -0.186029832690E+02   -0.16329E+03   -0.16288E+03  1344   0.255E+02
DAV:   3    -0.194524785475E+02   -0.84950E+00   -0.84714E+00   960   0.267E+01
DAV:   4    -0.194565176641E+02   -0.40391E-02   -0.40383E-02  1152   0.142E+00
DAV:   5    -0.194565578671E+02   -0.40203E-04   -0.40203E-04   960   0.127E-01    0.288E+01
DAV:   6    -0.184209799336E+02    0.10356E+01   -0.31358E+00   960   0.130E+01    0.150E+01
DAV:   7    -0.182676891081E+02    0.15329E+00   -0.30496E-01  1008   0.358E+00    0.437E+00
DAV:   8    -0.182497945769E+02    0.17895E-01   -0.23911E-02   960   0.129E+00    0.311E-01
DAV:   9    -0.182497590251E+02    0.35552E-04   -0.56581E-05   552   0.637E-02
   1 F= -.18249759E+02 E0= -.18250407E+02  d E =0.194337E-02
