 vasp.5.4.1 05Feb16 (build Feb 08 2018 09:21:51) complex                        
  
 executed on             LinuxIFC date 2019.11.20  21:32:17
 running on   24 total cores
 distrk:  each k-point on   24 cores,    1 groups
 distr:  one band on NCORES_PER_BAND=   1 cores,   24 groups


--------------------------------------------------------------------------------------------------------


 INCAR:
 POTCAR:    PAW_PBE Pd 04Jan2005                  

 ----------------------------------------------------------------------------- 
|                                                                             |
|           W    W    AA    RRRRR   N    N  II  N    N   GGGG   !!!           |
|           W    W   A  A   R    R  NN   N  II  NN   N  G    G  !!!           |
|           W    W  A    A  R    R  N N  N  II  N N  N  G       !!!           |
|           W WW W  AAAAAA  RRRRR   N  N N  II  N  N N  G  GGG   !            |
|           WW  WW  A    A  R   R   N   NN  II  N   NN  G    G                |
|           W    W  A    A  R    R  N    N  II  N    N   GGGG   !!!           |
|                                                                             |
|      For optimal performance we recommend to set                            |
|        NCORE= 4 - approx SQRT( number of cores)                             |
|      NCORE specifies how many cores store one orbital (NPAR=cpu/NCORE).     |
|      This setting can  greatly improve the performance of VASP for DFT.     |
|      The default, NPAR=number of cores might be grossly inefficient         |
|      on modern multi-core architectures or massively parallel machines.     |
|      Do your own testing !!!!                                               |
|      Unfortunately you need to use the default for GW and RPA calculations. |
|      (for HF NCORE is supported but not extensively tested yet)             |
|                                                                             |
 ----------------------------------------------------------------------------- 

 POTCAR:    PAW_PBE Pd 04Jan2005                  
   VRHFIN =Pd : s1 d9                                                           
   LEXCH  = PE                                                                  
   EATOM  =   809.7530 eV,   59.5152 Ry                                         
                                                                                
   TITEL  = PAW_PBE Pd 04Jan2005                                                
   LULTRA =        F    use ultrasoft PP ?                                      
   IUNSCR =        1    unscreen: 0-lin 1-nonlin 2-no                           
   RPACOR =    2.000    partial core radius                                     
   POMASS =  106.420; ZVAL   =   10.000    mass and valenz                      
   RCORE  =    2.600    outmost cutoff radius                                   
   RWIGS  =    2.710; RWIGS  =    1.434    wigner-seitz radius (au A)           
   ENMAX  =  250.925; ENMIN  =  188.194 eV                                      
   ICORE  =        3    local potential                                         
   LCOR   =        T    correct aug charges                                     
   LPAW   =        T    paw PP                                                  
   EAUG   =  416.230                                                            
   DEXC   =    0.000                                                            
   RMAX   =    2.653    core radius for proj-oper                               
   RAUG   =    1.300    factor for augmentation sphere                          
   RDEP   =    2.734    radius for radial grids                                 
   RDEPT  =    2.103    core radius for aug-charge                              
                                                                                
   Atomic configuration                                                         
   12 entries                                                                   
     n  l   j            E        occ.                                          
     1  0  0.50    -24164.6631   2.0000                                         
     2  0  0.50     -3530.9218   2.0000                                         
     2  1  1.50     -3165.6822   6.0000                                         
     3  0  0.50      -639.4577   2.0000                                         
     3  1  1.50      -519.4532   6.0000                                         
     3  2  2.50      -328.9757  10.0000                                         
     4  0  0.50       -88.7014   2.0000                                         
     4  1  1.50       -54.4540   6.0000                                         
     4  2  2.50        -6.6878   9.0000                                         
     5  0  0.50        -4.3543   1.0000                                         
     5  1  0.50        -1.3606   0.0000                                         
     4  3  2.50        -1.3606   0.0000                                         
   Description                                                                  
     l       E           TYP  RCUT    TYP  RCUT                                 
     2     -6.6878251     23  2.400                                             
     2     -8.0484077     23  2.400                                             
     0     -4.3542939     23  2.400                                             
     0      4.3406793     23  2.400                                             
     1     -4.0817478     23  2.600                                             
     1     15.8380318     23  2.600                                             
     3     -4.0817478     23  2.400                                             
  local pseudopotential read in
  partial core-charges read in
  partial kinetic energy density read in
  atomic valenz-charges read in
  non local Contribution for L=           2  read in
    real space projection operators read in
  non local Contribution for L=           2  read in
    real space projection operators read in
  non local Contribution for L=           0  read in
    real space projection operators read in
  non local Contribution for L=           0  read in
    real space projection operators read in
  non local Contribution for L=           1  read in
    real space projection operators read in
  non local Contribution for L=           1  read in
    real space projection operators read in
    PAW grid and wavefunctions read in
 
   number of l-projection  operators is LMAX  =           6
   number of lm-projection operators is LMMAX =          18
 
  PAW_PBE Pd 04Jan2005                  :
 energy of atom  1       EATOM= -809.7530
 kinetic energy error for atom=    0.0091 (will be added to EATOM!!)
 
 
 POSCAR: Pd                                      
  positions in cartesian coordinates
  No initial velocities read in
 exchange correlation table for  LEXCH =        8
   RHO(1)=    0.500       N(1)  =     2000
   RHO(2)=  100.500       N(2)  =     4000
 


--------------------------------------------------------------------------------------------------------


 ion  position               nearest neighbor table
   1  0.000  0.000  0.000-   2 2.57   3 2.57   4 2.57   2 2.57   3 2.57   2 2.57   4 2.57   2 2.57
                             3 2.57   4 2.57   3 2.57   4 2.57
   2  0.000  0.500  0.500-   1 2.57   3 2.57   4 2.57   1 2.57   4 2.57   1 2.57   3 2.57   1 2.57
                             3 2.57   4 2.57   4 2.57   3 2.57
   3  0.500  0.000  0.500-   1 2.57   2 2.57   4 2.57   1 2.57   4 2.57   2 2.57   4 2.57   4 2.57
                             1 2.57   2 2.57   1 2.57   2 2.57
   4  0.500  0.500  0.000-   1 2.57   2 2.57   3 2.57   2 2.57   3 2.57   1 2.57   3 2.57   3 2.57
                             1 2.57   2 2.57   2 2.57   1 2.57
 
  LATTYP: Found a simple cubic cell.
 ALAT       =     3.6306666667
  
  Lattice vectors:
  
 A1 = (   3.6306666667,   0.0000000000,   0.0000000000)
 A2 = (   0.0000000000,   3.6306666667,   0.0000000000)
 A3 = (   0.0000000000,   0.0000000000,   3.6306666667)


Analysis of symmetry for initial positions (statically):
=====================================================================
 Subroutine PRICEL returns following result:
 
  LATTYP: Found a face centered cubic cell.
 ALAT       =     3.6306666667
  
  Lattice vectors:
  
 A1 = (   1.8153333333,   1.8153333333,  -0.0000000000)
 A2 = (   1.8153333333,   0.0000000000,  -1.8153333333)
 A3 = (   0.0000000000,   1.8153333333,  -1.8153333333)
 
   4 primitive cells build up your supercell.
 

 Routine SETGRP: Setting up the symmetry group for a 
 simple cubic supercell.


 Subroutine GETGRP returns: Found 48 space group operations
 (whereof 48 operations were pure point group operations)
 out of a pool of 48 trial point group operations.


The static configuration has the point symmetry O_h .


Analysis of symmetry for dynamics (positions and initial velocities):
=====================================================================
 Subroutine PRICEL returns following result:
 
  LATTYP: Found a face centered cubic cell.
 ALAT       =     3.6306666667
  
  Lattice vectors:
  
 A1 = (   1.8153333333,   1.8153333333,  -0.0000000000)
 A2 = (   1.8153333333,   0.0000000000,  -1.8153333333)
 A3 = (   0.0000000000,   1.8153333333,  -1.8153333333)
 
   4 primitive cells build up your supercell.
 

 Routine SETGRP: Setting up the symmetry group for a 
 simple cubic supercell.


 Subroutine GETGRP returns: Found 48 space group operations
 (whereof 48 operations were pure point group operations)
 out of a pool of 48 trial point group operations.


The dynamic configuration has the point symmetry O_h .


 Subroutine INISYM returns: Found 48 space group operations
 (whereof 48 operations are pure point group operations),
 and found     4 'primitive' translations

 
 
 KPOINTS: KPOINTS created by Atomic Simulation Env

Automatic generation of k-mesh.
Space group operators:
 irot       det(A)        alpha          n_x          n_y          n_z        tau_x        tau_y        tau_z
    1     1.000000     0.000001     1.000000     0.000000     0.000000     0.000000     0.000000     0.000000
    2    -1.000000     0.000001     1.000000     0.000000     0.000000     0.000000     0.000000     0.000000
    3     1.000000   120.000000    -0.577350    -0.577350    -0.577350     0.000000     0.000000     0.000000
    4    -1.000000   120.000000    -0.577350    -0.577350    -0.577350     0.000000     0.000000     0.000000
    5     1.000000   120.000000     0.577350     0.577350     0.577350     0.000000     0.000000     0.000000
    6    -1.000000   120.000000     0.577350     0.577350     0.577350     0.000000     0.000000     0.000000
    7     1.000000    90.000000     0.000000     0.000000    -1.000000     0.000000     0.000000     0.000000
    8    -1.000000    90.000000     0.000000     0.000000    -1.000000     0.000000     0.000000     0.000000
    9     1.000000   180.000000     0.000000     0.707107     0.707107     0.000000     0.000000     0.000000
   10    -1.000000   180.000000     0.000000     0.707107     0.707107     0.000000     0.000000     0.000000
   11     1.000000    90.000000     0.000000     1.000000     0.000000     0.000000     0.000000     0.000000
   12    -1.000000    90.000000     0.000000     1.000000     0.000000     0.000000     0.000000     0.000000
   13     1.000000   180.000000     0.000000     0.000000     1.000000     0.000000     0.000000     0.000000
   14    -1.000000   180.000000     0.000000     0.000000     1.000000     0.000000     0.000000     0.000000
   15     1.000000   120.000000    -0.577350     0.577350     0.577350     0.000000     0.000000     0.000000
   16    -1.000000   120.000000    -0.577350     0.577350     0.577350     0.000000     0.000000     0.000000
   17     1.000000   120.000000    -0.577350     0.577350    -0.577350     0.000000     0.000000     0.000000
   18    -1.000000   120.000000    -0.577350     0.577350    -0.577350     0.000000     0.000000     0.000000
   19     1.000000    90.000000     0.000000     0.000000     1.000000     0.000000     0.000000     0.000000
   20    -1.000000    90.000000     0.000000     0.000000     1.000000     0.000000     0.000000     0.000000
   21     1.000000    90.000000    -1.000000     0.000000     0.000000     0.000000     0.000000     0.000000
   22    -1.000000    90.000000    -1.000000     0.000000     0.000000     0.000000     0.000000     0.000000
   23     1.000000   180.000000     0.707107     0.000000     0.707107     0.000000     0.000000     0.000000
   24    -1.000000   180.000000     0.707107     0.000000     0.707107     0.000000     0.000000     0.000000
   25     1.000000   120.000000     0.577350    -0.577350     0.577350     0.000000     0.000000     0.000000
   26    -1.000000   120.000000     0.577350    -0.577350     0.577350     0.000000     0.000000     0.000000
   27     1.000000   120.000000    -0.577350    -0.577350     0.577350     0.000000     0.000000     0.000000
   28    -1.000000   120.000000    -0.577350    -0.577350     0.577350     0.000000     0.000000     0.000000
   29     1.000000   180.000000     1.000000     0.000000     0.000000     0.000000     0.000000     0.000000
   30    -1.000000   180.000000     1.000000     0.000000     0.000000     0.000000     0.000000     0.000000
   31     1.000000    90.000000     0.000000    -1.000000     0.000000     0.000000     0.000000     0.000000
   32    -1.000000    90.000000     0.000000    -1.000000     0.000000     0.000000     0.000000     0.000000
   33     1.000000   180.000000     0.707107     0.707107     0.000000     0.000000     0.000000     0.000000
   34    -1.000000   180.000000     0.707107     0.707107     0.000000     0.000000     0.000000     0.000000
   35     1.000000    90.000000     1.000000     0.000000     0.000000     0.000000     0.000000     0.000000
   36    -1.000000    90.000000     1.000000     0.000000     0.000000     0.000000     0.000000     0.000000
   37     1.000000   120.000000     0.577350    -0.577350    -0.577350     0.000000     0.000000     0.000000
   38    -1.000000   120.000000     0.577350    -0.577350    -0.577350     0.000000     0.000000     0.000000
   39     1.000000   180.000000     0.000000     1.000000     0.000000     0.000000     0.000000     0.000000
   40    -1.000000   180.000000     0.000000     1.000000     0.000000     0.000000     0.000000     0.000000
   41     1.000000   120.000000     0.577350     0.577350    -0.577350     0.000000     0.000000     0.000000
   42    -1.000000   120.000000     0.577350     0.577350    -0.577350     0.000000     0.000000     0.000000
   43     1.000000   180.000000     0.000000    -0.707107     0.707107     0.000000     0.000000     0.000000
   44    -1.000000   180.000000     0.000000    -0.707107     0.707107     0.000000     0.000000     0.000000
   45     1.000000   180.000000     0.707107    -0.707107     0.000000     0.000000     0.000000     0.000000
   46    -1.000000   180.000000     0.707107    -0.707107     0.000000     0.000000     0.000000     0.000000
   47     1.000000   180.000000     0.707107     0.000000    -0.707107     0.000000     0.000000     0.000000
   48    -1.000000   180.000000     0.707107     0.000000    -0.707107     0.000000     0.000000     0.000000
 
 Subroutine IBZKPT returns following result:
 ===========================================
 
 Found     20 irreducible k-points:
 
 Following reciprocal coordinates:
            Coordinates               Weight
  0.062500  0.062500  0.062500      8.000000
  0.187500  0.062500  0.062500     24.000000
  0.312500  0.062500  0.062500     24.000000
  0.437500  0.062500  0.062500     24.000000
  0.187500  0.187500  0.062500     24.000000
  0.312500  0.187500  0.062500     48.000000
  0.437500  0.187500  0.062500     48.000000
  0.312500  0.312500  0.062500     24.000000
  0.437500  0.312500  0.062500     48.000000
  0.437500  0.437500  0.062500     24.000000
  0.187500  0.187500  0.187500      8.000000
  0.312500  0.187500  0.187500     24.000000
  0.437500  0.187500  0.187500     24.000000
  0.312500  0.312500  0.187500     24.000000
  0.437500  0.312500  0.187500     48.000000
  0.437500  0.437500  0.187500     24.000000
  0.312500  0.312500  0.312500      8.000000
  0.437500  0.312500  0.312500     24.000000
  0.437500  0.437500  0.312500     24.000000
  0.437500  0.437500  0.437500      8.000000
 
 Following cartesian coordinates:
            Coordinates               Weight
  0.017214  0.017214  0.017214      8.000000
  0.051643  0.017214  0.017214     24.000000
  0.086072  0.017214  0.017214     24.000000
  0.120501  0.017214  0.017214     24.000000
  0.051643  0.051643  0.017214     24.000000
  0.086072  0.051643  0.017214     48.000000
  0.120501  0.051643  0.017214     48.000000
  0.086072  0.086072  0.017214     24.000000
  0.120501  0.086072  0.017214     48.000000
  0.120501  0.120501  0.017214     24.000000
  0.051643  0.051643  0.051643      8.000000
  0.086072  0.051643  0.051643     24.000000
  0.120501  0.051643  0.051643     24.000000
  0.086072  0.086072  0.051643     24.000000
  0.120501  0.086072  0.051643     48.000000
  0.120501  0.120501  0.051643     24.000000
  0.086072  0.086072  0.086072      8.000000
  0.120501  0.086072  0.086072     24.000000
  0.120501  0.120501  0.086072     24.000000
  0.120501  0.120501  0.120501      8.000000
 


--------------------------------------------------------------------------------------------------------




 Dimension of arrays:
   k-points           NKPTS =     20   k-points in BZ     NKDIM =     20   number of bands    NBANDS=     24
   number of dos      NEDOS =    301   number of ions     NIONS =      4
   non local maximal  LDIM  =      6   non local SUM 2l+1 LMDIM =     18
   total plane-waves  NPLWV =   5832
   max r-space proj   IRMAX =      1   max aug-charges    IRDMAX=   6110
   dimension x,y,z NGX =    18 NGY =   18 NGZ =   18
   dimension x,y,z NGXF=    36 NGYF=   36 NGZF=   36
   support grid    NGXF=    36 NGYF=   36 NGZF=   36
   ions per type =               4
 NGX,Y,Z   is equivalent  to a cutoff of   8.24,  8.24,  8.24 a.u.
 NGXF,Y,Z  is equivalent  to a cutoff of  16.48, 16.48, 16.48 a.u.


 I would recommend the setting:
   dimension x,y,z NGX =    18 NGY =   18 NGZ =   18
 SYSTEM =  unknown system                          
 POSCAR =  Pd                                      

 Startparameter for this run:
   NWRITE =      2    write-flag & timer
   PREC   = normal    normal or accurate (medium, high low for compatibility)
   ISTART =      0    job   : 0-new  1-cont  2-samecut
   ICHARG =      2    charge: 1-file 2-atom 10-const
   ISPIN  =      1    spin polarized calculation?
   LNONCOLLINEAR =      F non collinear calculations
   LSORBIT =      F    spin-orbit coupling
   INIWAV =      1    electr: 0-lowe 1-rand  2-diag
   LASPH  =      F    aspherical Exc in radial PAW
   METAGGA=      F    non-selfconsistent MetaGGA calc.

 Electronic Relaxation 1
   ENCUT  =  400.0 eV  29.40 Ry    5.42 a.u.   5.92  5.92  5.92*2*pi/ulx,y,z
   ENINI  =  400.0     initial cutoff
   ENAUG  =  416.2 eV  augmentation charge cutoff
   NELM   =     60;   NELMIN=  2; NELMDL= -5     # of ELM steps 
   EDIFF  = 0.1E-03   stopping-criterion for ELM
   LREAL  =      F    real-space projection
   NLSPLINE    = F    spline interpolate recip. space projectors
   LCOMPAT=      F    compatible to vasp.4.4
   GGA_COMPAT  = T    GGA compatible to vasp.4.4-vasp.4.6
   LMAXPAW     = -100 max onsite density
   LMAXMIX     =    2 max onsite mixed and CHGCAR
   VOSKOWN=      0    Vosko Wilk Nusair interpolation
   ROPT   =    0.00000
 Ionic relaxation
   EDIFFG = 0.1E-02   stopping-criterion for IOM
   NSW    =      0    number of steps for IOM
   NBLOCK =      1;   KBLOCK =      1    inner block; outer block 
   IBRION =     -1    ionic relax: 0-MD 1-quasi-New 2-CG
   NFREE  =      0    steps in history (QN), initial steepest desc. (CG)
   ISIF   =      2    stress and relaxation
   IWAVPR =     10    prediction:  0-non 1-charg 2-wave 3-comb
   ISYM   =      2    0-nonsym 1-usesym 2-fastsym
   LCORR  =      T    Harris-Foulkes like correction to forces

   POTIM  = 0.5000    time-step for ionic-motion
   TEIN   =    0.0    initial temperature
   TEBEG  =    0.0;   TEEND  =   0.0 temperature during run
   SMASS  =  -3.00    Nose mass-parameter (am)
   estimated Nose-frequenzy (Omega)   =  0.10E-29 period in steps =****** mass=  -0.301E-27a.u.
   SCALEE = 1.0000    scale energy and forces
   NPACO  =    256;   APACO  = 16.0  distance and # of slots for P.C.
   PSTRESS=    0.0 pullay stress

  Mass of Ions in am
   POMASS = 106.42
  Ionic Valenz
   ZVAL   =  10.00
  Atomic Wigner-Seitz radii
   RWIGS  =  -1.00
  virtual crystal weights 
   VCA    =   1.00
   NELECT =      40.0000    total number of electrons
   NUPDOWN=      -1.0000    fix difference up-down

 DOS related values:
   EMIN   =  10.00;   EMAX   =-10.00  energy-range for DOS
   EFERMI =   0.00
   ISMEAR =     1;   SIGMA  =   0.10  broadening in eV -4-tet -1-fermi 0-gaus

 Electronic relaxation 2 (details)
   IALGO  =     38    algorithm
   LDIAG  =      T    sub-space diagonalisation (order eigenvalues)
   LSUBROT=      F    optimize rotation matrix (better conditioning)
   TURBO    =      0    0=normal 1=particle mesh
   IRESTART =      0    0=no restart 2=restart with 2 vectors
   NREBOOT  =      0    no. of reboots
   NMIN     =      0    reboot dimension
   EREF     =   0.00    reference energy to select bands
   IMIX   =      4    mixing-type and parameters
     AMIX     =   0.40;   BMIX     =  1.00
     AMIX_MAG =   1.60;   BMIX_MAG =  1.00
     AMIN     =   0.10
     WC   =   100.;   INIMIX=   1;  MIXPRE=   1;  MAXMIX= -45

 Intra band minimization:
   WEIMIN = 0.0000     energy-eigenvalue tresh-hold
   EBREAK =  0.10E-05  absolut break condition
   DEPER  =   0.30     relativ break condition  

   TIME   =   0.40     timestep for ELM

  volume/ion in A,a.u.               =      11.96        80.74
  Fermi-wavevector in a.u.,A,eV,Ry     =   1.542085  2.914119 32.355030  2.378028
  Thomas-Fermi vector in A             =   2.647940
 
 Write flags
   LWAVE  =      F    write WAVECAR
   LCHARG =      F    write CHGCAR
   LVTOT  =      F    write LOCPOT, total local potential
   LVHAR  =      F    write LOCPOT, Hartree potential only
   LELF   =      F    write electronic localiz. function (ELF)
   LORBIT =      0    0 simple, 1 ext, 2 COOP (PROOUT)


 Dipole corrections
   LMONO  =      F    monopole corrections only (constant potential shift)
   LDIPOL =      F    correct potential (dipole corrections)
   IDIPOL =      0    1-x, 2-y, 3-z, 4-all directions 
   EPSILON=  1.0000000 bulk dielectric constant

 Exchange correlation treatment:
   GGA     =    --    GGA type
   LEXCH   =     8    internal setting for exchange type
   VOSKOWN=      0    Vosko Wilk Nusair interpolation
   LHFCALC =     F    Hartree Fock is set to
   LHFONE  =     F    Hartree Fock one center treatment
   AEXX    =    0.0000 exact exchange contribution

 Linear response parameters
   LEPSILON=     F    determine dielectric tensor
   LRPA    =     F    only Hartree local field effects (RPA)
   LNABLA  =     F    use nabla operator in PAW spheres
   LVEL    =     F    velocity operator in full k-point grid
   LINTERFAST=   F  fast interpolation
   KINTER  =     0    interpolate to denser k-point grid
   CSHIFT  =0.1000    complex shift for real part using Kramers Kronig
   OMEGAMAX=  -1.0    maximum frequency
   DEG_THRESHOLD= 0.2000000E-02 threshold for treating states as degnerate
   RTIME   =    0.100 relaxation time in fs

 Orbital magnetization related:
   ORBITALMAG=     F  switch on orbital magnetization
   LCHIMAG   =     F  perturbation theory with respect to B field
   DQ        =  0.001000  dq finite difference perturbation B field



--------------------------------------------------------------------------------------------------------


 Static calculation
 charge density and potential will be updated during run
 non-spin polarized calculation
 Variant of blocked Davidson
 Davidson routine will perform the subspace rotation
 perform sub-space diagonalisation
    after iterative eigenvector-optimisation
 modified Broyden-mixing scheme, WC =      100.0
 initial mixing is a Kerker type mixing with AMIX =  0.4000 and BMIX =      1.0000
 Hartree-type preconditioning will be used
 using additional bands            4
 reciprocal scheme for non local part
 use partial core corrections
 calculate Harris-corrections to forces 
   (improved forces if not selfconsistent)
 use gradient corrections 
 use of overlap-Matrix (Vanderbilt PP)
 Methfessel and Paxton  Order N= 1 SIGMA  =   0.10


--------------------------------------------------------------------------------------------------------


  energy-cutoff  :      400.00
  volume of cell :       47.86
      direct lattice vectors                 reciprocal lattice vectors
     3.630666667  0.000000000  0.000000000     0.275431509  0.000000000  0.000000000
     0.000000000  3.630666667  0.000000000     0.000000000  0.275431509  0.000000000
     0.000000000  0.000000000  3.630666667     0.000000000  0.000000000  0.275431509

  length of vectors
     3.630666667  3.630666667  3.630666667     0.275431509  0.275431509  0.275431509


 
 k-points in units of 2pi/SCALE and weight: KPOINTS created by Atomic Simulation Env
   0.01721447  0.01721447  0.01721447       0.016
   0.05164341  0.01721447  0.01721447       0.047
   0.08607235  0.01721447  0.01721447       0.047
   0.12050129  0.01721447  0.01721447       0.047
   0.05164341  0.05164341  0.01721447       0.047
   0.08607235  0.05164341  0.01721447       0.094
   0.12050129  0.05164341  0.01721447       0.094
   0.08607235  0.08607235  0.01721447       0.047
   0.12050129  0.08607235  0.01721447       0.094
   0.12050129  0.12050129  0.01721447       0.047
   0.05164341  0.05164341  0.05164341       0.016
   0.08607235  0.05164341  0.05164341       0.047
   0.12050129  0.05164341  0.05164341       0.047
   0.08607235  0.08607235  0.05164341       0.047
   0.12050129  0.08607235  0.05164341       0.094
   0.12050129  0.12050129  0.05164341       0.047
   0.08607235  0.08607235  0.08607235       0.016
   0.12050129  0.08607235  0.08607235       0.047
   0.12050129  0.12050129  0.08607235       0.047
   0.12050129  0.12050129  0.12050129       0.016
 
 k-points in reciprocal lattice and weights: KPOINTS created by Atomic Simulation Env
   0.06250000  0.06250000  0.06250000       0.016
   0.18750000  0.06250000  0.06250000       0.047
   0.31250000  0.06250000  0.06250000       0.047
   0.43750000  0.06250000  0.06250000       0.047
   0.18750000  0.18750000  0.06250000       0.047
   0.31250000  0.18750000  0.06250000       0.094
   0.43750000  0.18750000  0.06250000       0.094
   0.31250000  0.31250000  0.06250000       0.047
   0.43750000  0.31250000  0.06250000       0.094
   0.43750000  0.43750000  0.06250000       0.047
   0.18750000  0.18750000  0.18750000       0.016
   0.31250000  0.18750000  0.18750000       0.047
   0.43750000  0.18750000  0.18750000       0.047
   0.31250000  0.31250000  0.18750000       0.047
   0.43750000  0.31250000  0.18750000       0.094
   0.43750000  0.43750000  0.18750000       0.047
   0.31250000  0.31250000  0.31250000       0.016
   0.43750000  0.31250000  0.31250000       0.047
   0.43750000  0.43750000  0.31250000       0.047
   0.43750000  0.43750000  0.43750000       0.016
 
 position of ions in fractional coordinates (direct lattice) 
   0.00000000  0.00000000  0.00000000
   0.00000000  0.50000000  0.50000000
   0.50000000  0.00000000  0.50000000
   0.50000000  0.50000000  0.00000000
 
 position of ions in cartesian coordinates  (Angst):
   0.00000000  0.00000000  0.00000000
   0.00000000  1.81533333  1.81533333
   1.81533333  0.00000000  1.81533333
   1.81533333  1.81533333  0.00000000
 


--------------------------------------------------------------------------------------------------------


 k-point  1 :   0.0625 0.0625 0.0625  plane waves:     871
 k-point  2 :   0.1875 0.0625 0.0625  plane waves:     867
 k-point  3 :   0.3125 0.0625 0.0625  plane waves:     859
 k-point  4 :   0.4375 0.0625 0.0625  plane waves:     858
 k-point  5 :   0.1875 0.1875 0.0625  plane waves:     865
 k-point  6 :   0.3125 0.1875 0.0625  plane waves:     867
 k-point  7 :   0.4375 0.1875 0.0625  plane waves:     864
 k-point  8 :   0.3125 0.3125 0.0625  plane waves:     866
 k-point  9 :   0.4375 0.3125 0.0625  plane waves:     872
 k-point 10 :   0.4375 0.4375 0.0625  plane waves:     870
 k-point 11 :   0.1875 0.1875 0.1875  plane waves:     865
 k-point 12 :   0.3125 0.1875 0.1875  plane waves:     872
 k-point 13 :   0.4375 0.1875 0.1875  plane waves:     875
 k-point 14 :   0.3125 0.3125 0.1875  plane waves:     871
 k-point 15 :   0.4375 0.3125 0.1875  plane waves:     870
 k-point 16 :   0.4375 0.4375 0.1875  plane waves:     872
 k-point 17 :   0.3125 0.3125 0.3125  plane waves:     874
 k-point 18 :   0.4375 0.3125 0.3125  plane waves:     877
 k-point 19 :   0.4375 0.4375 0.3125  plane waves:     882
 k-point 20 :   0.4375 0.4375 0.4375  plane waves:     882

 maximum and minimum number of plane-waves per node :       882      858

 maximum number of plane-waves:       882
 maximum index in each direction: 
   IXMAX=    5   IYMAX=    5   IZMAX=    5
   IXMIN=   -6   IYMIN=   -6   IZMIN=   -6

 WARNING: aliasing errors must be expected set NGX to  24 to avoid them
 WARNING: aliasing errors must be expected set NGY to  24 to avoid them
 WARNING: aliasing errors must be expected set NGZ to  24 to avoid them
 aliasing errors are usually negligible using standard VASP settings
 and one can safely disregard these warnings

 serial   3D FFT for wavefunctions
 parallel 3D FFT for charge:
    minimum data exchange during FFTs selected (reduces bandwidth)


 total amount of memory used by VASP on root node    33463. kBytes
========================================================================

   base      :      30000. kBytes
   nonl-proj :       2614. kBytes
   fftplans  :        113. kBytes
   grid      :        367. kBytes
   one-center:         62. kBytes
   wavefun   :        307. kBytes
 
     INWAV:  cpu time    0.0000: real time    0.0001
 Broyden mixing: mesh for mixing (old mesh)
   NGX = 11   NGY = 11   NGZ = 11
  (NGX  = 36   NGY  = 36   NGZ  = 36)
  gives a total of   1331 points

 initial charge density was supplied:
 charge density of overlapping atoms calculated
 number of electron      40.0000000 magnetization 
 keeping initial charge density in first step


--------------------------------------------------------------------------------------------------------


 Maximum index for augmentation-charges          385 (set IRDMAX)


--------------------------------------------------------------------------------------------------------


 First call to EWALD:  gamma=   0.488
 Maximum number of real-space cells 3x 3x 3
 Maximum number of reciprocal cells 3x 3x 3

 FEWALD executed in parallel
    FEWALD:  cpu time    0.0018: real time    0.0018


----------------------------------------- Iteration    1(   1)  ---------------------------------------


    POTLOK:  cpu time    0.0042: real time    0.0049
    SETDIJ:  cpu time    0.0040: real time    0.0047
     EDDAV:  cpu time    0.1227: real time    0.1600
       DOS:  cpu time    0.0010: real time    0.0014
    --------------------------------------------
      LOOP:  cpu time    0.1346: real time    0.1884

 eigenvalue-minimisations  :   960
 total energy-change (2. order) : 0.1446862E+03  (-0.1900054E+04)
 number of electron      40.0000000 magnetization 
 augmentation part       40.0000000 magnetization 

 Free energy of the ion-electron system (eV)
  ---------------------------------------------------
  alpha Z        PSCENC =       217.89305496
  Ewald energy   TEWEN  =     -3636.85487094
  -Hartree energ DENC   =      -402.92023071
  -exchange      EXHF   =         0.00000000
  -V(xc)+E(xc)   XCENC  =      -113.28811418
  PAW double counting   =      3226.95325816    -2978.06409795
  entropy T*S    EENTRO =         0.00015667
  eigenvalues    EBANDS =       591.99151125
  atomic energy  EATOM  =      3238.97557032
  Solvation  Ediel_sol  =         0.00000000
  ---------------------------------------------------
  free energy    TOTEN  =       144.68623760 eV

  energy without entropy =      144.68608092  energy(sigma->0) =      144.68618537


--------------------------------------------------------------------------------------------------------




----------------------------------------- Iteration    1(   2)  ---------------------------------------


     EDDAV:  cpu time    0.1782: real time    0.1782
       DOS:  cpu time    0.0004: real time    0.0004
    --------------------------------------------
      LOOP:  cpu time    0.1799: real time    0.1814

 eigenvalue-minimisations  :  1344
 total energy-change (2. order) :-0.1632892E+03  (-0.1628793E+03)
 number of electron      40.0000000 magnetization 
 augmentation part       40.0000000 magnetization 

 Free energy of the ion-electron system (eV)
  ---------------------------------------------------
  alpha Z        PSCENC =       217.89305496
  Ewald energy   TEWEN  =     -3636.85487094
  -Hartree energ DENC   =      -402.92023071
  -exchange      EXHF   =         0.00000000
  -V(xc)+E(xc)   XCENC  =      -113.28811418
  PAW double counting   =      3226.95325816    -2978.06409795
  entropy T*S    EENTRO =        -0.00230441
  eigenvalues    EBANDS =       428.70475147
  atomic energy  EATOM  =      3238.97557032
  Solvation  Ediel_sol  =         0.00000000
  ---------------------------------------------------
  free energy    TOTEN  =       -18.60298327 eV

  energy without entropy =      -18.60067886  energy(sigma->0) =      -18.60221513


--------------------------------------------------------------------------------------------------------




----------------------------------------- Iteration    1(   3)  ---------------------------------------


     EDDAV:  cpu time    0.1363: real time    0.1376
       DOS:  cpu time    0.0004: real time    0.0004
    --------------------------------------------
      LOOP:  cpu time    0.1376: real time    0.1405

 eigenvalue-minimisations  :   960
 total energy-change (2. order) :-0.8494953E+00  (-0.8471415E+00)
 number of electron      40.0000000 magnetization 
 augmentation part       40.0000000 magnetization 

 Free energy of the ion-electron system (eV)
  ---------------------------------------------------
  alpha Z        PSCENC =       217.89305496
  Ewald energy   TEWEN  =     -3636.85487094
  -Hartree energ DENC   =      -402.92023071
  -exchange      EXHF   =         0.00000000
  -V(xc)+E(xc)   XCENC  =      -113.28811418
  PAW double counting   =      3226.95325816    -2978.06409795
  entropy T*S    EENTRO =        -0.00101967
  eigenvalues    EBANDS =       427.85397145
  atomic energy  EATOM  =      3238.97557032
  Solvation  Ediel_sol  =         0.00000000
  ---------------------------------------------------
  free energy    TOTEN  =       -19.45247855 eV

  energy without entropy =      -19.45145888  energy(sigma->0) =      -19.45213866


--------------------------------------------------------------------------------------------------------




----------------------------------------- Iteration    1(   4)  ---------------------------------------


     EDDAV:  cpu time    0.1455: real time    0.1455
       DOS:  cpu time    0.0005: real time    0.0005
    --------------------------------------------
      LOOP:  cpu time    0.1468: real time    0.1482

 eigenvalue-minimisations  :  1152
 total energy-change (2. order) :-0.4039117E-02  (-0.4038331E-02)
 number of electron      40.0000000 magnetization 
 augmentation part       40.0000000 magnetization 

 Free energy of the ion-electron system (eV)
  ---------------------------------------------------
  alpha Z        PSCENC =       217.89305496
  Ewald energy   TEWEN  =     -3636.85487094
  -Hartree energ DENC   =      -402.92023071
  -exchange      EXHF   =         0.00000000
  -V(xc)+E(xc)   XCENC  =      -113.28811418
  PAW double counting   =      3226.95325816    -2978.06409795
  entropy T*S    EENTRO =        -0.00103396
  eigenvalues    EBANDS =       427.84994663
  atomic energy  EATOM  =      3238.97557032
  Solvation  Ediel_sol  =         0.00000000
  ---------------------------------------------------
  free energy    TOTEN  =       -19.45651766 eV

  energy without entropy =      -19.45548370  energy(sigma->0) =      -19.45617301


--------------------------------------------------------------------------------------------------------




----------------------------------------- Iteration    1(   5)  ---------------------------------------


     EDDAV:  cpu time    0.1078: real time    0.1080
       DOS:  cpu time    0.0004: real time    0.0004
    CHARGE:  cpu time    0.0055: real time    0.0060
    MIXING:  cpu time    0.0004: real time    0.0005
    --------------------------------------------
      LOOP:  cpu time    0.1152: real time    0.1177

 eigenvalue-minimisations  :   960
 total energy-change (2. order) :-0.4020298E-04  (-0.4020298E-04)
 number of electron      40.0000105 magnetization 
 augmentation part       15.9471187 magnetization 

 Broyden mixing:
  rms(total) = 0.28826E+01    rms(broyden)= 0.28826E+01
  rms(prec ) = 0.33070E+01
  weight for this iteration     100.00

 Free energy of the ion-electron system (eV)
  ---------------------------------------------------
  alpha Z        PSCENC =       217.89305496
  Ewald energy   TEWEN  =     -3636.85487094
  -Hartree energ DENC   =      -402.92023071
  -exchange      EXHF   =         0.00000000
  -V(xc)+E(xc)   XCENC  =      -113.28811418
  PAW double counting   =      3226.95325816    -2978.06409795
  entropy T*S    EENTRO =        -0.00103449
  eigenvalues    EBANDS =       427.84990695
  atomic energy  EATOM  =      3238.97557032
  Solvation  Ediel_sol  =         0.00000000
  ---------------------------------------------------
  free energy    TOTEN  =       -19.45655787 eV

  energy without entropy =      -19.45552338  energy(sigma->0) =      -19.45621304


--------------------------------------------------------------------------------------------------------




----------------------------------------- Iteration    1(   6)  ---------------------------------------


    POTLOK:  cpu time    0.0022: real time    0.0022
    SETDIJ:  cpu time    0.0022: real time    0.0022
     EDDAV:  cpu time    0.1072: real time    0.1077
       DOS:  cpu time    0.0004: real time    0.0005
    CHARGE:  cpu time    0.0046: real time    0.0047
    MIXING:  cpu time    0.0006: real time    0.0006
    --------------------------------------------
      LOOP:  cpu time    0.1183: real time    0.1202

 eigenvalue-minimisations  :   960
 total energy-change (2. order) : 0.1035578E+01  (-0.3135752E+00)
 number of electron      40.0000106 magnetization 
 augmentation part       16.4961314 magnetization 

 Broyden mixing:
  rms(total) = 0.14962E+01    rms(broyden)= 0.14962E+01
  rms(prec ) = 0.15534E+01
  weight for this iteration     100.00

 eigenvalues of (default mixing * dielectric matrix)
  average eigenvalue GAMMA=   2.0035
  2.0035

 Free energy of the ion-electron system (eV)
  ---------------------------------------------------
  alpha Z        PSCENC =       217.89305496
  Ewald energy   TEWEN  =     -3636.85487094
  -Hartree energ DENC   =      -373.80787307
  -exchange      EXHF   =         0.00000000
  -V(xc)+E(xc)   XCENC  =      -114.02488696
  PAW double counting   =      3755.72481362    -3515.68136592
  entropy T*S    EENTRO =         0.00080106
  eigenvalues    EBANDS =       409.35377699
  atomic energy  EATOM  =      3238.97557032
  Solvation  Ediel_sol  =         0.00000000
  ---------------------------------------------------
  free energy    TOTEN  =       -18.42097993 eV

  energy without entropy =      -18.42178099  energy(sigma->0) =      -18.42124695


--------------------------------------------------------------------------------------------------------




----------------------------------------- Iteration    1(   7)  ---------------------------------------


    POTLOK:  cpu time    0.0020: real time    0.0020
    SETDIJ:  cpu time    0.0021: real time    0.0021
     EDDAV:  cpu time    0.1156: real time    0.1157
       DOS:  cpu time    0.0005: real time    0.0005
    CHARGE:  cpu time    0.0049: real time    0.0049
    MIXING:  cpu time    0.0002: real time    0.0002
    --------------------------------------------
      LOOP:  cpu time    0.1264: real time    0.1281

 eigenvalue-minimisations  :  1008
 total energy-change (2. order) : 0.1532908E+00  (-0.3049645E-01)
 number of electron      40.0000107 magnetization 
 augmentation part       16.6624611 magnetization 

 Broyden mixing:
  rms(total) = 0.43664E+00    rms(broyden)= 0.43664E+00
  rms(prec ) = 0.43880E+00
  weight for this iteration     100.00

 eigenvalues of (default mixing * dielectric matrix)
  average eigenvalue GAMMA=   1.8981
  1.2026  2.5936

 Free energy of the ion-electron system (eV)
  ---------------------------------------------------
  alpha Z        PSCENC =       217.89305496
  Ewald energy   TEWEN  =     -3636.85487094
  -Hartree energ DENC   =      -361.40421438
  -exchange      EXHF   =         0.00000000
  -V(xc)+E(xc)   XCENC  =      -114.31714275
  PAW double counting   =      4320.64356120    -4087.80705455
  entropy T*S    EENTRO =         0.00190890
  eigenvalues    EBANDS =       404.60149813
  atomic energy  EATOM  =      3238.97557032
  Solvation  Ediel_sol  =         0.00000000
  ---------------------------------------------------
  free energy    TOTEN  =       -18.26768911 eV

  energy without entropy =      -18.26959800  energy(sigma->0) =      -18.26832541


--------------------------------------------------------------------------------------------------------




----------------------------------------- Iteration    1(   8)  ---------------------------------------


    POTLOK:  cpu time    0.0020: real time    0.0020
    SETDIJ:  cpu time    0.0020: real time    0.0020
     EDDAV:  cpu time    0.1080: real time    0.1083
       DOS:  cpu time    0.0005: real time    0.0005
    CHARGE:  cpu time    0.0048: real time    0.0052
    MIXING:  cpu time    0.0002: real time    0.0002
    --------------------------------------------
      LOOP:  cpu time    0.1187: real time    0.1211

 eigenvalue-minimisations  :   960
 total energy-change (2. order) : 0.1789453E-01  (-0.2391081E-02)
 number of electron      40.0000107 magnetization 
 augmentation part       16.6269728 magnetization 

 Broyden mixing:
  rms(total) = 0.31068E-01    rms(broyden)= 0.31067E-01
  rms(prec ) = 0.31928E-01
  weight for this iteration     100.00

 eigenvalues of (default mixing * dielectric matrix)
  average eigenvalue GAMMA=   1.5686
  2.4914  1.0103  1.2041

 Free energy of the ion-electron system (eV)
  ---------------------------------------------------
  alpha Z        PSCENC =       217.89305496
  Ewald energy   TEWEN  =     -3636.85487094
  -Hartree energ DENC   =      -360.57466449
  -exchange      EXHF   =         0.00000000
  -V(xc)+E(xc)   XCENC  =      -114.33169996
  PAW double counting   =      4580.16806027    -4350.19495160
  entropy T*S    EENTRO =         0.00194288
  eigenvalues    EBANDS =       406.66776399
  atomic energy  EATOM  =      3238.97557032
  Solvation  Ediel_sol  =         0.00000000
  ---------------------------------------------------
  free energy    TOTEN  =       -18.24979458 eV

  energy without entropy =      -18.25173745  energy(sigma->0) =      -18.25044220


--------------------------------------------------------------------------------------------------------




----------------------------------------- Iteration    1(   9)  ---------------------------------------


    POTLOK:  cpu time    0.0020: real time    0.0020
    SETDIJ:  cpu time    0.0020: real time    0.0020
     EDDAV:  cpu time    0.0640: real time    0.0646
       DOS:  cpu time    0.0004: real time    0.0004
    --------------------------------------------
      LOOP:  cpu time    0.0695: real time    0.0716

 eigenvalue-minimisations  :   552
 total energy-change (2. order) : 0.3555174E-04  (-0.5658080E-05)
 number of electron      40.0000107 magnetization 
 augmentation part       16.6269728 magnetization 

 Free energy of the ion-electron system (eV)
  ---------------------------------------------------
  alpha Z        PSCENC =       217.89305496
  Ewald energy   TEWEN  =     -3636.85487094
  -Hartree energ DENC   =      -360.81080146
  -exchange      EXHF   =         0.00000000
  -V(xc)+E(xc)   XCENC  =      -114.32591372
  PAW double counting   =      4564.45824807    -4334.19621774
  entropy T*S    EENTRO =         0.00194337
  eigenvalues    EBANDS =       406.60922811
  atomic energy  EATOM  =      3238.97557032
  Solvation  Ediel_sol  =         0.00000000
  ---------------------------------------------------
  free energy    TOTEN  =       -18.24975903 eV

  energy without entropy =      -18.25170239  energy(sigma->0) =      -18.25040681


--------------------------------------------------------------------------------------------------------




 average (electrostatic) potential at core
  the test charge radii are     1.1199
  (the norm of the test charge is              1.0000)
       1 -67.1637       2 -67.1637       3 -67.1637       4 -67.1637
 
 
 
 E-fermi :  13.7916     XC(G=0): -14.5344     alpha+bet :-20.5812


 k-point     1 :       0.0625    0.0625    0.0625
  band No.  band energies     occupation 
      1       5.0603      2.00000
      2       6.4142      2.00000
      3       6.4142      2.00000
      4       6.4142      2.00000
      5       6.7966      2.00000
      6       6.7966      2.00000
      7       6.7966      2.00000
      8       9.7440      2.00000
      9       9.8859      2.00000
     10       9.8859      2.00000
     11      12.0461      2.00000
     12      12.0461      2.00000
     13      13.5992      2.02024
     14      13.5992      2.02024
     15      13.5992      2.02024
     16      13.6795      2.06715
     17      13.6795      2.06715
     18      13.6795      2.06715
     19      14.1565     -0.00000
     20      14.1565     -0.00000
     21      14.1565     -0.00000
     22      17.5253      0.00000
     23      17.5253      0.00000
     24      17.5253      0.00000

 k-point     2 :       0.1875    0.0625    0.0625
  band No.  band energies     occupation 
      1       5.5003      2.00000
      2       6.6671      2.00000
      3       6.7046      2.00000
      4       6.7046      2.00000
      5       6.9840      2.00000
      6       7.1158      2.00000
      7       7.1158      2.00000
      8       9.4863      2.00000
      9      10.0923      2.00000
     10      10.1007      2.00000
     11      11.7563      2.00000
     12      12.1762      2.00000
     13      12.3961      2.00000
     14      12.3961      2.00000
     15      13.1150      2.00000
     16      13.2186      2.00000
     17      13.2186      2.00000
     18      13.2729      2.00000
     19      13.8811     -0.02083
     20      14.1242     -0.00003
     21      14.1242     -0.00003
     22      16.0185     -0.00000
     23      19.0367      0.00000
     24      19.0367      0.00000

 k-point     3 :       0.3125    0.0625    0.0625
  band No.  band energies     occupation 
      1       6.2887      2.00000
      2       7.0838      2.00000
      3       7.2128      2.00000
      4       7.2128      2.00000
      5       7.3453      2.00000
      6       7.7187      2.00000
      7       7.7187      2.00000
      8       9.0020      2.00000
      9      10.4763      2.00000
     10      10.5213      2.00000
     11      10.9506      2.00000
     12      10.9506      2.00000
     13      11.3786      2.00000
     14      12.1587      2.00000
     15      12.4220      2.00000
     16      12.5530      2.00000
     17      12.5530      2.00000
     18      12.6306      2.00000
     19      13.5199      2.00083
     20      14.1121     -0.00006
     21      14.1121     -0.00006
     22      14.1679     -0.00000
     23      20.8973      0.00000
     24      20.8973      0.00000

 k-point     4 :       0.4375    0.0625    0.0625
  band No.  band energies     occupation 
      1       7.1274      2.00000
      2       7.4068      2.00000
      3       7.7008      2.00000
      4       7.7008      2.00000
      5       7.8429      2.00000
      6       8.4193      2.00000
      7       8.5505      2.00000
      8       8.5505      2.00000
      9       9.6468      2.00000
     10       9.6468      2.00000
     11      10.6426      2.00000
     12      11.1233      2.00000
     13      11.1248      2.00000
     14      11.6436      2.00000
     15      11.8576      2.00000
     16      11.9683      2.00000
     17      11.9683      2.00000
     18      12.6567      2.00000
     19      12.7549      2.00000
     20      13.1351      2.00000
     21      14.1087     -0.00007
     22      14.1087     -0.00007
     23      22.7132      0.00000
     24      22.7132      0.00000

 k-point     5 :       0.1875    0.1875    0.0625
  band No.  band energies     occupation 
      1       5.8989      2.00000
      2       6.8819      2.00000
      3       6.9540      2.00000
      4       6.9540      2.00000
      5       7.2966      2.00000
      6       7.2966      2.00000
      7       7.4919      2.00000
      8       9.4013      2.00000
      9      10.1730      2.00000
     10      10.2115      2.00000
     11      11.7077      2.00000
     12      11.8029      2.00000
     13      11.8029      2.00000
     14      11.8086      2.00000
     15      12.2000      2.00000
     16      12.8105      2.00000
     17      13.0278      2.00000
     18      13.0278      2.00000
     19      13.8306      0.39238
     20      13.8306      0.39238
     21      13.8908     -0.04851
     22      17.4291      0.00000
     23      17.4291      0.00000
     24      20.1719      0.00000

 k-point     6 :       0.3125    0.1875    0.0625
  band No.  band energies     occupation 
      1       6.6104      2.00000
      2       7.2922      2.00000
      3       7.3480      2.00000
      4       7.4677      2.00000
      5       7.6612      2.00000
      6       7.8699      2.00000
      7       8.0766      2.00000
      8       9.0691      2.00000
      9      10.3329      2.00000
     10      10.4774      2.00000
     11      10.5131      2.00000
     12      10.7509      2.00000
     13      10.9870      2.00000
     14      11.5211      2.00000
     15      12.2867      2.00000
     16      12.4405      2.00000
     17      12.5250      2.00000
     18      12.5674      2.00000
     19      13.3985      2.00000
     20      13.7116      1.98037
     21      13.7258      1.88878
     22      15.5308     -0.00000
     23      19.0485      0.00000
     24      21.7441      0.00000

 k-point     7 :       0.4375    0.1875    0.0625
  band No.  band energies     occupation 
      1       7.3811      2.00000
      2       7.6496      2.00000
      3       7.8518      2.00000
      4       7.9890      2.00000
      5       8.1374      2.00000
      6       8.5624      2.00000
      7       8.6061      2.00000
      8       8.6190      2.00000
      9       9.4412      2.00000
     10       9.6740      2.00000
     11      10.1664      2.00000
     12      10.2762      2.00000
     13      11.0383      2.00000
     14      11.7053      2.00000
     15      11.8457      2.00000
     16      11.9101      2.00000
     17      11.9555      2.00000
     18      12.7293      2.00000
     19      13.1541      2.00000
     20      13.6619      2.06943
     21      13.6624      2.06962
     22      14.0480     -0.00173
     23      20.5519      0.00000
     24      21.8448      0.00000

 k-point     8 :       0.3125    0.3125    0.0625
  band No.  band energies     occupation 
      1       7.1643      2.00000
      2       7.5596      2.00000
      3       7.8269      2.00000
      4       7.8269      2.00000
      5       8.2269      2.00000
      6       8.2269      2.00000
      7       8.5839      2.00000
      8       9.0677      2.00000
      9       9.8757      2.00000
     10       9.8757      2.00000
     11      10.2312      2.00000
     12      10.2836      2.00000
     13      10.6366      2.00000
     14      11.3906      2.00000
     15      11.8607      2.00000
     16      12.1563      2.00000
     17      12.1563      2.00000
     18      13.1217      2.00000
     19      13.1217      2.00000
     20      13.1949      2.00000
     21      13.3081      2.00000
     22      17.0235      0.00000
     23      17.0235      0.00000
     24      21.2714      0.00000

 k-point     9 :       0.4375    0.3125    0.0625
  band No.  band energies     occupation 
      1       7.7528      2.00000
      2       8.0171      2.00000
      3       8.0346      2.00000
      4       8.4363      2.00000
      5       8.5752      2.00000
      6       8.7150      2.00000
      7       8.8554      2.00000
      8       8.9270      2.00000
      9       9.2813      2.00000
     10       9.5125      2.00000
     11       9.6811      2.00000
     12       9.8739      2.00000
     13      10.9628      2.00000
     14      11.5309      2.00000
     15      11.5355      2.00000
     16      11.6833      2.00000
     17      11.7050      2.00000
     18      12.4071      2.00000
     19      12.9953      2.00000
     20      13.0539      2.00000
     21      14.1314     -0.00002
     22      15.3651     -0.00000
     23      18.4449      0.00000
     24      19.8117      0.00000

 k-point    10 :       0.4375    0.4375    0.0625
  band No.  band energies     occupation 
      1       8.0674      2.00000
      2       8.2184      2.00000
      3       8.3014      2.00000
      4       8.3014      2.00000
      5       9.0396      2.00000
      6       9.0665      2.00000
      7       9.0665      2.00000
      8       9.1482      2.00000
      9       9.3862      2.00000
     10       9.3862      2.00000
     11       9.6823      2.00000
     12       9.7659      2.00000
     13      10.8630      2.00000
     14      11.1646      2.00000
     15      11.2119      2.00000
     16      11.2119      2.00000
     17      11.7467      2.00000
     18      12.2891      2.00000
     19      12.2891      2.00000
     20      12.5334      2.00000
     21      15.3236     -0.00000
     22      16.7178      0.00000
     23      16.7178      0.00000
     24      18.1454      0.00000

 k-point    11 :       0.1875    0.1875    0.1875
  band No.  band energies     occupation 
      1       6.2099      2.00000
      2       7.0791      2.00000
      3       7.0791      2.00000
      4       7.0791      2.00000
      5       7.6961      2.00000
      6       7.6961      2.00000
      7       7.6961      2.00000
      8       9.4791      2.00000
      9      10.2074      2.00000
     10      10.2074      2.00000
     11      11.3513      2.00000
     12      11.3513      2.00000
     13      11.3513      2.00000
     14      11.9997      2.00000
     15      11.9997      2.00000
     16      12.3144      2.00000
     17      12.3144      2.00000
     18      12.3144      2.00000
     19      13.9768     -0.02504
     20      13.9768     -0.02504
     21      13.9768     -0.02504
     22      18.3154      0.00000
     23      18.3154      0.00000
     24      18.3154      0.00000

 k-point    12 :       0.3125    0.1875    0.1875
  band No.  band energies     occupation 
      1       6.7421      2.00000
      2       7.3498      2.00000
      3       7.4382      2.00000
      4       7.4382      2.00000
      5       8.1289      2.00000
      6       8.2447      2.00000
      7       8.2447      2.00000
      8       9.3929      2.00000
      9      10.2579      2.00000
     10      10.3481      2.00000
     11      10.4557      2.00000
     12      10.4557      2.00000
     13      10.6559      2.00000
     14      11.6877      2.00000
     15      11.9097      2.00000
     16      11.9097      2.00000
     17      11.9396      2.00000
     18      12.4773      2.00000
     19      13.8023      0.82067
     20      13.8023      0.82067
     21      13.8635      0.06787
     22      16.1204     -0.00000
     23      19.5504      0.00000
     24      19.5504      0.00000

 k-point    13 :       0.4375    0.1875    0.1875
  band No.  band energies     occupation 
      1       7.2805      2.00000
      2       7.4970      2.00000
      3       7.9909      2.00000
      4       7.9909      2.00000
      5       8.4680      2.00000
      6       8.4680      2.00000
      7       8.7127      2.00000
      8       9.1533      2.00000
      9       9.8564      2.00000
     10       9.8564      2.00000
     11      10.0292      2.00000
     12      10.0656      2.00000
     13      10.6455      2.00000
     14      11.1040      2.00000
     15      11.5616      2.00000
     16      11.5616      2.00000
     17      12.6770      2.00000
     18      13.0211      2.00000
     19      13.5188      2.00079
     20      13.6281      2.04286
     21      13.6281      2.04286
     22      14.1600     -0.00000
     23      20.5890      0.00000
     24      20.5890      0.00000

 k-point    14 :       0.3125    0.3125    0.1875
  band No.  band energies     occupation 
      1       6.9754      2.00000
      2       7.5527      2.00000
      3       7.5527      2.00000
      4       7.5654      2.00000
      5       8.6495      2.00000
      6       8.6579      2.00000
      7       8.6579      2.00000
      8       9.7813      2.00000
      9      10.0989      2.00000
     10      10.0989      2.00000
     11      10.2167      2.00000
     12      10.2695      2.00000
     13      10.3559      2.00000
     14      11.3395      2.00000
     15      11.3588      2.00000
     16      11.3588      2.00000
     17      12.0336      2.00000
     18      12.9672      2.00000
     19      13.6587      2.06798
     20      13.7140      1.96744
     21      13.7140      1.96744
     22      17.2137      0.00000
     23      17.2137      0.00000
     24      19.9530      0.00000

 k-point    15 :       0.4375    0.3125    0.1875
  band No.  band energies     occupation 
      1       7.2537      2.00000
      2       7.4833      2.00000
      3       7.8009      2.00000
      4       7.8278      2.00000
      5       8.7409      2.00000
      6       8.7456      2.00000
      7       9.2893      2.00000
      8       9.8312      2.00000
      9       9.8937      2.00000
     10       9.9554      2.00000
     11      10.1057      2.00000
     12      10.3125      2.00000
     13      10.4404      2.00000
     14      10.8273      2.00000
     15      11.0364      2.00000
     16      11.1114      2.00000
     17      12.5182      2.00000
     18      13.2832      2.00000
     19      13.4347      2.00001
     20      13.4478      2.00001
     21      13.8704      0.02629
     22      15.2384     -0.00000
     23      18.3804      0.00000
     24      19.4200      0.00000

 k-point    16 :       0.4375    0.4375    0.1875
  band No.  band energies     occupation 
      1       7.3434      2.00000
      2       7.5459      2.00000
      3       7.5459      2.00000
      4       7.6434      2.00000
      5       9.0574      2.00000
      6       9.2530      2.00000
      7       9.2530      2.00000
      8       9.6464      2.00000
      9      10.3214      2.00000
     10      10.3355      2.00000
     11      10.3355      2.00000
     12      10.5701      2.00000
     13      10.6396      2.00000
     14      10.6418      2.00000
     15      10.7177      2.00000
     16      10.7177      2.00000
     17      12.4697      2.00000
     18      12.9836      2.00000
     19      12.9836      2.00000
     20      13.0918      2.00000
     21      15.0419     -0.00000
     22      16.4936     -0.00000
     23      16.4936     -0.00000
     24      17.8619      0.00000

 k-point    17 :       0.3125    0.3125    0.3125
  band No.  band energies     occupation 
      1       6.8719      2.00000
      2       7.4075      2.00000
      3       7.4075      2.00000
      4       7.4075      2.00000
      5       8.9612      2.00000
      6       8.9612      2.00000
      7       8.9612      2.00000
      8      10.0710      2.00000
      9      10.0710      2.00000
     10      10.5305      2.00000
     11      10.5305      2.00000
     12      10.5305      2.00000
     13      10.7736      2.00000
     14      10.7736      2.00000
     15      10.7736      2.00000
     16      10.8357      2.00000
     17      12.7358      2.00000
     18      12.7358      2.00000
     19      13.8642      0.06311
     20      13.8642      0.06311
     21      13.8642      0.06311
     22      17.5817      0.00000
     23      17.5817      0.00000
     24      17.5817      0.00000

 k-point    18 :       0.4375    0.3125    0.3125
  band No.  band energies     occupation 
      1       6.9368      2.00000
      2       7.1454      2.00000
      3       7.3591      2.00000
      4       7.3591      2.00000
      5       9.0471      2.00000
      6       9.0471      2.00000
      7       9.4372      2.00000
      8       9.8429      2.00000
      9      10.0927      2.00000
     10      10.3357      2.00000
     11      10.4962      2.00000
     12      10.4962      2.00000
     13      10.8279      2.00000
     14      10.9954      2.00000
     15      10.9954      2.00000
     16      11.1585      2.00000
     17      13.3530      2.00000
     18      13.4822      2.00011
     19      13.6898      2.05379
     20      13.6898      2.05379
     21      13.7604      1.50089
     22      15.3189     -0.00000
     23      17.9051      0.00000
     24      17.9051      0.00000

 k-point    19 :       0.4375    0.4375    0.3125
  band No.  band energies     occupation 
      1       6.8583      2.00000
      2       7.0111      2.00000
      3       7.0111      2.00000
      4       7.0829      2.00000
      5       9.3309      2.00000
      6       9.4568      2.00000
      7       9.4568      2.00000
      8       9.7712      2.00000
      9       9.9361      2.00000
     10      10.1057      2.00000
     11      10.1057      2.00000
     12      10.1530      2.00000
     13      11.6496      2.00000
     14      11.6496      2.00000
     15      11.6671      2.00000
     16      12.0135      2.00000
     17      13.1576      2.00000
     18      13.5798      2.01069
     19      13.5798      2.01069
     20      13.5866      2.01356
     21      14.4748     -0.00000
     22      16.0004     -0.00000
     23      16.0004     -0.00000
     24      16.9596      0.00000

 k-point    20 :       0.4375    0.4375    0.4375
  band No.  band energies     occupation 
      1       6.6547      2.00000
      2       6.7359      2.00000
      3       6.7359      2.00000
      4       6.7359      2.00000
      5       9.6139      2.00000
      6       9.6139      2.00000
      7       9.6139      2.00000
      8       9.7733      2.00000
      9       9.7733      2.00000
     10       9.8494      2.00000
     11       9.8494      2.00000
     12       9.8494      2.00000
     13      12.6918      2.00000
     14      12.6918      2.00000
     15      12.6918      2.00000
     16      13.6399      2.05374
     17      13.6399      2.05374
     18      13.6941      2.04482
     19      13.7956      0.93357
     20      13.7956      0.93357
     21      13.7956      0.93357
     22      15.4200     -0.00000
     23      15.4200     -0.00000
     24      15.4200     -0.00000


--------------------------------------------------------------------------------------------------------


 soft charge-density along one line, spin component           1
         0         1         2         3         4         5         6         7         8         9
 total charge-density along one line
 
 pseudopotential strength for first ion, spin component:           1
 -0.465   0.000   0.000   0.000   0.000  -0.788   0.000   0.000
  0.000  -0.465   0.000  -0.000  -0.000   0.000  -0.788   0.000
  0.000   0.000  -0.433   0.000   0.000   0.000   0.000  -0.757
  0.000  -0.000   0.000  -0.465  -0.000   0.000  -0.000   0.000
  0.000  -0.000   0.000  -0.000  -0.433   0.000  -0.000   0.000
 -0.788   0.000   0.000   0.000   0.000  -1.074   0.000   0.000
  0.000  -0.788   0.000  -0.000  -0.000   0.000  -1.074   0.000
  0.000   0.000  -0.757   0.000   0.000   0.000   0.000  -1.044
  0.000  -0.000   0.000  -0.788  -0.000   0.000  -0.000   0.000
  0.000  -0.000   0.000  -0.000  -0.757   0.000  -0.000   0.000
  0.000  -0.000  -0.000  -0.000   0.000   0.000  -0.000  -0.000
  0.000  -0.000  -0.000  -0.000   0.000   0.000  -0.000  -0.000
 -0.000  -0.000   0.000  -0.000   0.000  -0.000  -0.000   0.000
 -0.000  -0.000  -0.000   0.000  -0.000  -0.000  -0.000  -0.000
 -0.000  -0.000   0.000  -0.000  -0.000  -0.000  -0.000   0.000
 -0.000  -0.000   0.000  -0.000   0.000  -0.000  -0.000   0.000
 -0.000  -0.000  -0.000  -0.000  -0.000  -0.000  -0.000  -0.000
 -0.000  -0.000   0.000  -0.000  -0.000  -0.000  -0.000   0.000
 total augmentation occupancy for first ion, spin component:           1
  4.565  -0.000   0.000   0.000  -0.000  -3.722   0.000   0.000  -0.000   0.000  -0.000  -0.000   0.000   0.000  -0.000  -0.000
 -0.000   4.565   0.000  -0.000   0.000   0.000  -3.722  -0.000  -0.000  -0.000  -0.000  -0.000  -0.000   0.000   0.000  -0.000
  0.000   0.000   5.000  -0.000   0.000  -0.000   0.000  -3.664   0.000  -0.000   0.000   0.000  -0.000   0.000   0.000  -0.000
 -0.000  -0.000   0.000   4.565   0.000  -0.000  -0.000   0.000  -3.722   0.000  -0.000   0.000   0.000   0.000  -0.000   0.000
  0.000   0.000   0.000   0.000   5.000   0.000  -0.000   0.000   0.000  -3.664   0.000  -0.000  -0.000   0.000  -0.000   0.000
 -3.722   0.000   0.000  -0.000  -0.000   4.651   0.000   0.000  -0.000   0.000  -0.000  -0.000   0.000   0.000   0.000  -0.000
  0.000  -3.722   0.000  -0.000  -0.000   0.000   4.651  -0.000  -0.000  -0.000  -0.000   0.000   0.000   0.000  -0.000   0.000
  0.000  -0.000  -3.664  -0.000   0.000  -0.000  -0.000   4.194  -0.000   0.000   0.000   0.000   0.000   0.000  -0.000  -0.000
  0.000  -0.000   0.000  -3.722  -0.000  -0.000  -0.000  -0.000   4.651   0.000   0.000  -0.000   0.000   0.000   0.000   0.000
  0.000  -0.000   0.000   0.000  -3.664  -0.000  -0.000   0.000   0.000   4.194   0.000   0.000   0.000   0.000   0.000   0.000
 -0.000  -0.000   0.000  -0.000   0.000   0.000  -0.000   0.000   0.000   0.000   2.781  -0.477   0.000   0.000   0.000   0.000
  0.000  -0.000  -0.000   0.000  -0.000  -0.000   0.000  -0.000   0.000   0.000  -0.477   0.087   0.000   0.000   0.000   0.000
  0.000   0.000  -0.000  -0.000  -0.000  -0.000  -0.000  -0.000  -0.000   0.000  -0.000   0.000   0.386   0.000   0.000  -0.020
  0.000   0.000   0.000  -0.000   0.000   0.000   0.000   0.000  -0.000   0.000  -0.000   0.000   0.000   0.386  -0.000   0.000
 -0.000   0.000   0.000  -0.000  -0.000  -0.000  -0.000   0.000  -0.000  -0.000  -0.000   0.000   0.000  -0.000   0.386  -0.000
 -0.000   0.000   0.000   0.000   0.000  -0.000   0.000   0.000   0.000   0.000  -0.000   0.000  -0.020   0.000  -0.000   0.001
 -0.000   0.000   0.000   0.000   0.000  -0.000  -0.000  -0.000  -0.000   0.000   0.000  -0.000  -0.000  -0.020  -0.000   0.000
  0.000   0.000   0.000  -0.000  -0.000  -0.000  -0.000  -0.000  -0.000  -0.000  -0.000   0.000  -0.000  -0.000  -0.020   0.000


------------------------ aborting loop because EDIFF is reached ----------------------------------------


    CHARGE:  cpu time    0.0250: real time    0.0250
    FORLOC:  cpu time    0.0002: real time    0.0002
    FORNL :  cpu time    0.0364: real time    0.0364
    STRESS:  cpu time    0.1157: real time    0.1157
    FORCOR:  cpu time    0.0021: real time    0.0022
    FORHAR:  cpu time    0.0007: real time    0.0007
    MIXING:  cpu time    0.0002: real time    0.0002
    OFIELD:  cpu time    0.0000: real time    0.0000

  FORCE on cell =-STRESS in cart. coord.  units (eV):
  Direction    XX          YY          ZZ          XY          YZ          ZX
  --------------------------------------------------------------------------------------
  Alpha Z   217.89305   217.89305   217.89305
  Ewald   -1212.28549 -1212.28549 -1212.28549     0.00000     0.00000     0.00000
  Hartree   120.30904   120.30904   120.30904    -0.00000    -0.00000    -0.00000
  E(xc)    -214.68150  -214.68150  -214.68150     0.00000     0.00000    -0.00000
  Local     244.07226   244.07226   244.07226     0.00000     0.00000    -0.00000
  n-local    24.85184    11.03270    22.10799    11.85458     7.85358     7.68772
  augment   294.62861   294.62861   294.62861     0.00000     0.00000    -0.00000
  Kinetic   562.01016   552.30319   549.32701     4.12132    -1.28741     1.22598
  Fock        0.00000     0.00000     0.00000     0.00000     0.00000     0.00000
  -------------------------------------------------------------------------------------
  Total      23.81359    23.81359    23.81359    -0.00000    -0.00000     0.00000
  in kB     797.21664   797.21664   797.21664    -0.00000    -0.00000     0.00000
  external pressure =      797.22 kB  Pullay stress =        0.00 kB


 VOLUME and BASIS-vectors are now :
 -----------------------------------------------------------------------------
  energy-cutoff  :      400.00
  volume of cell :       47.86
      direct lattice vectors                 reciprocal lattice vectors
     3.630666667  0.000000000  0.000000000     0.275431509  0.000000000  0.000000000
     0.000000000  3.630666667  0.000000000     0.000000000  0.275431509  0.000000000
     0.000000000  0.000000000  3.630666667     0.000000000  0.000000000  0.275431509

  length of vectors
     3.630666667  3.630666667  3.630666667     0.275431509  0.275431509  0.275431509


 FORCES acting on ions
    electron-ion (+dipol)            ewald-force                    non-local-force                 convergence-correction
 -----------------------------------------------------------------------------------------------
   -.793E-14 0.533E-14 -.761E-13   -.408E-14 0.656E-14 -.107E-13   -.496E-23 -.662E-23 0.000E+00   0.269E-13 0.196E-13 -.355E-13
   -.608E-14 0.308E-12 0.224E-12   -.407E-14 -.451E-16 0.501E-14   0.132E-22 0.331E-23 -.136E-22   0.286E-13 0.991E-14 0.452E-13
   0.297E-12 -.639E-15 -.272E-12   0.477E-14 0.127E-14 0.479E-14   0.132E-22 -.910E-23 0.744E-23   -.529E-14 0.229E-13 0.637E-13
   0.298E-12 0.298E-12 0.338E-12   0.477E-14 -.533E-14 0.200E-14   0.827E-23 0.496E-23 0.620E-23   0.731E-15 0.132E-13 -.602E-13
 -----------------------------------------------------------------------------------------------
   0.581E-12 0.611E-12 0.213E-12   0.138E-14 0.245E-14 0.114E-14   0.298E-22 -.744E-23 0.000E+00   0.509E-13 0.656E-13 0.132E-13
 
 
 POSITION                                       TOTAL-FORCE (eV/Angst)
 -----------------------------------------------------------------------------------
      0.00000      0.00000      0.00000         0.000000     -0.000000      0.000000
      0.00000      1.81533      1.81533         0.000000     -0.000000     -0.000000
      1.81533      0.00000      1.81533        -0.000000      0.000000     -0.000000
      1.81533      1.81533      0.00000        -0.000000      0.000000      0.000000
 -----------------------------------------------------------------------------------
    total drift:                                0.000000      0.000000      0.000000


--------------------------------------------------------------------------------------------------------



  FREE ENERGIE OF THE ION-ELECTRON SYSTEM (eV)
  ---------------------------------------------------
  free  energy   TOTEN  =       -18.24975903 eV

  energy  without entropy=      -18.25170239  energy(sigma->0) =      -18.25040681
 


--------------------------------------------------------------------------------------------------------


    POTLOK:  cpu time    0.0048: real time    0.0049


--------------------------------------------------------------------------------------------------------


     LOOP+:  cpu time    1.3443: real time    1.6701
    4ORBIT:  cpu time    0.0000: real time    0.0000

 total amount of memory used by VASP on root node    33463. kBytes
========================================================================

   base      :      30000. kBytes
   nonl-proj :       2614. kBytes
   fftplans  :        113. kBytes
   grid      :        367. kBytes
   one-center:         62. kBytes
   wavefun   :        307. kBytes
 
  
  
 General timing and accounting informations for this job:
 ========================================================
  
                  Total CPU time used (sec):        1.873
                            User time (sec):        1.673
                          System time (sec):        0.200
                         Elapsed time (sec):        2.802
  
                   Maximum memory used (kb):       36396.
                   Average memory used (kb):           0.
  
                          Minor page faults:        10846
                          Major page faults:          130
                 Voluntary context switches:         2791
