<?xml version="1.0" encoding="ISO-8859-1"?>
<modeling>
 <generator>
  <i name="program" type="string">vasp </i>
  <i name="version" type="string">5.4.1  </i>
  <i name="subversion" type="string">05Feb16 (build Feb 08 2018 09:21:51) complex                          parallel </i>
  <i name="platform" type="string">LinuxIFC </i>
  <i name="date" type="string">2019 11 20 </i>
  <i name="time" type="string">21:32:17 </i>
 </generator>
 <incar>
  <i type="string" name="PREC">normal</i>
  <i name="ENCUT">    400.00000000</i>
  <i type="int" name="ISMEAR">     1</i>
  <i name="SIGMA">      0.10000000</i>
  <i type="logical" name="LWAVE"> F  </i>
  <i type="logical" name="LCHARG"> F  </i>
  <v type="int" name="KPOINT_BSE">    -1     0     0     0</v>
 </incar>
 <kpoints>
  <generation param="Monkhorst-Pack">
   <v type="int" name="divisions">       8        8        8 </v>
   <v name="usershift">      0.00000000       0.00000000       0.00000000 </v>
   <v name="genvec1">      0.12500000       0.00000000       0.00000000 </v>
   <v name="genvec2">      0.00000000       0.12500000       0.00000000 </v>
   <v name="genvec3">      0.00000000       0.00000000       0.12500000 </v>
   <v name="shift">      0.50000000       0.50000000       0.50000000 </v>
  </generation>
  <varray name="kpointlist" >
   <v>       0.06250000       0.06250000       0.06250000 </v>
   <v>       0.18750000       0.06250000       0.06250000 </v>
   <v>       0.31250000       0.06250000       0.06250000 </v>
   <v>       0.43750000       0.06250000       0.06250000 </v>
   <v>       0.18750000       0.18750000       0.06250000 </v>
   <v>       0.31250000       0.18750000       0.06250000 </v>
   <v>       0.43750000       0.18750000       0.06250000 </v>
   <v>       0.31250000       0.31250000       0.06250000 </v>
   <v>       0.43750000       0.31250000       0.06250000 </v>
   <v>       0.43750000       0.43750000       0.06250000 </v>
   <v>       0.18750000       0.18750000       0.18750000 </v>
   <v>       0.31250000       0.18750000       0.18750000 </v>
   <v>       0.43750000       0.18750000       0.18750000 </v>
   <v>       0.31250000       0.31250000       0.18750000 </v>
   <v>       0.43750000       0.31250000       0.18750000 </v>
   <v>       0.43750000       0.43750000       0.18750000 </v>
   <v>       0.31250000       0.31250000       0.31250000 </v>
   <v>       0.43750000       0.31250000       0.31250000 </v>
   <v>       0.43750000       0.43750000       0.31250000 </v>
   <v>       0.43750000       0.43750000       0.43750000 </v>
  </varray>
  <varray name="weights" >
   <v>       0.01562500 </v>
   <v>       0.04687500 </v>
   <v>       0.04687500 </v>
   <v>       0.04687500 </v>
   <v>       0.04687500 </v>
   <v>       0.09375000 </v>
   <v>       0.09375000 </v>
   <v>       0.04687500 </v>
   <v>       0.09375000 </v>
   <v>       0.04687500 </v>
   <v>       0.01562500 </v>
   <v>       0.04687500 </v>
   <v>       0.04687500 </v>
   <v>       0.04687500 </v>
   <v>       0.09375000 </v>
   <v>       0.04687500 </v>
   <v>       0.01562500 </v>
   <v>       0.04687500 </v>
   <v>       0.04687500 </v>
   <v>       0.01562500 </v>
  </varray>
 </kpoints>
 <parameters>
  <separator name="general" >
   <i type="string" name="SYSTEM">unknown system</i>
   <i type="logical" name="LCOMPAT"> F  </i>
  </separator>
  <separator name="electronic" >
   <i type="string" name="PREC">normal</i>
   <i name="ENMAX">    400.00000000</i>
   <i name="ENAUG">    416.23000000</i>
   <i name="EDIFF">      0.00010000</i>
   <i type="int" name="IALGO">    38</i>
   <i type="int" name="IWAVPR">    10</i>
   <i type="int" name="NBANDS">    24</i>
   <i name="NELECT">     40.00000000</i>
   <i type="int" name="TURBO">     0</i>
   <i type="int" name="IRESTART">     0</i>
   <i type="int" name="NREBOOT">     0</i>
   <i type="int" name="NMIN">     0</i>
   <i name="EREF">      0.00000000</i>
   <separator name="electronic smearing" >
    <i type="int" name="ISMEAR">     1</i>
    <i name="SIGMA">      0.10000000</i>
    <i name="KSPACING">      0.50000000</i>
    <i type="logical" name="KGAMMA"> T  </i>
   </separator>
   <separator name="electronic projectors" >
    <i type="logical" name="LREAL"> F  </i>
    <v name="ROPT">      0.00000000</v>
    <i type="int" name="LMAXPAW">  -100</i>
    <i type="int" name="LMAXMIX">     2</i>
    <i type="logical" name="NLSPLINE"> F  </i>
   </separator>
   <separator name="electronic startup" >
    <i type="int" name="ISTART">     0</i>
    <i type="int" name="ICHARG">     2</i>
    <i type="int" name="INIWAV">     1</i>
   </separator>
   <separator name="electronic spin" >
    <i type="int" name="ISPIN">     1</i>
    <i type="logical" name="LNONCOLLINEAR"> F  </i>
    <v name="MAGMOM">      1.00000000      1.00000000      1.00000000      1.00000000</v>
    <i name="NUPDOWN">     -1.00000000</i>
    <i type="logical" name="LSORBIT"> F  </i>
    <v name="SAXIS">      0.00000000      0.00000000      1.00000000</v>
    <i type="logical" name="LSPIRAL"> F  </i>
    <v name="QSPIRAL">      0.00000000      0.00000000      0.00000000</v>
    <i type="logical" name="LZEROZ"> F  </i>
   </separator>
   <separator name="electronic exchange-correlation" >
    <i type="logical" name="LASPH"> F  </i>
    <i type="logical" name="LMETAGGA"> F  </i>
   </separator>
   <separator name="electronic convergence" >
    <i type="int" name="NELM">    60</i>
    <i type="int" name="NELMDL">    -5</i>
    <i type="int" name="NELMIN">     2</i>
    <i name="ENINI">    400.00000000</i>
    <separator name="electronic convergence detail" >
     <i type="logical" name="LDIAG"> T  </i>
     <i type="logical" name="LSUBROT"> F  </i>
     <i name="WEIMIN">      0.00000000</i>
     <i name="EBREAK">      0.00000104</i>
     <i name="DEPER">      0.30000000</i>
     <i type="int" name="NRMM">     4</i>
     <i name="TIME">      0.40000000</i>
    </separator>
   </separator>
   <separator name="electronic mixer" >
    <i name="AMIX">      0.40000000</i>
    <i name="BMIX">      1.00000000</i>
    <i name="AMIN">      0.10000000</i>
    <i name="AMIX_MAG">      1.60000000</i>
    <i name="BMIX_MAG">      1.00000000</i>
    <separator name="electronic mixer details" >
     <i type="int" name="IMIX">     4</i>
     <i type="logical" name="MIXFIRST"> F  </i>
     <i type="int" name="MAXMIX">   -45</i>
     <i name="WC">    100.00000000</i>
     <i type="int" name="INIMIX">     1</i>
     <i type="int" name="MIXPRE">     1</i>
     <i type="int" name="MREMOVE">     5</i>
    </separator>
   </separator>
   <separator name="electronic dipolcorrection" >
    <i type="logical" name="LDIPOL"> F  </i>
    <i type="logical" name="LMONO"> F  </i>
    <i type="int" name="IDIPOL">     0</i>
    <i name="EPSILON">      1.00000000</i>
    <v name="DIPOL">   -100.00000000   -100.00000000   -100.00000000</v>
    <i name="EFIELD">      0.00000000</i>
   </separator>
  </separator>
  <separator name="grids" >
   <i type="int" name="NGX">    18</i>
   <i type="int" name="NGY">    18</i>
   <i type="int" name="NGZ">    18</i>
   <i type="int" name="NGXF">    36</i>
   <i type="int" name="NGYF">    36</i>
   <i type="int" name="NGZF">    36</i>
   <i type="logical" name="ADDGRID"> F  </i>
  </separator>
  <separator name="ionic" >
   <i type="int" name="NSW">     0</i>
   <i type="int" name="IBRION">    -1</i>
   <i type="int" name="ISIF">     2</i>
   <i name="PSTRESS">      0.00000000</i>
   <i name="EDIFFG">      0.00100000</i>
   <i type="int" name="NFREE">     0</i>
   <i name="POTIM">      0.50000000</i>
   <i name="SMASS">     -3.00000000</i>
   <i name="SCALEE">      1.00000000</i>
  </separator>
  <separator name="ionic md" >
   <i name="TEBEG">      0.00010000</i>
   <i name="TEEND">      0.00010000</i>
   <i type="int" name="NBLOCK">     1</i>
   <i type="int" name="KBLOCK">     1</i>
   <i type="int" name="NPACO">   256</i>
   <i name="APACO">     16.00000000</i>
  </separator>
  <separator name="symmetry" >
   <i type="int" name="ISYM">     2</i>
   <i name="SYMPREC">      0.00001000</i>
  </separator>
  <separator name="dos" >
   <i type="logical" name="LORBIT"> F  </i>
   <v name="RWIGS">     -1.00000000</v>
   <i type="int" name="NEDOS">   301</i>
   <i name="EMIN">     10.00000000</i>
   <i name="EMAX">    -10.00000000</i>
   <i name="EFERMI">      0.00000000</i>
  </separator>
  <separator name="writing" >
   <i type="int" name="NWRITE">     2</i>
   <i type="logical" name="LWAVE"> F  </i>
   <i type="logical" name="LCHARG"> F  </i>
   <i type="logical" name="LPARD"> F  </i>
   <i type="logical" name="LVTOT"> F  </i>
   <i type="logical" name="LVHAR"> F  </i>
   <i type="logical" name="LELF"> F  </i>
   <i type="logical" name="LOPTICS"> F  </i>
   <v name="STM">      0.00000000      0.00000000      0.00000000      0.00000000      0.00000000      0.00000000      0.00000000</v>
  </separator>
  <separator name="performance" >
   <i type="int" name="NPAR">    24</i>
   <i type="int" name="NSIM">     4</i>
   <i type="int" name="NBLK">    -1</i>
   <i type="logical" name="LPLANE"> T  </i>
   <i type="logical" name="LSCALAPACK"> F  </i>
   <i type="logical" name="LSCAAWARE"> F  </i>
   <i type="logical" name="LSCALU"> F  </i>
   <i type="logical" name="LASYNC"> F  </i>
   <i type="logical" name="LORBITALREAL"> F  </i>
  </separator>
  <separator name="miscellaneous" >
   <i type="int" name="IDIOT">     3</i>
   <i type="logical" name="LMUSIC"> F  </i>
   <v name="POMASS">    106.42000000</v>
   <v name="DARWINR">      0.00000000</v>
   <v name="DARWINV">      1.00000000</v>
   <i type="logical" name="LCORR"> T  </i>
  </separator>
  <i type="logical" name="GGA_COMPAT"> T  </i>
  <i type="logical" name="LBERRY"> F  </i>
  <i type="int" name="ICORELEVEL">     0</i>
  <i type="logical" name="LDAU"> F  </i>
  <i type="int" name="I_CONSTRAINED_M">     0</i>
  <separator name="electronic exchange-correlation" >
   <i type="string" name="GGA">--</i>
   <i type="int" name="VOSKOWN">     0</i>
   <i type="logical" name="LHFCALC"> F  </i>
   <i type="string" name="PRECFOCK"></i>
   <i type="logical" name="LSYMGRAD"> F  </i>
   <i type="logical" name="LHFONE"> F  </i>
   <i type="logical" name="LRHFCALC"> F  </i>
   <i type="logical" name="LTHOMAS"> F  </i>
   <i type="logical" name="LMODELHF"> F  </i>
   <i name="ENCUT4O">     -1.00000000</i>
   <i type="int" name="EXXOEP">     0</i>
   <i type="int" name="FOURORBIT">     0</i>
   <i name="AEXX">      0.00000000</i>
   <i name="HFALPHA">      0.00000000</i>
   <i name="MCALPHA">      0.00000000</i>
   <i name="ALDAX">      1.00000000</i>
   <i name="AGGAX">      1.00000000</i>
   <i name="ALDAC">      1.00000000</i>
   <i name="AGGAC">      1.00000000</i>
   <i type="int" name="NKREDX">     1</i>
   <i type="int" name="NKREDY">     1</i>
   <i type="int" name="NKREDZ">     1</i>
   <i type="logical" name="SHIFTRED"> F  </i>
   <i type="logical" name="ODDONLY"> F  </i>
   <i type="logical" name="EVENONLY"> F  </i>
   <i type="int" name="LMAXFOCK">     0</i>
   <i type="int" name="NMAXFOCKAE">     0</i>
   <i type="logical" name="LFOCKAEDFT"> F  </i>
   <i name="HFSCREEN">      0.00000000</i>
   <i name="HFSCREENC">      0.00000000</i>
   <i type="int" name="NBANDSGWLOW">     0</i>
  </separator>
  <separator name="vdW DFT" >
   <i type="logical" name="LUSE_VDW"> F  </i>
   <i name="Zab_VDW">     -0.84910000</i>
   <i name="PARAM1">      0.12340000</i>
   <i name="PARAM2">      1.00000000</i>
   <i name="PARAM3">      0.00000000</i>
  </separator>
  <separator name="model GW" >
   <i type="int" name="MODEL_GW">     0</i>
   <i name="MODEL_EPS0">      7.17877585</i>
   <i name="MODEL_ALPHA">      1.00000000</i>
  </separator>
  <separator name="linear response parameters" >
   <i type="logical" name="LEPSILON"> F  </i>
   <i type="logical" name="LRPA"> F  </i>
   <i type="logical" name="LNABLA"> F  </i>
   <i type="logical" name="LVEL"> F  </i>
   <i type="int" name="KINTER">     0</i>
   <i name="CSHIFT">      0.10000000</i>
   <i name="OMEGAMAX">     -1.00000000</i>
   <i name="DEG_THRESHOLD">      0.00200000</i>
  </separator>
  <separator name="orbital magnetization" >
   <i type="logical" name="NUCIND"> F  </i>
   <v name="MAGPOS">      0.00000000      0.00000000      0.00000000</v>
   <i type="logical" name="LNICSALL"> T  </i>
   <i type="logical" name="ORBITALMAG"> F  </i>
   <i type="logical" name="LMAGBLOCH"> F  </i>
   <i type="logical" name="LCHIMAG"> F  </i>
   <i type="logical" name="LGAUGE"> T  </i>
   <i type="int" name="MAGATOM">     0</i>
   <v name="MAGDIPOL">      0.00000000      0.00000000      0.00000000</v>
   <v name="AVECCONST">      0.00000000      0.00000000      0.00000000</v>
  </separator>
  <separator name="response functions" >
   <i type="logical" name="LADDER"> F  </i>
   <i type="logical" name="LFXC"> F  </i>
   <i type="logical" name="LHARTREE"> T  </i>
   <i type="int" name="IBSE">     0</i>
   <v type="int" name="KPOINT">    -1     0     0     0</v>
   <i type="logical" name="LTCTE"> F  </i>
   <i type="logical" name="LTETE"> F  </i>
   <i type="logical" name="LTRIPLET"> F  </i>
   <i type="logical" name="LFXCEPS"> F  </i>
   <i type="logical" name="LFXHEG"> F  </i>
   <i type="int" name="NATURALO">     0</i>
   <i type="logical" name="L2ORDER"> F  </i>
   <i type="logical" name="LUSEW"> F  </i>
   <i name="ENCUTGW">     -2.00000000</i>
   <i name="ENCUTGWSOFT">     -2.00000000</i>
   <i name="ENCUTLF">     -1.00000000</i>
   <i type="int" name="LMAXMP2">    -1</i>
   <i name="SCISSOR">      0.00000000</i>
   <i type="int" name="NOMEGA">     0</i>
   <i type="int" name="NOMEGAR">     0</i>
   <i type="int" name="NBANDSGW">    -1</i>
   <i type="int" name="NBANDSO">    -1</i>
   <i type="int" name="NBANDSV">    -1</i>
   <i type="int" name="NELM">     1</i>
   <i type="int" name="NELMHF">     1</i>
   <i type="int" name="DIM">     3</i>
   <i type="int" name="ANTIRES">     0</i>
   <i name="OMEGAMAX">    -30.00000000</i>
   <i name="OMEGAMIN">    -30.00000000</i>
   <i name="OMEGATL">   -200.00000000</i>
   <i type="int" name="OMEGAGRID">     0</i>
   <i name="CSHIFT">     -0.10000000</i>
   <i type="logical" name="SELFENERGY"> F  </i>
   <i type="logical" name="LSPECTRAL"> F  </i>
   <i type="logical" name="LSPECTRALGW"> F  </i>
   <i type="logical" name="LSINGLES"> F  </i>
   <i type="logical" name="LFERMIGW"> F  </i>
   <i type="logical" name="ODDONLYGW"> F  </i>
   <i type="logical" name="EVENONLYGW"> F  </i>
   <i type="int" name="NKREDLFX">     1</i>
   <i type="int" name="NKREDLFY">     1</i>
   <i type="int" name="NKREDLFZ">     1</i>
   <i type="int" name="MAXMEM">  1800</i>
   <i type="int" name="TELESCOPE">     0</i>
   <i type="int" name="TAUPAR">     1</i>
   <i type="int" name="OMEGAPAR">    -1</i>
   <i name="LAMBDA">      1.00000000</i>
  </separator>
  <separator name="External order field" >
   <i name="OFIELD_KAPPA">      0.00000000</i>
   <v name="OFIELD_K">      0.00000000      0.00000000      0.00000000</v>
   <i name="OFIELD_Q6_NEAR">      0.00000000</i>
   <i name="OFIELD_Q6_FAR">      0.00000000</i>
   <i name="OFIELD_A">      0.00000000</i>
  </separator>
 </parameters>
 <atominfo>
  <atoms>       4 </atoms>
  <types>       1 </types>
  <array name="atoms" >
   <dimension dim="1">ion</dimension>
   <field type="string">element</field>
   <field type="int">atomtype</field>
   <set>
    <rc><c>Pd</c><c>   1</c></rc>
    <rc><c>Pd</c><c>   1</c></rc>
    <rc><c>Pd</c><c>   1</c></rc>
    <rc><c>Pd</c><c>   1</c></rc>
   </set>
  </array>
  <array name="atomtypes" >
   <dimension dim="1">type</dimension>
   <field type="int">atomspertype</field>
   <field type="string">element</field>
   <field>mass</field>
   <field>valence</field>
   <field type="string">pseudopotential</field>
   <set>
    <rc><c>   4</c><c>Pd</c><c>    106.42000000</c><c>     10.00000000</c><c>  PAW_PBE Pd 04Jan2005                  </c></rc>
   </set>
  </array>
 </atominfo>
 <structure name="initialpos" >
  <crystal>
   <varray name="basis" >
    <v>       3.63066667       0.00000000       0.00000000 </v>
    <v>       0.00000000       3.63066667       0.00000000 </v>
    <v>       0.00000000       0.00000000       3.63066667 </v>
   </varray>
   <i name="volume">     47.85850564 </i>
   <varray name="rec_basis" >
    <v>       0.27543151       0.00000000       0.00000000 </v>
    <v>       0.00000000       0.27543151       0.00000000 </v>
    <v>       0.00000000       0.00000000       0.27543151 </v>
   </varray>
  </crystal>
  <varray name="positions" >
   <v>       0.00000000       0.00000000       0.00000000 </v>
   <v>       0.00000000       0.50000000       0.50000000 </v>
   <v>       0.50000000       0.00000000       0.50000000 </v>
   <v>       0.50000000       0.50000000       0.00000000 </v>
  </varray>
 </structure>
 <calculation>
  <scstep>
   <time name="dav">    0.12    0.16</time>
   <time name="total">    0.13    0.19</time>
   <energy>
    <i name="alphaZ">    217.89305496 </i>
    <i name="ewald">  -3636.85487094 </i>
    <i name="hartreedc">   -402.92023071 </i>
    <i name="XCdc">   -113.28811418 </i>
    <i name="pawpsdc">   3226.95325816 </i>
    <i name="pawaedc">  -2978.06409795 </i>
    <i name="eentropy">      0.00015667 </i>
    <i name="bandstr">    591.99151125 </i>
    <i name="atom">   3238.97557032 </i>
    <i name="e_fr_energy">    144.68623760 </i>
    <i name="e_wo_entrp">    144.68608092 </i>
    <i name="e_0_energy">    144.68618537 </i>
   </energy>
  </scstep>
  <scstep>
   <time name="dav">    0.18    0.18</time>
   <time name="total">    0.18    0.18</time>
   <energy>
    <i name="e_fr_energy">    -18.60298327 </i>
    <i name="e_wo_entrp">    -18.60067886 </i>
    <i name="e_0_energy">    -18.60221513 </i>
   </energy>
  </scstep>
  <scstep>
   <time name="dav">    0.14    0.14</time>
   <time name="total">    0.14    0.14</time>
   <energy>
    <i name="e_fr_energy">    -19.45247855 </i>
    <i name="e_wo_entrp">    -19.45145888 </i>
    <i name="e_0_energy">    -19.45213866 </i>
   </energy>
  </scstep>
  <scstep>
   <time name="dav">    0.15    0.15</time>
   <time name="total">    0.15    0.15</time>
   <energy>
    <i name="e_fr_energy">    -19.45651766 </i>
    <i name="e_wo_entrp">    -19.45548370 </i>
    <i name="e_0_energy">    -19.45617301 </i>
   </energy>
  </scstep>
  <scstep>
   <time name="dav">    0.11    0.11</time>
   <time name="total">    0.12    0.12</time>
   <energy>
    <i name="e_fr_energy">    -19.45655787 </i>
    <i name="e_wo_entrp">    -19.45552338 </i>
    <i name="e_0_energy">    -19.45621304 </i>
   </energy>
  </scstep>
  <scstep>
   <time name="dav">    0.11    0.11</time>
   <time name="total">    0.12    0.12</time>
   <energy>
    <i name="e_fr_energy">    -18.42097993 </i>
    <i name="e_wo_entrp">    -18.42178099 </i>
    <i name="e_0_energy">    -18.42124695 </i>
   </energy>
  </scstep>
  <scstep>
   <time name="dav">    0.12    0.12</time>
   <time name="total">    0.13    0.13</time>
   <energy>
    <i name="e_fr_energy">    -18.26768911 </i>
    <i name="e_wo_entrp">    -18.26959800 </i>
    <i name="e_0_energy">    -18.26832541 </i>
   </energy>
  </scstep>
  <scstep>
   <time name="dav">    0.11    0.11</time>
   <time name="total">    0.12    0.12</time>
   <energy>
    <i name="e_fr_energy">    -18.24979458 </i>
    <i name="e_wo_entrp">    -18.25173745 </i>
    <i name="e_0_energy">    -18.25044220 </i>
   </energy>
  </scstep>
  <scstep>
   <time name="dav">    0.06    0.06</time>
   <time name="total">    0.07    0.07</time>
   <energy>
    <i name="alphaZ">    217.89305496 </i>
    <i name="ewald">  -3636.85487094 </i>
    <i name="hartreedc">   -360.81080146 </i>
    <i name="XCdc">   -114.32591372 </i>
    <i name="pawpsdc">   4564.45824807 </i>
    <i name="pawaedc">  -4334.19621774 </i>
    <i name="eentropy">      0.00194337 </i>
    <i name="bandstr">    406.60922811 </i>
    <i name="atom">   3238.97557032 </i>
    <i name="e_fr_energy">    -18.24975903 </i>
    <i name="e_wo_entrp">    -18.25170239 </i>
    <i name="e_0_energy">    -18.25040681 </i>
   </energy>
  </scstep>
  <structure>
   <crystal>
    <varray name="basis" >
     <v>       3.63066667       0.00000000       0.00000000 </v>
     <v>       0.00000000       3.63066667       0.00000000 </v>
     <v>       0.00000000       0.00000000       3.63066667 </v>
    </varray>
    <i name="volume">     47.85850564 </i>
    <varray name="rec_basis" >
     <v>       0.27543151       0.00000000       0.00000000 </v>
     <v>       0.00000000       0.27543151       0.00000000 </v>
     <v>       0.00000000       0.00000000       0.27543151 </v>
    </varray>
   </crystal>
   <varray name="positions" >
    <v>       0.00000000       0.00000000       0.00000000 </v>
    <v>       0.00000000       0.50000000       0.50000000 </v>
    <v>       0.50000000       0.00000000       0.50000000 </v>
    <v>       0.50000000       0.50000000       0.00000000 </v>
   </varray>
  </structure>
  <varray name="forces" >
   <v>       0.00000000      -0.00000000       0.00000000 </v>
   <v>       0.00000000      -0.00000000      -0.00000000 </v>
   <v>      -0.00000000       0.00000000      -0.00000000 </v>
   <v>      -0.00000000       0.00000000       0.00000000 </v>
  </varray>
  <varray name="stress" >
   <v>     797.21664425       0.00000000       0.00000000 </v>
   <v>      -0.00000000     797.21664425       0.00000000 </v>
   <v>      -0.00000000      -0.00000000     797.21664425 </v>
  </varray>
  <energy>
   <i name="e_fr_energy">    -18.24975903 </i>
   <i name="e_wo_entrp">    -18.25040681 </i>
   <i name="e_0_energy">      0.00194337 </i>
  </energy>
  <time name="totalsc">    1.34    1.67</time>
  <eigenvalues>
   <array>
    <dimension dim="1">band</dimension>
    <dimension dim="2">kpoint</dimension>
    <dimension dim="3">spin</dimension>
    <field>eigene</field>
    <field>occ</field>
    <set>
     <set comment="spin 1">
      <set comment="kpoint 1">
       <r>    5.0603    1.0000 </r>
       <r>    6.4142    1.0000 </r>
       <r>    6.4142    1.0000 </r>
       <r>    6.4142    1.0000 </r>
       <r>    6.7966    1.0000 </r>
       <r>    6.7966    1.0000 </r>
       <r>    6.7966    1.0000 </r>
       <r>    9.7440    1.0000 </r>
       <r>    9.8859    1.0000 </r>
       <r>    9.8859    1.0000 </r>
       <r>   12.0461    1.0000 </r>
       <r>   12.0461    1.0000 </r>
       <r>   13.5992    1.0101 </r>
       <r>   13.5992    1.0101 </r>
       <r>   13.5992    1.0101 </r>
       <r>   13.6795    1.0336 </r>
       <r>   13.6795    1.0336 </r>
       <r>   13.6795    1.0336 </r>
       <r>   14.1565   -0.0000 </r>
       <r>   14.1565   -0.0000 </r>
       <r>   14.1565   -0.0000 </r>
       <r>   17.5253    0.0000 </r>
       <r>   17.5253    0.0000 </r>
       <r>   17.5253    0.0000 </r>
      </set>
      <set comment="kpoint 2">
       <r>    5.5003    1.0000 </r>
       <r>    6.6671    1.0000 </r>
       <r>    6.7046    1.0000 </r>
       <r>    6.7046    1.0000 </r>
       <r>    6.9840    1.0000 </r>
       <r>    7.1158    1.0000 </r>
       <r>    7.1158    1.0000 </r>
       <r>    9.4863    1.0000 </r>
       <r>   10.0923    1.0000 </r>
       <r>   10.1007    1.0000 </r>
       <r>   11.7563    1.0000 </r>
       <r>   12.1762    1.0000 </r>
       <r>   12.3961    1.0000 </r>
       <r>   12.3961    1.0000 </r>
       <r>   13.1150    1.0000 </r>
       <r>   13.2186    1.0000 </r>
       <r>   13.2186    1.0000 </r>
       <r>   13.2729    1.0000 </r>
       <r>   13.8811   -0.0104 </r>
       <r>   14.1242   -0.0000 </r>
       <r>   14.1242   -0.0000 </r>
       <r>   16.0185   -0.0000 </r>
       <r>   19.0367    0.0000 </r>
       <r>   19.0367    0.0000 </r>
      </set>
      <set comment="kpoint 3">
       <r>    6.2887    1.0000 </r>
       <r>    7.0838    1.0000 </r>
       <r>    7.2128    1.0000 </r>
       <r>    7.2128    1.0000 </r>
       <r>    7.3453    1.0000 </r>
       <r>    7.7187    1.0000 </r>
       <r>    7.7187    1.0000 </r>
       <r>    9.0020    1.0000 </r>
       <r>   10.4763    1.0000 </r>
       <r>   10.5213    1.0000 </r>
       <r>   10.9506    1.0000 </r>
       <r>   10.9506    1.0000 </r>
       <r>   11.3786    1.0000 </r>
       <r>   12.1587    1.0000 </r>
       <r>   12.4220    1.0000 </r>
       <r>   12.5530    1.0000 </r>
       <r>   12.5530    1.0000 </r>
       <r>   12.6306    1.0000 </r>
       <r>   13.5199    1.0004 </r>
       <r>   14.1121   -0.0000 </r>
       <r>   14.1121   -0.0000 </r>
       <r>   14.1679   -0.0000 </r>
       <r>   20.8973    0.0000 </r>
       <r>   20.8973    0.0000 </r>
      </set>
      <set comment="kpoint 4">
       <r>    7.1274    1.0000 </r>
       <r>    7.4068    1.0000 </r>
       <r>    7.7008    1.0000 </r>
       <r>    7.7008    1.0000 </r>
       <r>    7.8429    1.0000 </r>
       <r>    8.4193    1.0000 </r>
       <r>    8.5505    1.0000 </r>
       <r>    8.5505    1.0000 </r>
       <r>    9.6468    1.0000 </r>
       <r>    9.6468    1.0000 </r>
       <r>   10.6426    1.0000 </r>
       <r>   11.1233    1.0000 </r>
       <r>   11.1248    1.0000 </r>
       <r>   11.6436    1.0000 </r>
       <r>   11.8576    1.0000 </r>
       <r>   11.9683    1.0000 </r>
       <r>   11.9683    1.0000 </r>
       <r>   12.6567    1.0000 </r>
       <r>   12.7549    1.0000 </r>
       <r>   13.1351    1.0000 </r>
       <r>   14.1087   -0.0000 </r>
       <r>   14.1087   -0.0000 </r>
       <r>   22.7132    0.0000 </r>
       <r>   22.7132    0.0000 </r>
      </set>
      <set comment="kpoint 5">
       <r>    5.8989    1.0000 </r>
       <r>    6.8819    1.0000 </r>
       <r>    6.9540    1.0000 </r>
       <r>    6.9540    1.0000 </r>
       <r>    7.2966    1.0000 </r>
       <r>    7.2966    1.0000 </r>
       <r>    7.4919    1.0000 </r>
       <r>    9.4013    1.0000 </r>
       <r>   10.1730    1.0000 </r>
       <r>   10.2115    1.0000 </r>
       <r>   11.7077    1.0000 </r>
       <r>   11.8029    1.0000 </r>
       <r>   11.8029    1.0000 </r>
       <r>   11.8086    1.0000 </r>
       <r>   12.2000    1.0000 </r>
       <r>   12.8105    1.0000 </r>
       <r>   13.0278    1.0000 </r>
       <r>   13.0278    1.0000 </r>
       <r>   13.8306    0.1962 </r>
       <r>   13.8306    0.1962 </r>
       <r>   13.8908   -0.0243 </r>
       <r>   17.4291    0.0000 </r>
       <r>   17.4291    0.0000 </r>
       <r>   20.1719    0.0000 </r>
      </set>
      <set comment="kpoint 6">
       <r>    6.6104    1.0000 </r>
       <r>    7.2922    1.0000 </r>
       <r>    7.3480    1.0000 </r>
       <r>    7.4677    1.0000 </r>
       <r>    7.6612    1.0000 </r>
       <r>    7.8699    1.0000 </r>
       <r>    8.0766    1.0000 </r>
       <r>    9.0691    1.0000 </r>
       <r>   10.3329    1.0000 </r>
       <r>   10.4774    1.0000 </r>
       <r>   10.5131    1.0000 </r>
       <r>   10.7509    1.0000 </r>
       <r>   10.9870    1.0000 </r>
       <r>   11.5211    1.0000 </r>
       <r>   12.2867    1.0000 </r>
       <r>   12.4405    1.0000 </r>
       <r>   12.5250    1.0000 </r>
       <r>   12.5674    1.0000 </r>
       <r>   13.3985    1.0000 </r>
       <r>   13.7116    0.9902 </r>
       <r>   13.7258    0.9444 </r>
       <r>   15.5308   -0.0000 </r>
       <r>   19.0485    0.0000 </r>
       <r>   21.7441    0.0000 </r>
      </set>
      <set comment="kpoint 7">
       <r>    7.3811    1.0000 </r>
       <r>    7.6496    1.0000 </r>
       <r>    7.8518    1.0000 </r>
       <r>    7.9890    1.0000 </r>
       <r>    8.1374    1.0000 </r>
       <r>    8.5624    1.0000 </r>
       <r>    8.6061    1.0000 </r>
       <r>    8.6190    1.0000 </r>
       <r>    9.4412    1.0000 </r>
       <r>    9.6740    1.0000 </r>
       <r>   10.1664    1.0000 </r>
       <r>   10.2762    1.0000 </r>
       <r>   11.0383    1.0000 </r>
       <r>   11.7053    1.0000 </r>
       <r>   11.8457    1.0000 </r>
       <r>   11.9101    1.0000 </r>
       <r>   11.9555    1.0000 </r>
       <r>   12.7293    1.0000 </r>
       <r>   13.1541    1.0000 </r>
       <r>   13.6619    1.0347 </r>
       <r>   13.6624    1.0348 </r>
       <r>   14.0480   -0.0009 </r>
       <r>   20.5519    0.0000 </r>
       <r>   21.8448    0.0000 </r>
      </set>
      <set comment="kpoint 8">
       <r>    7.1643    1.0000 </r>
       <r>    7.5596    1.0000 </r>
       <r>    7.8269    1.0000 </r>
       <r>    7.8269    1.0000 </r>
       <r>    8.2269    1.0000 </r>
       <r>    8.2269    1.0000 </r>
       <r>    8.5839    1.0000 </r>
       <r>    9.0677    1.0000 </r>
       <r>    9.8757    1.0000 </r>
       <r>    9.8757    1.0000 </r>
       <r>   10.2312    1.0000 </r>
       <r>   10.2836    1.0000 </r>
       <r>   10.6366    1.0000 </r>
       <r>   11.3906    1.0000 </r>
       <r>   11.8607    1.0000 </r>
       <r>   12.1563    1.0000 </r>
       <r>   12.1563    1.0000 </r>
       <r>   13.1217    1.0000 </r>
       <r>   13.1217    1.0000 </r>
       <r>   13.1949    1.0000 </r>
       <r>   13.3081    1.0000 </r>
       <r>   17.0235    0.0000 </r>
       <r>   17.0235    0.0000 </r>
       <r>   21.2714    0.0000 </r>
      </set>
      <set comment="kpoint 9">
       <r>    7.7528    1.0000 </r>
       <r>    8.0171    1.0000 </r>
       <r>    8.0346    1.0000 </r>
       <r>    8.4363    1.0000 </r>
       <r>    8.5752    1.0000 </r>
       <r>    8.7150    1.0000 </r>
       <r>    8.8554    1.0000 </r>
       <r>    8.9270    1.0000 </r>
       <r>    9.2813    1.0000 </r>
       <r>    9.5125    1.0000 </r>
       <r>    9.6811    1.0000 </r>
       <r>    9.8739    1.0000 </r>
       <r>   10.9628    1.0000 </r>
       <r>   11.5309    1.0000 </r>
       <r>   11.5355    1.0000 </r>
       <r>   11.6833    1.0000 </r>
       <r>   11.7050    1.0000 </r>
       <r>   12.4071    1.0000 </r>
       <r>   12.9953    1.0000 </r>
       <r>   13.0539    1.0000 </r>
       <r>   14.1314   -0.0000 </r>
       <r>   15.3651   -0.0000 </r>
       <r>   18.4449    0.0000 </r>
       <r>   19.8117    0.0000 </r>
      </set>
      <set comment="kpoint 10">
       <r>    8.0674    1.0000 </r>
       <r>    8.2184    1.0000 </r>
       <r>    8.3014    1.0000 </r>
       <r>    8.3014    1.0000 </r>
       <r>    9.0396    1.0000 </r>
       <r>    9.0665    1.0000 </r>
       <r>    9.0665    1.0000 </r>
       <r>    9.1482    1.0000 </r>
       <r>    9.3862    1.0000 </r>
       <r>    9.3862    1.0000 </r>
       <r>    9.6823    1.0000 </r>
       <r>    9.7659    1.0000 </r>
       <r>   10.8630    1.0000 </r>
       <r>   11.1646    1.0000 </r>
       <r>   11.2119    1.0000 </r>
       <r>   11.2119    1.0000 </r>
       <r>   11.7467    1.0000 </r>
       <r>   12.2891    1.0000 </r>
       <r>   12.2891    1.0000 </r>
       <r>   12.5334    1.0000 </r>
       <r>   15.3236   -0.0000 </r>
       <r>   16.7178    0.0000 </r>
       <r>   16.7178    0.0000 </r>
       <r>   18.1454    0.0000 </r>
      </set>
      <set comment="kpoint 11">
       <r>    6.2099    1.0000 </r>
       <r>    7.0791    1.0000 </r>
       <r>    7.0791    1.0000 </r>
       <r>    7.0791    1.0000 </r>
       <r>    7.6961    1.0000 </r>
       <r>    7.6961    1.0000 </r>
       <r>    7.6961    1.0000 </r>
       <r>    9.4791    1.0000 </r>
       <r>   10.2074    1.0000 </r>
       <r>   10.2074    1.0000 </r>
       <r>   11.3513    1.0000 </r>
       <r>   11.3513    1.0000 </r>
       <r>   11.3513    1.0000 </r>
       <r>   11.9997    1.0000 </r>
       <r>   11.9997    1.0000 </r>
       <r>   12.3144    1.0000 </r>
       <r>   12.3144    1.0000 </r>
       <r>   12.3144    1.0000 </r>
       <r>   13.9768   -0.0125 </r>
       <r>   13.9768   -0.0125 </r>
       <r>   13.9768   -0.0125 </r>
       <r>   18.3154    0.0000 </r>
       <r>   18.3154    0.0000 </r>
       <r>   18.3154    0.0000 </r>
      </set>
      <set comment="kpoint 12">
       <r>    6.7421    1.0000 </r>
       <r>    7.3498    1.0000 </r>
       <r>    7.4382    1.0000 </r>
       <r>    7.4382    1.0000 </r>
       <r>    8.1289    1.0000 </r>
       <r>    8.2447    1.0000 </r>
       <r>    8.2447    1.0000 </r>
       <r>    9.3929    1.0000 </r>
       <r>   10.2579    1.0000 </r>
       <r>   10.3481    1.0000 </r>
       <r>   10.4557    1.0000 </r>
       <r>   10.4557    1.0000 </r>
       <r>   10.6559    1.0000 </r>
       <r>   11.6877    1.0000 </r>
       <r>   11.9097    1.0000 </r>
       <r>   11.9097    1.0000 </r>
       <r>   11.9396    1.0000 </r>
       <r>   12.4773    1.0000 </r>
       <r>   13.8023    0.4103 </r>
       <r>   13.8023    0.4103 </r>
       <r>   13.8635    0.0339 </r>
       <r>   16.1204   -0.0000 </r>
       <r>   19.5504    0.0000 </r>
       <r>   19.5504    0.0000 </r>
      </set>
      <set comment="kpoint 13">
       <r>    7.2805    1.0000 </r>
       <r>    7.4970    1.0000 </r>
       <r>    7.9909    1.0000 </r>
       <r>    7.9909    1.0000 </r>
       <r>    8.4680    1.0000 </r>
       <r>    8.4680    1.0000 </r>
       <r>    8.7127    1.0000 </r>
       <r>    9.1533    1.0000 </r>
       <r>    9.8564    1.0000 </r>
       <r>    9.8564    1.0000 </r>
       <r>   10.0292    1.0000 </r>
       <r>   10.0656    1.0000 </r>
       <r>   10.6455    1.0000 </r>
       <r>   11.1040    1.0000 </r>
       <r>   11.5616    1.0000 </r>
       <r>   11.5616    1.0000 </r>
       <r>   12.6770    1.0000 </r>
       <r>   13.0211    1.0000 </r>
       <r>   13.5188    1.0004 </r>
       <r>   13.6281    1.0214 </r>
       <r>   13.6281    1.0214 </r>
       <r>   14.1600   -0.0000 </r>
       <r>   20.5890    0.0000 </r>
       <r>   20.5890    0.0000 </r>
      </set>
      <set comment="kpoint 14">
       <r>    6.9754    1.0000 </r>
       <r>    7.5527    1.0000 </r>
       <r>    7.5527    1.0000 </r>
       <r>    7.5654    1.0000 </r>
       <r>    8.6495    1.0000 </r>
       <r>    8.6579    1.0000 </r>
       <r>    8.6579    1.0000 </r>
       <r>    9.7813    1.0000 </r>
       <r>   10.0989    1.0000 </r>
       <r>   10.0989    1.0000 </r>
       <r>   10.2167    1.0000 </r>
       <r>   10.2695    1.0000 </r>
       <r>   10.3559    1.0000 </r>
       <r>   11.3395    1.0000 </r>
       <r>   11.3588    1.0000 </r>
       <r>   11.3588    1.0000 </r>
       <r>   12.0336    1.0000 </r>
       <r>   12.9672    1.0000 </r>
       <r>   13.6587    1.0340 </r>
       <r>   13.7140    0.9837 </r>
       <r>   13.7140    0.9837 </r>
       <r>   17.2137    0.0000 </r>
       <r>   17.2137    0.0000 </r>
       <r>   19.9530    0.0000 </r>
      </set>
      <set comment="kpoint 15">
       <r>    7.2537    1.0000 </r>
       <r>    7.4833    1.0000 </r>
       <r>    7.8009    1.0000 </r>
       <r>    7.8278    1.0000 </r>
       <r>    8.7409    1.0000 </r>
       <r>    8.7456    1.0000 </r>
       <r>    9.2893    1.0000 </r>
       <r>    9.8312    1.0000 </r>
       <r>    9.8937    1.0000 </r>
       <r>    9.9554    1.0000 </r>
       <r>   10.1057    1.0000 </r>
       <r>   10.3125    1.0000 </r>
       <r>   10.4404    1.0000 </r>
       <r>   10.8273    1.0000 </r>
       <r>   11.0364    1.0000 </r>
       <r>   11.1114    1.0000 </r>
       <r>   12.5182    1.0000 </r>
       <r>   13.2832    1.0000 </r>
       <r>   13.4347    1.0000 </r>
       <r>   13.4478    1.0000 </r>
       <r>   13.8704    0.0131 </r>
       <r>   15.2384   -0.0000 </r>
       <r>   18.3804    0.0000 </r>
       <r>   19.4200    0.0000 </r>
      </set>
      <set comment="kpoint 16">
       <r>    7.3434    1.0000 </r>
       <r>    7.5459    1.0000 </r>
       <r>    7.5459    1.0000 </r>
       <r>    7.6434    1.0000 </r>
       <r>    9.0574    1.0000 </r>
       <r>    9.2530    1.0000 </r>
       <r>    9.2530    1.0000 </r>
       <r>    9.6464    1.0000 </r>
       <r>   10.3214    1.0000 </r>
       <r>   10.3355    1.0000 </r>
       <r>   10.3355    1.0000 </r>
       <r>   10.5701    1.0000 </r>
       <r>   10.6396    1.0000 </r>
       <r>   10.6418    1.0000 </r>
       <r>   10.7177    1.0000 </r>
       <r>   10.7177    1.0000 </r>
       <r>   12.4697    1.0000 </r>
       <r>   12.9836    1.0000 </r>
       <r>   12.9836    1.0000 </r>
       <r>   13.0918    1.0000 </r>
       <r>   15.0419   -0.0000 </r>
       <r>   16.4936   -0.0000 </r>
       <r>   16.4936   -0.0000 </r>
       <r>   17.8619    0.0000 </r>
      </set>
      <set comment="kpoint 17">
       <r>    6.8719    1.0000 </r>
       <r>    7.4075    1.0000 </r>
       <r>    7.4075    1.0000 </r>
       <r>    7.4075    1.0000 </r>
       <r>    8.9612    1.0000 </r>
       <r>    8.9612    1.0000 </r>
       <r>    8.9612    1.0000 </r>
       <r>   10.0710    1.0000 </r>
       <r>   10.0710    1.0000 </r>
       <r>   10.5305    1.0000 </r>
       <r>   10.5305    1.0000 </r>
       <r>   10.5305    1.0000 </r>
       <r>   10.7736    1.0000 </r>
       <r>   10.7736    1.0000 </r>
       <r>   10.7736    1.0000 </r>
       <r>   10.8357    1.0000 </r>
       <r>   12.7358    1.0000 </r>
       <r>   12.7358    1.0000 </r>
       <r>   13.8642    0.0316 </r>
       <r>   13.8642    0.0316 </r>
       <r>   13.8642    0.0316 </r>
       <r>   17.5817    0.0000 </r>
       <r>   17.5817    0.0000 </r>
       <r>   17.5817    0.0000 </r>
      </set>
      <set comment="kpoint 18">
       <r>    6.9368    1.0000 </r>
       <r>    7.1454    1.0000 </r>
       <r>    7.3591    1.0000 </r>
       <r>    7.3591    1.0000 </r>
       <r>    9.0471    1.0000 </r>
       <r>    9.0471    1.0000 </r>
       <r>    9.4372    1.0000 </r>
       <r>    9.8429    1.0000 </r>
       <r>   10.0927    1.0000 </r>
       <r>   10.3357    1.0000 </r>
       <r>   10.4962    1.0000 </r>
       <r>   10.4962    1.0000 </r>
       <r>   10.8279    1.0000 </r>
       <r>   10.9954    1.0000 </r>
       <r>   10.9954    1.0000 </r>
       <r>   11.1585    1.0000 </r>
       <r>   13.3530    1.0000 </r>
       <r>   13.4822    1.0001 </r>
       <r>   13.6898    1.0269 </r>
       <r>   13.6898    1.0269 </r>
       <r>   13.7604    0.7504 </r>
       <r>   15.3189   -0.0000 </r>
       <r>   17.9051    0.0000 </r>
       <r>   17.9051    0.0000 </r>
      </set>
      <set comment="kpoint 19">
       <r>    6.8583    1.0000 </r>
       <r>    7.0111    1.0000 </r>
       <r>    7.0111    1.0000 </r>
       <r>    7.0829    1.0000 </r>
       <r>    9.3309    1.0000 </r>
       <r>    9.4568    1.0000 </r>
       <r>    9.4568    1.0000 </r>
       <r>    9.7712    1.0000 </r>
       <r>    9.9361    1.0000 </r>
       <r>   10.1057    1.0000 </r>
       <r>   10.1057    1.0000 </r>
       <r>   10.1530    1.0000 </r>
       <r>   11.6496    1.0000 </r>
       <r>   11.6496    1.0000 </r>
       <r>   11.6671    1.0000 </r>
       <r>   12.0135    1.0000 </r>
       <r>   13.1576    1.0000 </r>
       <r>   13.5798    1.0053 </r>
       <r>   13.5798    1.0053 </r>
       <r>   13.5866    1.0068 </r>
       <r>   14.4748   -0.0000 </r>
       <r>   16.0004   -0.0000 </r>
       <r>   16.0004   -0.0000 </r>
       <r>   16.9596    0.0000 </r>
      </set>
      <set comment="kpoint 20">
       <r>    6.6547    1.0000 </r>
       <r>    6.7359    1.0000 </r>
       <r>    6.7359    1.0000 </r>
       <r>    6.7359    1.0000 </r>
       <r>    9.6139    1.0000 </r>
       <r>    9.6139    1.0000 </r>
       <r>    9.6139    1.0000 </r>
       <r>    9.7733    1.0000 </r>
       <r>    9.7733    1.0000 </r>
       <r>    9.8494    1.0000 </r>
       <r>    9.8494    1.0000 </r>
       <r>    9.8494    1.0000 </r>
       <r>   12.6918    1.0000 </r>
       <r>   12.6918    1.0000 </r>
       <r>   12.6918    1.0000 </r>
       <r>   13.6399    1.0269 </r>
       <r>   13.6399    1.0269 </r>
       <r>   13.6941    1.0224 </r>
       <r>   13.7956    0.4668 </r>
       <r>   13.7956    0.4668 </r>
       <r>   13.7956    0.4668 </r>
       <r>   15.4200   -0.0000 </r>
       <r>   15.4200   -0.0000 </r>
       <r>   15.4200   -0.0000 </r>
      </set>
     </set>
    </set>
   </array>
  </eigenvalues>
  <separator name="orbital magnetization" >
   <v name="MAGDIPOLOUT">      0.00000000      0.00000000      0.00000000</v>
  </separator>
  <dos>
   <i name="efermi">     13.79164169 </i>
   <total>
    <array>
     <dimension dim="1">gridpoints</dimension>
     <dimension dim="2">spin</dimension>
     <field>energy</field>
     <field>total</field>
     <field>integrated</field>
     <set>
      <set comment="spin 1">
       <r>     4.0603     0.0000     0.0000 </r>
       <r>     4.1258     0.0000     0.0000 </r>
       <r>     4.1913     0.0000     0.0000 </r>
       <r>     4.2568    -0.0000    -0.0000 </r>
       <r>     4.3223    -0.0000    -0.0000 </r>
       <r>     4.3879    -0.0000    -0.0000 </r>
       <r>     4.4534    -0.0000    -0.0000 </r>
       <r>     4.5189    -0.0000    -0.0000 </r>
       <r>     4.5844    -0.0000    -0.0000 </r>
       <r>     4.6499    -0.0000    -0.0000 </r>
       <r>     4.7154    -0.0000    -0.0000 </r>
       <r>     4.7809    -0.0001    -0.0000 </r>
       <r>     4.8464    -0.0022    -0.0002 </r>
       <r>     4.9119    -0.0112    -0.0009 </r>
       <r>     4.9774     0.0150     0.0001 </r>
       <r>     5.0429     0.1682     0.0111 </r>
       <r>     5.1085     0.2405     0.0269 </r>
       <r>     5.1740     0.0831     0.0323 </r>
       <r>     5.2395    -0.0102     0.0316 </r>
       <r>     5.3050    -0.0186     0.0304 </r>
       <r>     5.3705    -0.0371     0.0280 </r>
       <r>     5.4360     0.1376     0.0370 </r>
       <r>     5.5015     0.6418     0.0791 </r>
       <r>     5.5670     0.6266     0.1201 </r>
       <r>     5.6325     0.1229     0.1282 </r>
       <r>     5.6980    -0.0470     0.1251 </r>
       <r>     5.7636    -0.0480     0.1219 </r>
       <r>     5.8291     0.1049     0.1288 </r>
       <r>     5.8946     0.6047     0.1684 </r>
       <r>     5.9601     0.6606     0.2117 </r>
       <r>     6.0256     0.1511     0.2216 </r>
       <r>     6.0911    -0.0579     0.2178 </r>
       <r>     6.1566     0.0192     0.2190 </r>
       <r>     6.2221     0.3433     0.2415 </r>
       <r>     6.2876     0.7733     0.2922 </r>
       <r>     6.3531     0.8194     0.3459 </r>
       <r>     6.4187     0.7567     0.3954 </r>
       <r>     6.4842     0.4552     0.4253 </r>
       <r>     6.5497     0.2839     0.4439 </r>
       <r>     6.6152     1.5686     0.5466 </r>
       <r>     6.6807     3.3336     0.7650 </r>
       <r>     6.7462     3.8363     1.0163 </r>
       <r>     6.8117     2.7177     1.1944 </r>
       <r>     6.8772     2.3325     1.3472 </r>
       <r>     6.9427     3.7810     1.5949 </r>
       <r>     7.0082     4.9738     1.9207 </r>
       <r>     7.0737     5.0452     2.2512 </r>
       <r>     7.1393     5.3415     2.6011 </r>
       <r>     7.2048     4.7395     2.9116 </r>
       <r>     7.2703     5.7925     3.2911 </r>
       <r>     7.3358     8.9999     3.8806 </r>
       <r>     7.4013     9.8327     4.5248 </r>
       <r>     7.4668     8.4110     5.0758 </r>
       <r>     7.5323     7.6480     5.5768 </r>
       <r>     7.5978     6.3383     5.9920 </r>
       <r>     7.6633     6.1043     6.3919 </r>
       <r>     7.7288     7.0654     6.8548 </r>
       <r>     7.7944     7.4278     7.3413 </r>
       <r>     7.8599     7.8606     7.8563 </r>
       <r>     7.9254     5.0620     8.1879 </r>
       <r>     7.9909     4.4664     8.4805 </r>
       <r>     8.0564     6.7595     8.9233 </r>
       <r>     8.1219     5.6460     9.2932 </r>
       <r>     8.1874     4.0558     9.5589 </r>
       <r>     8.2529     4.4277     9.8489 </r>
       <r>     8.3184     3.4933    10.0778 </r>
       <r>     8.3839     1.8755    10.2006 </r>
       <r>     8.4494     2.7615    10.3815 </r>
       <r>     8.5150     4.3238    10.6648 </r>
       <r>     8.5805     7.0654    11.1276 </r>
       <r>     8.6460     8.5016    11.6846 </r>
       <r>     8.7115     7.2189    12.1575 </r>
       <r>     8.7770     5.3062    12.5051 </r>
       <r>     8.8425     2.6863    12.6811 </r>
       <r>     8.9080     2.1307    12.8206 </r>
       <r>     8.9735     3.1874    13.0294 </r>
       <r>     9.0390     5.9864    13.4216 </r>
       <r>     9.1045     7.1598    13.8906 </r>
       <r>     9.1701     3.7489    14.1362 </r>
       <r>     9.2356     2.5535    14.3035 </r>
       <r>     9.3011     4.4608    14.5957 </r>
       <r>     9.3666     5.1766    14.9349 </r>
       <r>     9.4321     6.4185    15.3553 </r>
       <r>     9.4976     6.3487    15.7712 </r>
       <r>     9.5631     3.3514    15.9908 </r>
       <r>     9.6286     3.5166    16.2212 </r>
       <r>     9.6941     6.0736    16.6190 </r>
       <r>     9.7596     5.5606    16.9833 </r>
       <r>     9.8252     6.9699    17.4399 </r>
       <r>     9.8907     9.8230    18.0834 </r>
       <r>     9.9562     6.9370    18.5378 </r>
       <r>    10.0217     3.5092    18.7677 </r>
       <r>    10.0872     6.6775    19.2052 </r>
       <r>    10.1527     9.4938    19.8271 </r>
       <r>    10.2182     7.8836    20.3436 </r>
       <r>    10.2837     8.5969    20.9067 </r>
       <r>    10.3492     9.6967    21.5420 </r>
       <r>    10.4147     7.1276    22.0089 </r>
       <r>    10.4802     7.4403    22.4963 </r>
       <r>    10.5458     7.7485    23.0039 </r>
       <r>    10.6113     5.3115    23.3518 </r>
       <r>    10.6768     5.2134    23.6934 </r>
       <r>    10.7423     5.0702    24.0255 </r>
       <r>    10.8078     4.5215    24.3217 </r>
       <r>    10.8733     3.6771    24.5626 </r>
       <r>    10.9388     4.0617    24.8287 </r>
       <r>    11.0043     6.9239    25.2823 </r>
       <r>    11.0698     7.3848    25.7660 </r>
       <r>    11.1353     6.2401    26.1748 </r>
       <r>    11.2009     4.5993    26.4761 </r>
       <r>    11.2664     2.1535    26.6172 </r>
       <r>    11.3319     2.4699    26.7790 </r>
       <r>    11.3974     3.8788    27.0331 </r>
       <r>    11.4629     2.8117    27.2173 </r>
       <r>    11.5284     4.2068    27.4929 </r>
       <r>    11.5939     5.7170    27.8674 </r>
       <r>    11.6594     6.7320    28.3084 </r>
       <r>    11.7249     8.7726    28.8831 </r>
       <r>    11.7904     7.0641    29.3459 </r>
       <r>    11.8559     6.0908    29.7449 </r>
       <r>    11.9215     7.3454    30.2261 </r>
       <r>    11.9870     7.2196    30.6990 </r>
       <r>    12.0525     4.3493    30.9839 </r>
       <r>    12.1180     2.2979    31.1345 </r>
       <r>    12.1835     3.1837    31.3430 </r>
       <r>    12.2490     3.7077    31.5859 </r>
       <r>    12.3145     3.8942    31.8410 </r>
       <r>    12.3800     4.4533    32.1328 </r>
       <r>    12.4455     6.1508    32.5357 </r>
       <r>    12.5110     7.6619    33.0376 </r>
       <r>    12.5766     7.2580    33.5131 </r>
       <r>    12.6421     4.7500    33.8243 </r>
       <r>    12.7076     4.1496    34.0961 </r>
       <r>    12.7731     3.9645    34.3558 </r>
       <r>    12.8386     1.7587    34.4710 </r>
       <r>    12.9041     0.3996    34.4972 </r>
       <r>    12.9696     2.9290    34.6891 </r>
       <r>    13.0351     6.6584    35.1253 </r>
       <r>    13.1006     7.3445    35.6064 </r>
       <r>    13.1661     6.9133    36.0593 </r>
       <r>    13.2317     5.5379    36.4221 </r>
       <r>    13.2972     4.1740    36.6955 </r>
       <r>    13.3627     3.6461    36.9344 </r>
       <r>    13.4282     4.4926    37.2287 </r>
       <r>    13.4937     4.8656    37.5474 </r>
       <r>    13.5592     4.4311    37.8377 </r>
       <r>    13.6247     7.2027    38.3095 </r>
       <r>    13.6902    11.2603    39.0472 </r>
       <r>    13.7557    10.2969    39.7218 </r>
       <r>    13.8212     7.4819    40.2119 </r>
       <r>    13.8867     6.6829    40.6497 </r>
       <r>    13.9523     3.6599    40.8894 </r>
       <r>    14.0178     1.5865    40.9934 </r>
       <r>    14.0833     4.5511    41.2915 </r>
       <r>    14.1488     8.1628    41.8263 </r>
       <r>    14.2143     5.2656    42.1712 </r>
       <r>    14.2798     0.6524    42.2139 </r>
       <r>    14.3453    -0.3592    42.1904 </r>
       <r>    14.4108     0.0530    42.1939 </r>
       <r>    14.4763     0.6375    42.2356 </r>
       <r>    14.5418     0.6236    42.2765 </r>
       <r>    14.6074     0.1213    42.2844 </r>
       <r>    14.6729    -0.0366    42.2820 </r>
       <r>    14.7384    -0.0114    42.2813 </r>
       <r>    14.8039    -0.0035    42.2811 </r>
       <r>    14.8694    -0.0222    42.2796 </r>
       <r>    14.9349    -0.0196    42.2783 </r>
       <r>    15.0004     0.2964    42.2977 </r>
       <r>    15.0659     0.6922    42.3431 </r>
       <r>    15.1314     0.3752    42.3677 </r>
       <r>    15.1969     0.5025    42.4006 </r>
       <r>    15.2624     1.7404    42.5146 </r>
       <r>    15.3280     2.9100    42.7052 </r>
       <r>    15.3935     3.0634    42.9059 </r>
       <r>    15.4590     1.8835    43.0293 </r>
       <r>    15.5245     1.4376    43.1235 </r>
       <r>    15.5900     1.2521    43.2055 </r>
       <r>    15.6555     0.3069    43.2256 </r>
       <r>    15.7210    -0.0747    43.2207 </r>
       <r>    15.7865    -0.0455    43.2177 </r>
       <r>    15.8520    -0.0953    43.2115 </r>
       <r>    15.9175     0.0716    43.2162 </r>
       <r>    15.9831     1.3252    43.3030 </r>
       <r>    16.0486     2.2855    43.4527 </r>
       <r>    16.1141     1.4867    43.5501 </r>
       <r>    16.1796     0.6206    43.5908 </r>
       <r>    16.2451     0.1011    43.5974 </r>
       <r>    16.3106    -0.0779    43.5923 </r>
       <r>    16.3761    -0.0768    43.5873 </r>
       <r>    16.4416     0.4392    43.6160 </r>
       <r>    16.5071     1.3991    43.7077 </r>
       <r>    16.5726     1.0021    43.7733 </r>
       <r>    16.6381     0.2380    43.7889 </r>
       <r>    16.7037     0.9908    43.8538 </r>
       <r>    16.7692     1.3870    43.9447 </r>
       <r>    16.8347     0.3844    43.9699 </r>
       <r>    16.9002     0.0382    43.9724 </r>
       <r>    16.9657     0.9919    44.0374 </r>
       <r>    17.0312     1.9133    44.1627 </r>
       <r>    17.0967     1.1955    44.2410 </r>
       <r>    17.1622     0.5870    44.2795 </r>
       <r>    17.2277     1.3156    44.3657 </r>
       <r>    17.2932     0.9673    44.4290 </r>
       <r>    17.3588     0.2922    44.4482 </r>
       <r>    17.4243     1.0950    44.5199 </r>
       <r>    17.4898     1.6781    44.6298 </r>
       <r>    17.5553     1.4959    44.7278 </r>
       <r>    17.6208     1.0674    44.7977 </r>
       <r>    17.6863     0.2667    44.8152 </r>
       <r>    17.7518    -0.1321    44.8066 </r>
       <r>    17.8173     0.3038    44.8265 </r>
       <r>    17.8828     1.6558    44.9349 </r>
       <r>    17.9483     1.9342    45.0616 </r>
       <r>    18.0139     0.5706    45.0990 </r>
       <r>    18.0794     0.0485    45.1022 </r>
       <r>    18.1449     0.5528    45.1384 </r>
       <r>    18.2104     0.5632    45.1753 </r>
       <r>    18.2759     0.3736    45.1998 </r>
       <r>    18.3414     1.3252    45.2866 </r>
       <r>    18.4069     2.5698    45.4550 </r>
       <r>    18.4724     2.3592    45.6095 </r>
       <r>    18.5379     0.8348    45.6642 </r>
       <r>    18.6034    -0.0429    45.6614 </r>
       <r>    18.6689    -0.0681    45.6569 </r>
       <r>    18.7345    -0.0101    45.6563 </r>
       <r>    18.8000    -0.0095    45.6556 </r>
       <r>    18.8655    -0.0801    45.6504 </r>
       <r>    18.9310    -0.0970    45.6440 </r>
       <r>    18.9965     1.0650    45.7138 </r>
       <r>    19.0620     2.8973    45.9036 </r>
       <r>    19.1275     1.9485    46.0312 </r>
       <r>    19.1930     0.1483    46.0410 </r>
       <r>    19.2585    -0.1857    46.0288 </r>
       <r>    19.3240    -0.0282    46.0269 </r>
       <r>    19.3896     0.7315    46.0749 </r>
       <r>    19.4551     1.5040    46.1734 </r>
       <r>    19.5206     1.5092    46.2723 </r>
       <r>    19.5861     1.4700    46.3686 </r>
       <r>    19.6516     0.5921    46.4073 </r>
       <r>    19.7171    -0.0156    46.4063 </r>
       <r>    19.7826     0.7371    46.4546 </r>
       <r>    19.8481     1.4707    46.5510 </r>
       <r>    19.9136     1.0069    46.6169 </r>
       <r>    19.9791     0.7092    46.6634 </r>
       <r>    20.0446     0.3451    46.6860 </r>
       <r>    20.1102     0.1614    46.6966 </r>
       <r>    20.1757     0.6273    46.7377 </r>
       <r>    20.2412     0.6042    46.7772 </r>
       <r>    20.3067     0.1044    46.7841 </r>
       <r>    20.3722    -0.0863    46.7784 </r>
       <r>    20.4377    -0.1317    46.7698 </r>
       <r>    20.5032     0.5580    46.8064 </r>
       <r>    20.5687     2.4007    46.9636 </r>
       <r>    20.6342     2.4772    47.1259 </r>
       <r>    20.6997     0.6149    47.1662 </r>
       <r>    20.7653    -0.1895    47.1538 </r>
       <r>    20.8308     0.1941    47.1665 </r>
       <r>    20.8963     1.2491    47.2483 </r>
       <r>    20.9618     1.2820    47.3323 </r>
       <r>    21.0273     0.2720    47.3501 </r>
       <r>    21.0928    -0.0921    47.3441 </r>
       <r>    21.1583    -0.0515    47.3407 </r>
       <r>    21.2238     0.2520    47.3572 </r>
       <r>    21.2893     0.7235    47.4046 </r>
       <r>    21.3548     0.4997    47.4373 </r>
       <r>    21.4204     0.0425    47.4401 </r>
       <r>    21.4859    -0.0355    47.4378 </r>
       <r>    21.5514    -0.0334    47.4356 </r>
       <r>    21.6169    -0.0802    47.4304 </r>
       <r>    21.6824     0.2531    47.4469 </r>
       <r>    21.7479     1.3164    47.5332 </r>
       <r>    21.8134     1.9904    47.6636 </r>
       <r>    21.8789     1.7139    47.7758 </r>
       <r>    21.9444     0.6531    47.8186 </r>
       <r>    22.0099    -0.0326    47.8165 </r>
       <r>    22.0754    -0.0533    47.8130 </r>
       <r>    22.1410    -0.0072    47.8125 </r>
       <r>    22.2065    -0.0003    47.8125 </r>
       <r>    22.2720    -0.0000    47.8125 </r>
       <r>    22.3375    -0.0000    47.8125 </r>
       <r>    22.4030    -0.0001    47.8125 </r>
       <r>    22.4685    -0.0040    47.8122 </r>
       <r>    22.5340    -0.0380    47.8097 </r>
       <r>    22.5995    -0.0554    47.8061 </r>
       <r>    22.6650     0.4989    47.8388 </r>
       <r>    22.7305     1.4432    47.9333 </r>
       <r>    22.7961     1.0091    47.9994 </r>
       <r>    22.8616     0.0897    48.0053 </r>
       <r>    22.9271    -0.0670    48.0009 </r>
       <r>    22.9926    -0.0134    48.0001 </r>
       <r>    23.0581    -0.0008    48.0000 </r>
       <r>    23.1236    -0.0000    48.0000 </r>
       <r>    23.1891    -0.0000    48.0000 </r>
       <r>    23.2546    -0.0000    48.0000 </r>
       <r>    23.3201    -0.0000    48.0000 </r>
       <r>    23.3856    -0.0000    48.0000 </r>
       <r>    23.4511     0.0000    48.0000 </r>
       <r>    23.5167     0.0000    48.0000 </r>
       <r>    23.5822     0.0000    48.0000 </r>
       <r>    23.6477     0.0000    48.0000 </r>
       <r>    23.7132     0.0000    48.0000 </r>
      </set>
     </set>
    </array>
   </total>
  </dos>
 </calculation>
 <structure name="finalpos" >
  <crystal>
   <varray name="basis" >
    <v>       3.63066667       0.00000000       0.00000000 </v>
    <v>       0.00000000       3.63066667       0.00000000 </v>
    <v>       0.00000000       0.00000000       3.63066667 </v>
   </varray>
   <i name="volume">     47.85850564 </i>
   <varray name="rec_basis" >
    <v>       0.27543151       0.00000000       0.00000000 </v>
    <v>       0.00000000       0.27543151       0.00000000 </v>
    <v>       0.00000000       0.00000000       0.27543151 </v>
   </varray>
  </crystal>
  <varray name="positions" >
   <v>       0.00000000       0.00000000       0.00000000 </v>
   <v>       0.00000000       0.50000000       0.50000000 </v>
   <v>       0.50000000       0.00000000       0.50000000 </v>
   <v>       0.50000000       0.50000000       0.00000000 </v>
  </varray>
 </structure>
</modeling>
