  12  12   0   0
  0.6153164E+02  0.5864744E-09  0.5864744E-09  0.2478854E-08  0.5000000E-15
  1.000000000000000E-004
  CAR 
 unknown system                          
      9.50521595     -8.77687211  301     -0.88669965      1.00000000
     -8.777  0.0000E+00  0.0000E+00
     -8.716  0.0000E+00  0.0000E+00
     -8.655  0.0000E+00  0.0000E+00
     -8.594 -0.4655E-30 -0.2837E-31
     -8.533 -0.6287E-26 -0.3832E-27
     -8.472 -0.4014E-22 -0.2447E-23
     -8.411 -0.1210E-18 -0.7376E-20
     -8.350 -0.1663E-15 -0.1014E-16
     -8.289 -0.1106E-12 -0.6752E-14
     -8.228 -0.3431E-10 -0.2097E-11
     -8.167 -0.4946E-08 -0.3035E-09
     -8.107 -0.3288E-06 -0.2034E-07
     -8.046 -0.9966E-05 -0.6276E-06
     -7.985 -0.1355E-03 -0.8886E-05
     -7.924 -0.7985E-03 -0.5755E-04
     -7.863 -0.1547E-02 -0.1518E-03
     -7.802  0.4724E-02  0.1360E-03
     -7.741  0.3190E-01  0.2080E-02
     -7.680  0.5906E-01  0.5679E-02
     -7.619  0.4478E-01  0.8409E-02
     -7.558  0.4630E-01  0.1123E-01
     -7.497  0.8526E-01  0.1643E-01
     -7.436  0.8165E-01  0.2140E-01
     -7.375  0.2864E-01  0.2315E-01
     -7.314  0.1864E-01  0.2428E-01
     -7.253  0.8862E-01  0.2968E-01
     -7.192  0.1171E+00  0.3682E-01
     -7.131  0.7962E-01  0.4167E-01
     -7.071  0.4637E-01  0.4450E-01
     -7.010  0.1137E-01  0.4519E-01
     -6.949  0.4560E-01  0.4797E-01
     -6.888  0.1551E+00  0.5742E-01
     -6.827  0.2631E+00  0.7345E-01
     -6.766  0.3908E+00  0.9727E-01
     -6.705  0.5758E+00  0.1324E+00
     -6.644  0.9791E+00  0.1920E+00
     -6.583  0.1450E+01  0.2804E+00
     -6.522  0.1677E+01  0.3826E+00
     -6.461  0.1820E+01  0.4935E+00
     -6.400  0.2111E+01  0.6221E+00
     -6.339  0.2424E+01  0.7698E+00
     -6.278  0.2375E+01  0.9146E+00
     -6.217  0.2051E+01  0.1040E+01
     -6.156  0.1719E+01  0.1144E+01
     -6.095  0.1323E+01  0.1225E+01
     -6.035  0.1168E+01  0.1296E+01
     -5.974  0.1228E+01  0.1371E+01
     -5.913  0.1159E+01  0.1442E+01
     -5.852  0.9548E+00  0.1500E+01
     -5.791  0.9105E+00  0.1555E+01
     -5.730  0.1449E+01  0.1644E+01
     -5.669  0.2019E+01  0.1767E+01
     -5.608  0.1909E+01  0.1883E+01
     -5.547  0.1990E+01  0.2004E+01
     -5.486  0.2532E+01  0.2159E+01
     -5.425  0.2653E+01  0.2320E+01
     -5.364  0.2037E+01  0.2444E+01
     -5.303  0.1838E+01  0.2556E+01
     -5.242  0.2445E+01  0.2705E+01
     -5.181  0.3005E+01  0.2889E+01
     -5.120  0.2966E+01  0.3069E+01
     -5.060  0.2270E+01  0.3208E+01
     -4.999  0.1605E+01  0.3305E+01
     -4.938  0.1416E+01  0.3392E+01
     -4.877  0.1491E+01  0.3483E+01
     -4.816  0.1617E+01  0.3581E+01
     -4.755  0.1639E+01  0.3681E+01
     -4.694  0.1795E+01  0.3790E+01
     -4.633  0.2375E+01  0.3935E+01
     -4.572  0.3173E+01  0.4129E+01
     -4.511  0.3461E+01  0.4339E+01
     -4.450  0.2791E+01  0.4510E+01
     -4.389  0.2041E+01  0.4634E+01
     -4.328  0.2055E+01  0.4759E+01
     -4.267  0.2129E+01  0.4889E+01
     -4.206  0.1878E+01  0.5003E+01
     -4.145  0.1938E+01  0.5121E+01
     -4.084  0.1975E+01  0.5242E+01
     -4.024  0.1839E+01  0.5354E+01
     -3.963  0.2547E+01  0.5509E+01
     -3.902  0.3409E+01  0.5717E+01
     -3.841  0.2883E+01  0.5892E+01
     -3.780  0.2063E+01  0.6018E+01
     -3.719  0.1720E+01  0.6123E+01
     -3.658  0.1024E+01  0.6185E+01
     -3.597  0.3283E+00  0.6205E+01
     -3.536  0.1341E+00  0.6214E+01
     -3.475  0.1409E+00  0.6222E+01
     -3.414  0.9099E-01  0.6228E+01
     -3.353  0.5076E-01  0.6231E+01
     -3.292  0.1319E-01  0.6232E+01
     -3.231  0.1688E-01  0.6233E+01
     -3.170  0.1098E+00  0.6239E+01
     -3.109  0.2009E+00  0.6252E+01
     -3.048  0.2652E+00  0.6268E+01
     -2.988  0.3337E+00  0.6288E+01
     -2.927  0.2830E+00  0.6305E+01
     -2.866  0.1291E+00  0.6313E+01
     -2.805  0.1555E-01  0.6314E+01
     -2.744 -0.1925E-01  0.6313E+01
     -2.683  0.9644E-02  0.6314E+01
     -2.622  0.1395E+00  0.6322E+01
     -2.561  0.2423E+00  0.6337E+01
     -2.500  0.1945E+00  0.6349E+01
     -2.439  0.1197E+00  0.6356E+01
     -2.378  0.4013E-01  0.6358E+01
     -2.317 -0.1038E-01  0.6358E+01
     -2.256 -0.4253E-02  0.6358E+01
     -2.195  0.7861E-01  0.6362E+01
     -2.134  0.2490E+00  0.6377E+01
     -2.073  0.3330E+00  0.6398E+01
     -2.012  0.1886E+00  0.6409E+01
     -1.952  0.5382E-01  0.6413E+01
     -1.891  0.1608E+00  0.6422E+01
     -1.830  0.3553E+00  0.6444E+01
     -1.769  0.3203E+00  0.6464E+01
     -1.708  0.1194E+00  0.6471E+01
     -1.647  0.8839E-01  0.6476E+01
     -1.586  0.1940E+00  0.6488E+01
     -1.525  0.1620E+00  0.6498E+01
     -1.464  0.7458E-01  0.6502E+01
     -1.403  0.9610E-01  0.6508E+01
     -1.342  0.8850E-01  0.6514E+01
     -1.281  0.4733E-01  0.6517E+01
     -1.220  0.7592E-01  0.6521E+01
     -1.159  0.1544E+00  0.6531E+01
     -1.098  0.2704E+00  0.6547E+01
     -1.037  0.2804E+00  0.6564E+01
     -0.977  0.1812E+00  0.6575E+01
     -0.916  0.2447E+00  0.6590E+01
     -0.855  0.3406E+00  0.6611E+01
     -0.794  0.2470E+00  0.6626E+01
     -0.733  0.1842E+00  0.6637E+01
     -0.672  0.2581E+00  0.6653E+01
     -0.611  0.2996E+00  0.6671E+01
     -0.550  0.2572E+00  0.6687E+01
     -0.489  0.1421E+00  0.6695E+01
     -0.428  0.2775E-01  0.6697E+01
     -0.367  0.7531E-02  0.6698E+01
     -0.306  0.7751E-01  0.6702E+01
     -0.245  0.1491E+00  0.6711E+01
     -0.184  0.1133E+00  0.6718E+01
     -0.123  0.7836E-01  0.6723E+01
     -0.062  0.1385E+00  0.6732E+01
     -0.001  0.1959E+00  0.6743E+01
      0.059  0.2811E+00  0.6761E+01
      0.120  0.4118E+00  0.6786E+01
      0.181  0.4840E+00  0.6815E+01
      0.242  0.4776E+00  0.6844E+01
      0.303  0.3668E+00  0.6867E+01
      0.364  0.1978E+00  0.6879E+01
      0.425  0.8095E-01  0.6884E+01
      0.486  0.3951E-01  0.6886E+01
      0.547  0.9524E-01  0.6892E+01
      0.608  0.2029E+00  0.6904E+01
      0.669  0.2413E+00  0.6919E+01
      0.730  0.2366E+00  0.6933E+01
      0.791  0.1777E+00  0.6944E+01
      0.852  0.1349E+00  0.6952E+01
      0.913  0.1294E+00  0.6960E+01
      0.974  0.5623E-01  0.6964E+01
      1.035  0.5866E-02  0.6964E+01
      1.095  0.9636E-01  0.6970E+01
      1.156  0.2869E+00  0.6987E+01
      1.217  0.4123E+00  0.7013E+01
      1.278  0.3411E+00  0.7033E+01
      1.339  0.2732E+00  0.7050E+01
      1.400  0.3257E+00  0.7070E+01
      1.461  0.3446E+00  0.7091E+01
      1.522  0.3778E+00  0.7114E+01
      1.583  0.3719E+00  0.7137E+01
      1.644  0.1906E+00  0.7148E+01
      1.705  0.2040E-01  0.7149E+01
      1.766  0.6409E-01  0.7153E+01
      1.827  0.2474E+00  0.7168E+01
      1.888  0.2827E+00  0.7186E+01
      1.949  0.1282E+00  0.7193E+01
      2.010  0.4063E-01  0.7196E+01
      2.071  0.9440E-01  0.7202E+01
      2.131  0.9465E-01  0.7207E+01
      2.192  0.1748E-01  0.7208E+01
      2.253  0.2007E-01  0.7210E+01
      2.314  0.1171E+00  0.7217E+01
      2.375  0.1992E+00  0.7229E+01
      2.436  0.2205E+00  0.7242E+01
      2.497  0.1524E+00  0.7252E+01
      2.558  0.1049E+00  0.7258E+01
      2.619  0.1692E+00  0.7268E+01
      2.680  0.1983E+00  0.7280E+01
      2.741  0.1852E+00  0.7292E+01
      2.802  0.2202E+00  0.7305E+01
      2.863  0.2502E+00  0.7320E+01
      2.924  0.1834E+00  0.7332E+01
      2.985  0.1263E+00  0.7339E+01
      3.046  0.7117E-01  0.7344E+01
      3.106  0.6496E-01  0.7348E+01
      3.167  0.1948E+00  0.7359E+01
      3.228  0.2666E+00  0.7376E+01
      3.289  0.2076E+00  0.7388E+01
      3.350  0.2326E+00  0.7403E+01
      3.411  0.2632E+00  0.7419E+01
      3.472  0.3561E+00  0.7440E+01
      3.533  0.5224E+00  0.7472E+01
      3.594  0.4800E+00  0.7501E+01
      3.655  0.3091E+00  0.7520E+01
      3.716  0.2975E+00  0.7538E+01
      3.777  0.4008E+00  0.7563E+01
      3.838  0.4372E+00  0.7589E+01
      3.899  0.4589E+00  0.7617E+01
      3.960  0.4336E+00  0.7644E+01
      4.021  0.4447E+00  0.7671E+01
      4.082  0.6112E+00  0.7708E+01
      4.142  0.6093E+00  0.7745E+01
      4.203  0.2589E+00  0.7761E+01
      4.264  0.4801E-01  0.7764E+01
      4.325  0.3508E+00  0.7785E+01
      4.386  0.8226E+00  0.7835E+01
      4.447  0.8208E+00  0.7886E+01
      4.508  0.4181E+00  0.7911E+01
      4.569  0.1891E+00  0.7923E+01
      4.630  0.3432E+00  0.7943E+01
      4.691  0.4925E+00  0.7973E+01
      4.752  0.3996E+00  0.7998E+01
      4.813  0.3071E+00  0.8017E+01
      4.874  0.4924E+00  0.8047E+01
      4.935  0.6994E+00  0.8089E+01
      4.996  0.5660E+00  0.8124E+01
      5.057  0.3542E+00  0.8145E+01
      5.118  0.3566E+00  0.8167E+01
      5.178  0.4196E+00  0.8193E+01
      5.239  0.4556E+00  0.8220E+01
      5.300  0.5498E+00  0.8254E+01
      5.361  0.6106E+00  0.8291E+01
      5.422  0.5501E+00  0.8325E+01
      5.483  0.4372E+00  0.8351E+01
      5.544  0.5071E+00  0.8382E+01
      5.605  0.6839E+00  0.8424E+01
      5.666  0.7805E+00  0.8471E+01
      5.727  0.7640E+00  0.8518E+01
      5.788  0.7125E+00  0.8561E+01
      5.849  0.5671E+00  0.8596E+01
      5.910  0.4077E+00  0.8621E+01
      5.971  0.4385E+00  0.8647E+01
      6.032  0.4665E+00  0.8676E+01
      6.093  0.2809E+00  0.8693E+01
      6.153  0.1914E+00  0.8705E+01
      6.214  0.3723E+00  0.8727E+01
      6.275  0.4905E+00  0.8757E+01
      6.336  0.5032E+00  0.8788E+01
      6.397  0.6215E+00  0.8826E+01
      6.458  0.6828E+00  0.8867E+01
      6.519  0.5590E+00  0.8901E+01
      6.580  0.3557E+00  0.8923E+01
      6.641  0.3027E+00  0.8942E+01
      6.702  0.3937E+00  0.8966E+01
      6.763  0.3818E+00  0.8989E+01
      6.824  0.5075E+00  0.9020E+01
      6.885  0.6717E+00  0.9061E+01
      6.946  0.6173E+00  0.9098E+01
      7.007  0.5779E+00  0.9134E+01
      7.068  0.6921E+00  0.9176E+01
      7.129  0.8059E+00  0.9225E+01
      7.189  0.7685E+00  0.9272E+01
      7.250  0.7914E+00  0.9320E+01
      7.311  0.8081E+00  0.9369E+01
      7.372  0.6385E+00  0.9408E+01
      7.433  0.5674E+00  0.9443E+01
      7.494  0.4951E+00  0.9473E+01
      7.555  0.4085E+00  0.9498E+01
      7.616  0.4990E+00  0.9528E+01
      7.677  0.4571E+00  0.9556E+01
      7.738  0.2449E+00  0.9571E+01
      7.799  0.1381E+00  0.9579E+01
      7.860  0.9161E-01  0.9585E+01
      7.921  0.6177E-01  0.9589E+01
      7.982  0.3779E-01  0.9591E+01
      8.043  0.1620E-01  0.9592E+01
      8.104  0.4269E-01  0.9594E+01
      8.165  0.5482E-01  0.9598E+01
      8.225  0.1938E-01  0.9599E+01
      8.286 -0.2000E-02  0.9599E+01
      8.347 -0.2246E-02  0.9599E+01
      8.408 -0.2225E-03  0.9599E+01
      8.469  0.4804E-02  0.9599E+01
      8.530  0.9883E-02  0.9600E+01
      8.591  0.6069E-02  0.9600E+01
      8.652  0.5147E-03  0.9600E+01
      8.713 -0.4633E-03  0.9600E+01
      8.774 -0.1152E-03  0.9600E+01
      8.835 -0.9437E-05  0.9600E+01
      8.896 -0.3226E-06  0.9600E+01
      8.957 -0.4913E-08  0.9600E+01
      9.018 -0.3422E-10  0.9600E+01
      9.079 -0.1105E-12  0.9600E+01
      9.140 -0.1664E-15  0.9600E+01
      9.201  0.0000E+00  0.9600E+01
      9.261  0.0000E+00  0.9600E+01
      9.322  0.0000E+00  0.9600E+01
      9.383  0.0000E+00  0.9600E+01
      9.444  0.0000E+00  0.9600E+01
      9.505  0.0000E+00  0.9600E+01
