       N       E                     dE             d eps       ncg     rms          rms(c)
DAV:   1     0.676405980912E+03    0.67641E+03   -0.49947E+04  2304   0.926E+02
DAV:   2    -0.123124893075E+02   -0.68872E+03   -0.65531E+03  2568   0.219E+02
DAV:   3    -0.319226093849E+02   -0.19610E+02   -0.19424E+02  2856   0.396E+01
DAV:   4    -0.320902140174E+02   -0.16760E+00   -0.16759E+00  2808   0.399E+00
DAV:   5    -0.320926594274E+02   -0.24454E-02   -0.24454E-02  3072   0.425E-01    0.138E+01
DAV:   6    -0.298948403771E+02    0.21978E+01   -0.75637E+00  2640   0.112E+01    0.920E+00
DAV:   7    -0.298259388951E+02    0.68901E-01   -0.16284E-01  2760   0.123E+00    0.521E+00
DAV:   8    -0.298037851654E+02    0.22154E-01   -0.14383E-02  2544   0.389E-01    0.132E-01
DAV:   9    -0.298036122474E+02    0.17292E-03   -0.71019E-04  3000   0.102E-01    0.741E-02
DAV:  10    -0.298033769964E+02    0.23525E-03   -0.22983E-04  2328   0.739E-02    0.402E-02
DAV:  11    -0.298031923541E+02    0.18464E-03   -0.12840E-04  2112   0.429E-02    0.175E-02
DAV:  12    -0.298032390326E+02   -0.46679E-04   -0.24197E-05  2016   0.128E-02
   1 F= -.29803239E+02 E0= -.29801283E+02  d E =-.298032E+02
       N       E                     dE             d eps       ncg     rms          rms(c)
DAV:   1    -0.298044848326E+02   -0.12925E-02   -0.48405E-01  2520   0.183E+00    0.446E-02
DAV:   2    -0.298048564227E+02   -0.37159E-03   -0.29348E-03  2712   0.223E-01    0.304E-02
DAV:   3    -0.298049184852E+02   -0.62062E-04   -0.49733E-05  1800   0.327E-02
   2 F= -.29804918E+02 E0= -.29802927E+02  d E =-.167945E-02
       N       E                     dE             d eps       ncg     rms          rms(c)
DAV:   1    -0.298058396154E+02   -0.98319E-03   -0.31225E+00  2304   0.464E+00    0.117E-01
DAV:   2    -0.298077510212E+02   -0.19114E-02   -0.19059E-02  2736   0.567E-01    0.728E-02
DAV:   3    -0.298077581038E+02   -0.70826E-05   -0.35331E-04  2544   0.859E-02
   3 F= -.29807758E+02 E0= -.29805663E+02  d E =-.451907E-02
       N       E                     dE             d eps       ncg     rms          rms(c)
DAV:   1    -0.298080192890E+02   -0.26827E-03   -0.52379E-02  2592   0.602E-01    0.213E-02
DAV:   2    -0.298080673407E+02   -0.48052E-04   -0.33294E-04  2664   0.741E-02
   4 F= -.29808067E+02 E0= -.29805953E+02  d E =-.309237E-03
       N       E                     dE             d eps       ncg     rms          rms(c)
DAV:   1    -0.298084552351E+02   -0.43595E-03   -0.46620E-01  2328   0.179E+00    0.512E-02
DAV:   2    -0.298087437876E+02   -0.28855E-03   -0.28441E-03  2712   0.221E-01    0.325E-02
DAV:   3    -0.298087461062E+02   -0.23187E-05   -0.50534E-05  1680   0.350E-02
   5 F= -.29808746E+02 E0= -.29806621E+02  d E =-.988002E-03
