 vasp.5.4.1 05Feb16 (build Feb 08 2018 09:21:51) complex                        
  
 executed on             LinuxIFC date 2019.11.21  23:19:11
 running on   24 total cores
 distrk:  each k-point on   24 cores,    1 groups
 distr:  one band on NCORES_PER_BAND=   1 cores,   24 groups


--------------------------------------------------------------------------------------------------------


 INCAR:
 POTCAR:    PAW_PBE Ag 02Apr2005                  

 ----------------------------------------------------------------------------- 
|                                                                             |
|           W    W    AA    RRRRR   N    N  II  N    N   GGGG   !!!           |
|           W    W   A  A   R    R  NN   N  II  NN   N  G    G  !!!           |
|           W    W  A    A  R    R  N N  N  II  N N  N  G       !!!           |
|           W WW W  AAAAAA  RRRRR   N  N N  II  N  N N  G  GGG   !            |
|           WW  WW  A    A  R   R   N   NN  II  N   NN  G    G                |
|           W    W  A    A  R    R  N    N  II  N    N   GGGG   !!!           |
|                                                                             |
|      For optimal performance we recommend to set                            |
|        NCORE= 4 - approx SQRT( number of cores)                             |
|      NCORE specifies how many cores store one orbital (NPAR=cpu/NCORE).     |
|      This setting can  greatly improve the performance of VASP for DFT.     |
|      The default, NPAR=number of cores might be grossly inefficient         |
|      on modern multi-core architectures or massively parallel machines.     |
|      Do your own testing !!!!                                               |
|      Unfortunately you need to use the default for GW and RPA calculations. |
|      (for HF NCORE is supported but not extensively tested yet)             |
|                                                                             |
 ----------------------------------------------------------------------------- 

 POTCAR:    PAW_PBE Ag 02Apr2005                  
   VRHFIN =Ag : s1 d10                                                          
   LEXCH  = PE                                                                  
   EATOM  =  1037.2675 eV,   76.2370 Ry                                         
                                                                                
   TITEL  = PAW_PBE Ag 02Apr2005                                                
   LULTRA =        F    use ultrasoft PP ?                                      
   IUNSCR =        1    unscreen: 0-lin 1-nonlin 2-no                           
   RPACOR =    2.000    partial core radius                                     
   POMASS =  107.868; ZVAL   =   11.000    mass and valenz                      
   RCORE  =    2.500    outmost cutoff radius                                   
   RWIGS  =    2.840; RWIGS  =    1.503    wigner-seitz radius (au A)           
   ENMAX  =  249.844; ENMIN  =  187.383 eV                                      
   ICORE  =        3    local potential                                         
   LCOR   =        T    correct aug charges                                     
   LPAW   =        T    paw PP                                                  
   EAUG   =  412.496                                                            
   DEXC   =    0.000                                                            
   RMAX   =    2.560    core radius for proj-oper                               
   RAUG   =    1.300    factor for augmentation sphere                          
   RDEP   =    2.576    radius for radial grids                                 
   RDEPT  =    2.072    core radius for aug-charge                              
                                                                                
   Atomic configuration                                                         
   12 entries                                                                   
     n  l   j            E        occ.                                          
     1  0  0.50    -25324.9161   2.0000                                         
     2  0  0.50     -3728.5341   2.0000                                         
     2  1  1.50     -3344.0404   6.0000                                         
     3  0  0.50      -683.5581   2.0000                                         
     3  1  1.50      -557.3225   6.0000                                         
     3  2  2.50      -358.3853  10.0000                                         
     4  0  0.50       -95.0341   2.0000                                         
     4  1  1.50       -58.5511   6.0000                                         
     4  2  2.50        -7.4440  10.0000                                         
     5  0  0.50        -4.4045   1.0000                                         
     5  1  0.50        -1.3606   0.0000                                         
     4  3  2.50        -1.3606   0.0000                                         
   Description                                                                  
     l       E           TYP  RCUT    TYP  RCUT                                 
     2     -7.4439781     23  2.400                                             
     2     -8.8045607     23  2.400                                             
     0     -4.4044681     23  2.400                                             
     0      1.9520038     23  2.400                                             
     1     -1.3605826     23  2.500                                             
     1     27.2116520     23  2.500                                             
     3     -4.0817478     23  2.400                                             
  local pseudopotential read in
  partial core-charges read in
  partial kinetic energy density read in
  atomic valenz-charges read in
  non local Contribution for L=           2  read in
    real space projection operators read in
  non local Contribution for L=           2  read in
    real space projection operators read in
  non local Contribution for L=           0  read in
    real space projection operators read in
  non local Contribution for L=           0  read in
    real space projection operators read in
  non local Contribution for L=           1  read in
    real space projection operators read in
  non local Contribution for L=           1  read in
    real space projection operators read in
    PAW grid and wavefunctions read in
 
   number of l-projection  operators is LMAX  =           6
   number of lm-projection operators is LMMAX =          18
 
  PAW_PBE Ag 02Apr2005                  :
 energy of atom  1       EATOM=-1037.2675
 kinetic energy error for atom=    0.0091 (will be added to EATOM!!)
 
 
 POSCAR: Ag                                      
  positions in cartesian coordinates
  No initial velocities read in
 exchange correlation table for  LEXCH =        8
   RHO(1)=    0.500       N(1)  =     2000
   RHO(2)=  100.500       N(2)  =     4000
 


--------------------------------------------------------------------------------------------------------


 ion  position               nearest neighbor table
   1  0.167  0.167  0.403-   8 2.93   5 2.93   3 2.93   3 2.93   4 2.93   4 2.93   2 2.93   2 2.93
                             6 2.93
   2  0.667  0.167  0.403-   7 2.93   6 2.93   4 2.93   3 2.93   4 2.93   3 2.93   1 2.93   1 2.93
                             5 2.93
   3  0.167  0.667  0.403-   6 2.93   7 2.93   1 2.93   1 2.93   2 2.93   2 2.93   4 2.93   4 2.93
                             8 2.93
   4  0.667  0.667  0.403-   5 2.93   8 2.93   2 2.93   1 2.93   2 2.93   1 2.93   3 2.93   3 2.93
                             7 2.93
   5  0.833  0.333  0.500-   4 2.93   1 2.93  11 2.93   7 2.93   7 2.93   8 2.93   8 2.93   6 2.93
                             6 2.93   9 2.93  12 2.93   2 2.93
   6  0.333  0.333  0.500-   3 2.93   2 2.93  12 2.93   8 2.93   7 2.93   8 2.93   7 2.93   5 2.93
                             5 2.93  11 2.93  10 2.93   1 2.93
   7  0.833  0.833  0.500-   2 2.93   3 2.93   9 2.93   5 2.93   5 2.93   6 2.93   6 2.93   8 2.93
                             8 2.93  10 2.93  11 2.93   4 2.93
   8  0.333  0.833  0.500-   1 2.93   4 2.93  10 2.93   6 2.93   5 2.93   6 2.93   5 2.93   7 2.93
                             7 2.93   9 2.93  12 2.93   3 2.93
   9  0.000  0.000  0.597-   7 2.93  11 2.93  11 2.93  12 2.93  12 2.93  10 2.93  10 2.93   5 2.93
                             8 2.93
  10  0.500  0.000  0.597-   8 2.93  12 2.93  11 2.93  12 2.93  11 2.93   9 2.93   9 2.93   7 2.93
                             6 2.93
  11  0.000  0.500  0.597-   5 2.93   9 2.93   9 2.93  10 2.93  10 2.93  12 2.93  12 2.93   6 2.93
                             7 2.93
  12  0.500  0.500  0.597-   6 2.93  10 2.93   9 2.93  10 2.93   9 2.93  11 2.93  11 2.93   5 2.93
                             8 2.93
 
  LATTYP: Found a hexagonal cell.
 ALAT       =     5.8647436432
 C/A-ratio  =     4.2267053159
  
  Lattice vectors:
  
 A1 = (   2.9323718216,  -5.0790169817,   0.0000000000)
 A2 = (  -5.8647436432,   0.0000000000,   0.0000000000)
 A3 = (   0.0000000000,   0.0000000000, -24.7885431327)


Analysis of symmetry for initial positions (statically):
=====================================================================
 Subroutine PRICEL returns following result:
 
  LATTYP: Found a hexagonal cell.
 ALAT       =     2.9323718216
 C/A-ratio  =     8.4534106317
  
  Lattice vectors:
  
 A1 = (   1.4661859108,  -2.5395084908,   0.0000000000)
 A2 = (  -2.9323718216,   0.0000000000,   0.0000000000)
 A3 = (   0.0000000000,   0.0000000000, -24.7885431327)
 
   4 primitive cells build up your supercell.
 

 Routine SETGRP: Setting up the symmetry group for a 
 hexagonal supercell.


 Subroutine GETGRP returns: Found 12 space group operations
 (whereof  6 operations were pure point group operations)
 out of a pool of 24 trial point group operations.


The static configuration has the point symmetry C_3v.
 The point group associated with its full space group is D_3d.


Analysis of symmetry for dynamics (positions and initial velocities):
=====================================================================
 Subroutine PRICEL returns following result:
 
  LATTYP: Found a hexagonal cell.
 ALAT       =     2.9323718216
 C/A-ratio  =     8.4534106317
  
  Lattice vectors:
  
 A1 = (   1.4661859108,  -2.5395084908,   0.0000000000)
 A2 = (  -2.9323718216,   0.0000000000,   0.0000000000)
 A3 = (   0.0000000000,   0.0000000000, -24.7885431327)
 
   4 primitive cells build up your supercell.
 

 Routine SETGRP: Setting up the symmetry group for a 
 hexagonal supercell.


 Subroutine GETGRP returns: Found 12 space group operations
 (whereof  6 operations were pure point group operations)
 out of a pool of 24 trial point group operations.


The dynamic configuration has the point symmetry C_3v.
 The point group associated with its full space group is D_3d.


 Subroutine INISYM returns: Found 12 space group operations
 (whereof  6 operations are pure point group operations),
 and found     4 'primitive' translations

 
 
 KPOINTS: KPOINTS created by Atomic Simulation Env

Automatic generation of k-mesh.
Space group operators:
 irot       det(A)        alpha          n_x          n_y          n_z        tau_x        tau_y        tau_z
    1     1.000000     0.000001     1.000000     0.000000     0.000000     0.000000     0.000000     0.000000
    2     1.000000   120.000000     0.000000     0.000000     1.000000     0.000000     0.000000     0.000000
    3     1.000000   120.000000     0.000000     0.000000    -1.000000     0.000000     0.000000     0.000000
    4    -1.000000   180.000000     0.500000    -0.866025     0.000000     0.000000     0.000000     0.000000
    5    -1.000000   179.999999     1.000000     0.000000     0.000000     0.000000     0.000000     0.000000
    6    -1.000000   180.000000    -0.500000    -0.866025     0.000000     0.000000     0.000000     0.000000
    7    -1.000000     0.000001     1.000000     0.000000     0.000000     0.166667    -0.333333     0.000000
    8    -1.000000   120.000000     0.000000     0.000000     1.000000     0.166667    -0.333333     0.000000
    9    -1.000000   120.000000     0.000000     0.000000    -1.000000     0.166667    -0.333333     0.000000
   10     1.000000   180.000000     0.500000    -0.866025     0.000000     0.166667    -0.333333     0.000000
   11     1.000000   179.999999     1.000000     0.000000     0.000000     0.166667    -0.333333     0.000000
   12     1.000000   180.000000    -0.500000    -0.866025     0.000000     0.166667    -0.333333     0.000000
 
 Subroutine IBZKPT returns following result:
 ===========================================
 
 Found     12 irreducible k-points:
 
 Following reciprocal coordinates:
            Coordinates               Weight
  0.000000  0.000000  0.000000      1.000000
  0.111111  0.000000  0.000000      6.000000
  0.222222  0.000000  0.000000      6.000000
  0.333333  0.000000  0.000000      6.000000
  0.444444  0.000000  0.000000      6.000000
  0.222222  0.111111  0.000000      6.000000
  0.333333  0.111111  0.000000     12.000000
  0.444444  0.111111  0.000000     12.000000
 -0.444444  0.111111  0.000000      6.000000
  0.444444  0.222222  0.000000      6.000000
 -0.444444  0.222222  0.000000     12.000000
 -0.333333  0.333333  0.000000      2.000000
 
 Following cartesian coordinates:
            Coordinates               Weight
  0.000000  0.000000  0.000000      1.000000
  0.018946 -0.010938  0.000000      6.000000
  0.037891 -0.021876  0.000000      6.000000
  0.056837 -0.032815  0.000000      6.000000
  0.075782 -0.043753  0.000000      6.000000
  0.037891 -0.000000  0.000000      6.000000
  0.056837 -0.010938  0.000000     12.000000
  0.075782 -0.021876  0.000000     12.000000
 -0.075782  0.065629  0.000000      6.000000
  0.075782  0.000000  0.000000      6.000000
 -0.075782  0.087506  0.000000     12.000000
 -0.056837  0.098444  0.000000      2.000000
 


--------------------------------------------------------------------------------------------------------




 Dimension of arrays:
   k-points           NKPTS =     12   k-points in BZ     NKDIM =     12   number of bands    NBANDS=     96
   number of dos      NEDOS =    301   number of ions     NIONS =     12
   non local maximal  LDIM  =      6   non local SUM 2l+1 LMDIM =     18
   total plane-waves  NPLWV = 113400
   max r-space proj   IRMAX =      1   max aug-charges    IRDMAX=   7750
   dimension x,y,z NGX =    30 NGY =   30 NGZ =  126
   dimension x,y,z NGXF=    60 NGYF=   60 NGZF=  252
   support grid    NGXF=    60 NGYF=   60 NGZF=  252
   ions per type =              12
 NGX,Y,Z   is equivalent  to a cutoff of   8.50,  8.50,  8.45 a.u.
 NGXF,Y,Z  is equivalent  to a cutoff of  17.01, 17.01, 16.90 a.u.


 I would recommend the setting:
   dimension x,y,z NGX =    29 NGY =   29 NGZ =  121
 SYSTEM =  unknown system                          
 POSCAR =  Ag                                      

 Startparameter for this run:
   NWRITE =      2    write-flag & timer
   PREC   = normal    normal or accurate (medium, high low for compatibility)
   ISTART =      0    job   : 0-new  1-cont  2-samecut
   ICHARG =      2    charge: 1-file 2-atom 10-const
   ISPIN  =      1    spin polarized calculation?
   LNONCOLLINEAR =      F non collinear calculations
   LSORBIT =      F    spin-orbit coupling
   INIWAV =      1    electr: 0-lowe 1-rand  2-diag
   LASPH  =      F    aspherical Exc in radial PAW
   METAGGA=      F    non-selfconsistent MetaGGA calc.

 Electronic Relaxation 1
   ENCUT  =  400.0 eV  29.40 Ry    5.42 a.u.   9.56  9.56 40.42*2*pi/ulx,y,z
   ENINI  =  400.0     initial cutoff
   ENAUG  =  412.5 eV  augmentation charge cutoff
   NELM   =     60;   NELMIN=  2; NELMDL= -5     # of ELM steps 
   EDIFF  = 0.1E-03   stopping-criterion for ELM
   LREAL  =      F    real-space projection
   NLSPLINE    = F    spline interpolate recip. space projectors
   LCOMPAT=      F    compatible to vasp.4.4
   GGA_COMPAT  = T    GGA compatible to vasp.4.4-vasp.4.6
   LMAXPAW     = -100 max onsite density
   LMAXMIX     =    2 max onsite mixed and CHGCAR
   VOSKOWN=      0    Vosko Wilk Nusair interpolation
   ROPT   =    0.00000
 Ionic relaxation
   EDIFFG = 0.1E-02   stopping-criterion for IOM
   NSW    =     20    number of steps for IOM
   NBLOCK =      1;   KBLOCK =     20    inner block; outer block 
   IBRION =      2    ionic relax: 0-MD 1-quasi-New 2-CG
   NFREE  =      1    steps in history (QN), initial steepest desc. (CG)
   ISIF   =      2    stress and relaxation
   IWAVPR =     11    prediction:  0-non 1-charg 2-wave 3-comb
   ISYM   =      2    0-nonsym 1-usesym 2-fastsym
   LCORR  =      T    Harris-Foulkes like correction to forces

   POTIM  = 0.5000    time-step for ionic-motion
   TEIN   =    0.0    initial temperature
   TEBEG  =    0.0;   TEEND  =   0.0 temperature during run
   SMASS  =  -3.00    Nose mass-parameter (am)
   estimated Nose-frequenzy (Omega)   =  0.10E-29 period in steps =****** mass=  -0.786E-27a.u.
   SCALEE = 1.0000    scale energy and forces
   NPACO  =    256;   APACO  = 16.0  distance and # of slots for P.C.
   PSTRESS=    0.0 pullay stress

  Mass of Ions in am
   POMASS = 107.87
  Ionic Valenz
   ZVAL   =  11.00
  Atomic Wigner-Seitz radii
   RWIGS  =  -1.00
  virtual crystal weights 
   VCA    =   1.00
   NELECT =     132.0000    total number of electrons
   NUPDOWN=      -1.0000    fix difference up-down

 DOS related values:
   EMIN   =  10.00;   EMAX   =-10.00  energy-range for DOS
   EFERMI =   0.00
   ISMEAR =     1;   SIGMA  =   0.10  broadening in eV -4-tet -1-fermi 0-gaus

 Electronic relaxation 2 (details)
   IALGO  =     38    algorithm
   LDIAG  =      T    sub-space diagonalisation (order eigenvalues)
   LSUBROT=      F    optimize rotation matrix (better conditioning)
   TURBO    =      0    0=normal 1=particle mesh
   IRESTART =      0    0=no restart 2=restart with 2 vectors
   NREBOOT  =      0    no. of reboots
   NMIN     =      0    reboot dimension
   EREF     =   0.00    reference energy to select bands
   IMIX   =      4    mixing-type and parameters
     AMIX     =   0.40;   BMIX     =  1.00
     AMIX_MAG =   1.60;   BMIX_MAG =  1.00
     AMIN     =   0.10
     WC   =   100.;   INIMIX=   1;  MIXPRE=   1;  MAXMIX= -45

 Intra band minimization:
   WEIMIN = 0.0010     energy-eigenvalue tresh-hold
   EBREAK =  0.26E-06  absolut break condition
   DEPER  =   0.30     relativ break condition  

   TIME   =   0.40     timestep for ELM

  volume/ion in A,a.u.               =      61.53       415.24
  Fermi-wavevector in a.u.,A,eV,Ry     =   0.922231  1.742763 11.571884  0.850509
  Thomas-Fermi vector in A             =   2.047735
 
 Write flags
   LWAVE  =      F    write WAVECAR
   LCHARG =      F    write CHGCAR
   LVTOT  =      F    write LOCPOT, total local potential
   LVHAR  =      F    write LOCPOT, Hartree potential only
   LELF   =      F    write electronic localiz. function (ELF)
   LORBIT =      0    0 simple, 1 ext, 2 COOP (PROOUT)


 Dipole corrections
   LMONO  =      F    monopole corrections only (constant potential shift)
   LDIPOL =      F    correct potential (dipole corrections)
   IDIPOL =      0    1-x, 2-y, 3-z, 4-all directions 
   EPSILON=  1.0000000 bulk dielectric constant

 Exchange correlation treatment:
   GGA     =    --    GGA type
   LEXCH   =     8    internal setting for exchange type
   VOSKOWN=      0    Vosko Wilk Nusair interpolation
   LHFCALC =     F    Hartree Fock is set to
   LHFONE  =     F    Hartree Fock one center treatment
   AEXX    =    0.0000 exact exchange contribution

 Linear response parameters
   LEPSILON=     F    determine dielectric tensor
   LRPA    =     F    only Hartree local field effects (RPA)
   LNABLA  =     F    use nabla operator in PAW spheres
   LVEL    =     F    velocity operator in full k-point grid
   LINTERFAST=   F  fast interpolation
   KINTER  =     0    interpolate to denser k-point grid
   CSHIFT  =0.1000    complex shift for real part using Kramers Kronig
   OMEGAMAX=  -1.0    maximum frequency
   DEG_THRESHOLD= 0.2000000E-02 threshold for treating states as degnerate
   RTIME   =    0.100 relaxation time in fs

 Orbital magnetization related:
   ORBITALMAG=     F  switch on orbital magnetization
   LCHIMAG   =     F  perturbation theory with respect to B field
   DQ        =  0.001000  dq finite difference perturbation B field



--------------------------------------------------------------------------------------------------------


 conjugate gradient relaxation of ions
 charge density and potential will be updated during run
 non-spin polarized calculation
 Variant of blocked Davidson
 Davidson routine will perform the subspace rotation
 perform sub-space diagonalisation
    after iterative eigenvector-optimisation
 modified Broyden-mixing scheme, WC =      100.0
 initial mixing is a Kerker type mixing with AMIX =  0.4000 and BMIX =      1.0000
 Hartree-type preconditioning will be used
 using additional bands           30
 reciprocal scheme for non local part
 use partial core corrections
 calculate Harris-corrections to forces 
   (improved forces if not selfconsistent)
 use gradient corrections 
 use of overlap-Matrix (Vanderbilt PP)
 Methfessel and Paxton  Order N= 1 SIGMA  =   0.10


--------------------------------------------------------------------------------------------------------


  energy-cutoff  :      400.00
  volume of cell :      738.38
      direct lattice vectors                 reciprocal lattice vectors
     5.864743643  0.000000000  0.000000000     0.170510437 -0.098444247  0.000000000
     2.932371822  5.079016982  0.000000000     0.000000000  0.196888493  0.000000000
     0.000000000  0.000000000 24.788543133     0.000000000  0.000000000  0.040341217

  length of vectors
     5.864743643  5.864743643 24.788543133     0.196888493  0.196888493  0.040341217


 
 k-points in units of 2pi/SCALE and weight: KPOINTS created by Atomic Simulation Env
   0.00000000  0.00000000  0.00000000       0.012
   0.01894560 -0.01093825  0.00000000       0.074
   0.03789121 -0.02187650  0.00000000       0.074
   0.05683681 -0.03281475  0.00000000       0.074
   0.07578242 -0.04375300  0.00000000       0.074
   0.03789121 -0.00000000  0.00000000       0.074
   0.05683681 -0.01093825  0.00000000       0.148
   0.07578242 -0.02187650  0.00000000       0.148
  -0.07578242  0.06562950  0.00000000       0.074
   0.07578242  0.00000000  0.00000000       0.074
  -0.07578242  0.08750600  0.00000000       0.148
  -0.05683681  0.09844425  0.00000000       0.025
 
 k-points in reciprocal lattice and weights: KPOINTS created by Atomic Simulation Env
   0.00000000  0.00000000  0.00000000       0.012
   0.11111111  0.00000000  0.00000000       0.074
   0.22222222  0.00000000  0.00000000       0.074
   0.33333333  0.00000000  0.00000000       0.074
   0.44444444  0.00000000  0.00000000       0.074
   0.22222222  0.11111111  0.00000000       0.074
   0.33333333  0.11111111  0.00000000       0.148
   0.44444444  0.11111111  0.00000000       0.148
  -0.44444444  0.11111111  0.00000000       0.074
   0.44444444  0.22222222  0.00000000       0.074
  -0.44444444  0.22222222  0.00000000       0.148
  -0.33333333  0.33333333  0.00000000       0.025
 
 position of ions in fractional coordinates (direct lattice) 
   0.16666667  0.16666667  0.40341217
   0.66666667  0.16666667  0.40341217
   0.16666667  0.66666667  0.40341217
   0.66666667  0.66666667  0.40341217
   0.83333333  0.33333333  0.50000000
   0.33333333  0.33333333  0.50000000
   0.83333333  0.83333333  0.50000000
   0.33333333  0.83333333  0.50000000
   0.00000000  0.00000000  0.59658783
   0.50000000  0.00000000  0.59658783
   0.00000000  0.50000000  0.59658783
   0.50000000  0.50000000  0.59658783
 
 position of ions in cartesian coordinates  (Angst):
   1.46618591  0.84650283 10.00000000
   4.39855773  0.84650283 10.00000000
   2.93237182  3.38601132 10.00000000
   5.86474364  3.38601132 10.00000000
   5.86474364  1.69300566 12.39427157
   2.93237182  1.69300566 12.39427157
   7.33092955  4.23251415 12.39427157
   4.39855773  4.23251415 12.39427157
   0.00000000  0.00000000 14.78854313
   2.93237182  0.00000000 14.78854313
   1.46618591  2.53950849 14.78854313
   4.39855773  2.53950849 14.78854313
 


--------------------------------------------------------------------------------------------------------


 k-point  1 :   0.0000 0.0000 0.0000  plane waves:   13497
 k-point  2 :   0.1111 0.0000 0.0000  plane waves:   13483
 k-point  3 :   0.2222 0.0000 0.0000  plane waves:   13439
 k-point  4 :   0.3333 0.0000 0.0000  plane waves:   13402
 k-point  5 :   0.4444 0.0000 0.0000  plane waves:   13372
 k-point  6 :   0.2222 0.1111 0.0000  plane waves:   13449
 k-point  7 :   0.3333 0.1111 0.0000  plane waves:   13414
 k-point  8 :   0.4444 0.1111 0.0000  plane waves:   13388
 k-point  9 :  -0.4444 0.1111 0.0000  plane waves:   13372
 k-point 10 :   0.4444 0.2222 0.0000  plane waves:   13410
 k-point 11 :  -0.4444 0.2222 0.0000  plane waves:   13394
 k-point 12 :  -0.3333 0.3333 0.0000  plane waves:   13428

 maximum and minimum number of plane-waves per node :     13497    13372

 maximum number of plane-waves:     13497
 maximum index in each direction: 
   IXMAX=   10   IYMAX=    9   IZMAX=   40
   IXMIN=  -10   IYMIN=   -9   IZMIN=  -40

 WARNING: aliasing errors must be expected set NGX to  42 to avoid them
 WARNING: aliasing errors must be expected set NGY to  38 to avoid them
 WARNING: aliasing errors must be expected set NGZ to 162 to avoid them
 aliasing errors are usually negligible using standard VASP settings
 and one can safely disregard these warnings

 serial   3D FFT for wavefunctions
 parallel 3D FFT for charge:
    minimum data exchange during FFTs selected (reduces bandwidth)


 total amount of memory used by VASP on root node    75361. kBytes
========================================================================

   base      :      30000. kBytes
   nonl-proj :      25943. kBytes
   fftplans  :       1950. kBytes
   grid      :       6739. kBytes
   one-center:        186. kBytes
   wavefun   :      10543. kBytes
 
     INWAV:  cpu time    0.0000: real time    0.0001
 Broyden mixing: mesh for mixing (old mesh)
   NGX = 19   NGY = 19   NGZ = 81
  (NGX  = 60   NGY  = 60   NGZ  =252)
  gives a total of  29241 points

 initial charge density was supplied:
 charge density of overlapping atoms calculated
 number of electron     132.0000000 magnetization 
 keeping initial charge density in first step


--------------------------------------------------------------------------------------------------------


 Maximum index for augmentation-charges          582 (set IRDMAX)


--------------------------------------------------------------------------------------------------------


 First call to EWALD:  gamma=   0.196
 Maximum number of real-space cells 5x 5x 1
 Maximum number of reciprocal cells 2x 2x 7

 FEWALD executed in parallel
    FEWALD:  cpu time    0.0017: real time    0.0017


----------------------------------------- Iteration    1(   1)  ---------------------------------------


    POTLOK:  cpu time    0.0424: real time    0.0432
    SETDIJ:  cpu time    0.0045: real time    0.0051
     EDDAV:  cpu time    3.6803: real time    3.6821
       DOS:  cpu time    0.0010: real time    0.0011
    --------------------------------------------
      LOOP:  cpu time    3.7303: real time    3.7353

 eigenvalue-minimisations  :  2304
 total energy-change (2. order) : 0.6764060E+03  (-0.4994720E+04)
 number of electron     132.0000000 magnetization 
 augmentation part      132.0000000 magnetization 

 Free energy of the ion-electron system (eV)
  ---------------------------------------------------
  alpha Z        PSCENC =       165.88112482
  Ewald energy   TEWEN  =     46108.92656615
  -Hartree energ DENC   =    -58577.64777584
  -exchange      EXHF   =         0.00000000
  -V(xc)+E(xc)   XCENC  =      -129.51007930
  PAW double counting   =     12041.54579192   -11488.19129077
  entropy T*S    EENTRO =        -0.00213857
  eigenvalues    EBANDS =       108.30264200
  atomic energy  EATOM  =     12447.10114051
  Solvation  Ediel_sol  =         0.00000000
  ---------------------------------------------------
  free energy    TOTEN  =       676.40598091 eV

  energy without entropy =      676.40811948  energy(sigma->0) =      676.40669377


--------------------------------------------------------------------------------------------------------




----------------------------------------- Iteration    1(   2)  ---------------------------------------


     EDDAV:  cpu time    3.8523: real time    3.8539
       DOS:  cpu time    0.0007: real time    0.0007
    --------------------------------------------
      LOOP:  cpu time    3.8547: real time    3.8577

 eigenvalue-minimisations  :  2568
 total energy-change (2. order) :-0.6887185E+03  (-0.6553078E+03)
 number of electron     132.0000000 magnetization 
 augmentation part      132.0000000 magnetization 

 Free energy of the ion-electron system (eV)
  ---------------------------------------------------
  alpha Z        PSCENC =       165.88112482
  Ewald energy   TEWEN  =     46108.92656615
  -Hartree energ DENC   =    -58577.64777584
  -exchange      EXHF   =         0.00000000
  -V(xc)+E(xc)   XCENC  =      -129.51007930
  PAW double counting   =     12041.54579192   -11488.19129077
  entropy T*S    EENTRO =        -0.00598944
  eigenvalues    EBANDS =      -580.41197735
  atomic energy  EATOM  =     12447.10114051
  Solvation  Ediel_sol  =         0.00000000
  ---------------------------------------------------
  free energy    TOTEN  =       -12.31248931 eV

  energy without entropy =      -12.30649987  energy(sigma->0) =      -12.31049283


--------------------------------------------------------------------------------------------------------




----------------------------------------- Iteration    1(   3)  ---------------------------------------


     EDDAV:  cpu time    4.1638: real time    4.1873
       DOS:  cpu time    0.0009: real time    0.0009
    --------------------------------------------
      LOOP:  cpu time    4.1658: real time    4.2065

 eigenvalue-minimisations  :  2856
 total energy-change (2. order) :-0.1961012E+02  (-0.1942423E+02)
 number of electron     132.0000000 magnetization 
 augmentation part      132.0000000 magnetization 

 Free energy of the ion-electron system (eV)
  ---------------------------------------------------
  alpha Z        PSCENC =       165.88112482
  Ewald energy   TEWEN  =     46108.92656615
  -Hartree energ DENC   =    -58577.64777584
  -exchange      EXHF   =         0.00000000
  -V(xc)+E(xc)   XCENC  =      -129.51007930
  PAW double counting   =     12041.54579192   -11488.19129077
  entropy T*S    EENTRO =        -0.00153445
  eigenvalues    EBANDS =      -600.02655241
  atomic energy  EATOM  =     12447.10114051
  Solvation  Ediel_sol  =         0.00000000
  ---------------------------------------------------
  free energy    TOTEN  =       -31.92260938 eV

  energy without entropy =      -31.92107493  energy(sigma->0) =      -31.92209790


--------------------------------------------------------------------------------------------------------




----------------------------------------- Iteration    1(   4)  ---------------------------------------


     EDDAV:  cpu time    4.3556: real time    4.4118
       DOS:  cpu time    0.0007: real time    0.0007
    --------------------------------------------
      LOOP:  cpu time    4.3573: real time    4.4148

 eigenvalue-minimisations  :  2808
 total energy-change (2. order) :-0.1676046E+00  (-0.1675915E+00)
 number of electron     132.0000000 magnetization 
 augmentation part      132.0000000 magnetization 

 Free energy of the ion-electron system (eV)
  ---------------------------------------------------
  alpha Z        PSCENC =       165.88112482
  Ewald energy   TEWEN  =     46108.92656615
  -Hartree energ DENC   =    -58577.64777584
  -exchange      EXHF   =         0.00000000
  -V(xc)+E(xc)   XCENC  =      -129.51007930
  PAW double counting   =     12041.54579192   -11488.19129077
  entropy T*S    EENTRO =        -0.00156898
  eigenvalues    EBANDS =      -600.19412252
  atomic energy  EATOM  =     12447.10114051
  Solvation  Ediel_sol  =         0.00000000
  ---------------------------------------------------
  free energy    TOTEN  =       -32.09021402 eV

  energy without entropy =      -32.08864504  energy(sigma->0) =      -32.08969102


--------------------------------------------------------------------------------------------------------




----------------------------------------- Iteration    1(   5)  ---------------------------------------


     EDDAV:  cpu time    4.4170: real time    4.4417
       DOS:  cpu time    0.0007: real time    0.0007
    CHARGE:  cpu time    0.1365: real time    0.1365
    MIXING:  cpu time    0.0015: real time    0.0016
    --------------------------------------------
      LOOP:  cpu time    4.5569: real time    4.5948

 eigenvalue-minimisations  :  3072
 total energy-change (2. order) :-0.2445410E-02  (-0.2445378E-02)
 number of electron     132.0000343 magnetization 
 augmentation part       61.4316964 magnetization 

 Broyden mixing:
  rms(total) = 0.13751E+01    rms(broyden)= 0.13751E+01
  rms(prec ) = 0.14175E+01
  weight for this iteration     100.00

 Free energy of the ion-electron system (eV)
  ---------------------------------------------------
  alpha Z        PSCENC =       165.88112482
  Ewald energy   TEWEN  =     46108.92656615
  -Hartree energ DENC   =    -58577.64777584
  -exchange      EXHF   =         0.00000000
  -V(xc)+E(xc)   XCENC  =      -129.51007930
  PAW double counting   =     12041.54579192   -11488.19129077
  entropy T*S    EENTRO =        -0.00157445
  eigenvalues    EBANDS =      -600.19656246
  atomic energy  EATOM  =     12447.10114051
  Solvation  Ediel_sol  =         0.00000000
  ---------------------------------------------------
  free energy    TOTEN  =       -32.09265943 eV

  energy without entropy =      -32.09108497  energy(sigma->0) =      -32.09213461


--------------------------------------------------------------------------------------------------------




----------------------------------------- Iteration    1(   6)  ---------------------------------------


    POTLOK:  cpu time    0.0308: real time    0.0308
    SETDIJ:  cpu time    0.0044: real time    0.0044
     EDDAV:  cpu time    3.8655: real time    3.8663
       DOS:  cpu time    0.0009: real time    0.0009
    CHARGE:  cpu time    0.1560: real time    0.1561
    MIXING:  cpu time    0.0015: real time    0.0015
    --------------------------------------------
      LOOP:  cpu time    4.0602: real time    4.0658

 eigenvalue-minimisations  :  2640
 total energy-change (2. order) : 0.2197819E+01  (-0.7563715E+00)
 number of electron     132.0000354 magnetization 
 augmentation part       63.0982574 magnetization 

 Broyden mixing:
  rms(total) = 0.92010E+00    rms(broyden)= 0.92008E+00
  rms(prec ) = 0.92253E+00
  weight for this iteration     100.00

 eigenvalues of (default mixing * dielectric matrix)
  average eigenvalue GAMMA=   1.1531
  1.1531

 Free energy of the ion-electron system (eV)
  ---------------------------------------------------
  alpha Z        PSCENC =       165.88112482
  Ewald energy   TEWEN  =     46108.92656615
  -Hartree energ DENC   =    -58490.02465032
  -exchange      EXHF   =         0.00000000
  -V(xc)+E(xc)   XCENC  =      -133.17780720
  PAW double counting   =     12428.64863741   -11884.80743002
  entropy T*S    EENTRO =        -0.00626122
  eigenvalues    EBANDS =      -672.43616051
  atomic energy  EATOM  =     12447.10114051
  Solvation  Ediel_sol  =         0.00000000
  ---------------------------------------------------
  free energy    TOTEN  =       -29.89484038 eV

  energy without entropy =      -29.88857916  energy(sigma->0) =      -29.89275330


--------------------------------------------------------------------------------------------------------




----------------------------------------- Iteration    1(   7)  ---------------------------------------


    POTLOK:  cpu time    0.0278: real time    0.0278
    SETDIJ:  cpu time    0.0032: real time    0.0032
     EDDAV:  cpu time    4.0164: real time    4.0257
       DOS:  cpu time    0.0009: real time    0.0009
    CHARGE:  cpu time    0.1549: real time    0.1552
    MIXING:  cpu time    0.0013: real time    0.0013
    --------------------------------------------
      LOOP:  cpu time    4.2058: real time    4.2170

 eigenvalue-minimisations  :  2760
 total energy-change (2. order) : 0.6890148E-01  (-0.1628394E-01)
 number of electron     132.0000355 magnetization 
 augmentation part       63.2285681 magnetization 

 Broyden mixing:
  rms(total) = 0.52084E+00    rms(broyden)= 0.52084E+00
  rms(prec ) = 0.52158E+00
  weight for this iteration     100.00

 eigenvalues of (default mixing * dielectric matrix)
  average eigenvalue GAMMA=   1.7913
  1.0561  2.5265

 Free energy of the ion-electron system (eV)
  ---------------------------------------------------
  alpha Z        PSCENC =       165.88112482
  Ewald energy   TEWEN  =     46108.92656615
  -Hartree energ DENC   =    -58484.80060392
  -exchange      EXHF   =         0.00000000
  -V(xc)+E(xc)   XCENC  =      -133.78066774
  PAW double counting   =     12702.29364124   -12165.68847741
  entropy T*S    EENTRO =        -0.00695182
  eigenvalues    EBANDS =      -669.75171072
  atomic energy  EATOM  =     12447.10114051
  Solvation  Ediel_sol  =         0.00000000
  ---------------------------------------------------
  free energy    TOTEN  =       -29.82593890 eV

  energy without entropy =      -29.81898707  energy(sigma->0) =      -29.82362162


--------------------------------------------------------------------------------------------------------




----------------------------------------- Iteration    1(   8)  ---------------------------------------


    POTLOK:  cpu time    0.0275: real time    0.0276
    SETDIJ:  cpu time    0.0031: real time    0.0031
     EDDAV:  cpu time    3.7362: real time    3.7470
       DOS:  cpu time    0.0009: real time    0.0009
    CHARGE:  cpu time    0.1551: real time    0.1554
    MIXING:  cpu time    0.0013: real time    0.0013
    --------------------------------------------
      LOOP:  cpu time    3.9251: real time    3.9385

 eigenvalue-minimisations  :  2544
 total energy-change (2. order) : 0.2215373E-01  (-0.1438267E-02)
 number of electron     132.0000355 magnetization 
 augmentation part       63.2389421 magnetization 

 Broyden mixing:
  rms(total) = 0.13196E-01    rms(broyden)= 0.13191E-01
  rms(prec ) = 0.14707E-01
  weight for this iteration     100.00

 eigenvalues of (default mixing * dielectric matrix)
  average eigenvalue GAMMA=   1.5090
  2.4893  0.9629  1.0747

 Free energy of the ion-electron system (eV)
  ---------------------------------------------------
  alpha Z        PSCENC =       165.88112482
  Ewald energy   TEWEN  =     46108.92656615
  -Hartree energ DENC   =    -58483.59310052
  -exchange      EXHF   =         0.00000000
  -V(xc)+E(xc)   XCENC  =      -134.21095926
  PAW double counting   =     13051.32240249   -12523.00351650
  entropy T*S    EENTRO =        -0.00598657
  eigenvalues    EBANDS =      -662.22145629
  atomic energy  EATOM  =     12447.10114051
  Solvation  Ediel_sol  =         0.00000000
  ---------------------------------------------------
  free energy    TOTEN  =       -29.80378517 eV

  energy without entropy =      -29.79779860  energy(sigma->0) =      -29.80178964


--------------------------------------------------------------------------------------------------------




----------------------------------------- Iteration    1(   9)  ---------------------------------------


    POTLOK:  cpu time    0.0277: real time    0.0278
    SETDIJ:  cpu time    0.0036: real time    0.0036
     EDDAV:  cpu time    4.3241: real time    4.3312
       DOS:  cpu time    0.0007: real time    0.0007
    CHARGE:  cpu time    0.1533: real time    0.1533
    MIXING:  cpu time    0.0013: real time    0.0013
    --------------------------------------------
      LOOP:  cpu time    4.5120: real time    4.5208

 eigenvalue-minimisations  :  3000
 total energy-change (2. order) : 0.1729180E-03  (-0.7101939E-04)
 number of electron     132.0000355 magnetization 
 augmentation part       63.2415197 magnetization 

 Broyden mixing:
  rms(total) = 0.74091E-02    rms(broyden)= 0.74086E-02
  rms(prec ) = 0.91787E-02
  weight for this iteration     100.00

 eigenvalues of (default mixing * dielectric matrix)
  average eigenvalue GAMMA=   1.6251
  0.9875  1.0383  2.5244  1.9500

 Free energy of the ion-electron system (eV)
  ---------------------------------------------------
  alpha Z        PSCENC =       165.88112482
  Ewald energy   TEWEN  =     46108.92656615
  -Hartree energ DENC   =    -58484.78222183
  -exchange      EXHF   =         0.00000000
  -V(xc)+E(xc)   XCENC  =      -134.20363593
  PAW double counting   =     13050.51449339   -12522.03714171
  entropy T*S    EENTRO =        -0.00599337
  eigenvalues    EBANDS =      -661.19794428
  atomic energy  EATOM  =     12447.10114051
  Solvation  Ediel_sol  =         0.00000000
  ---------------------------------------------------
  free energy    TOTEN  =       -29.80361225 eV

  energy without entropy =      -29.79761888  energy(sigma->0) =      -29.80161446


--------------------------------------------------------------------------------------------------------




----------------------------------------- Iteration    1(  10)  ---------------------------------------


    POTLOK:  cpu time    0.0276: real time    0.0276
    SETDIJ:  cpu time    0.0032: real time    0.0032
     EDDAV:  cpu time    3.5535: real time    3.5547
       DOS:  cpu time    0.0009: real time    0.0009
    CHARGE:  cpu time    0.1524: real time    0.1524
    MIXING:  cpu time    0.0015: real time    0.0015
    --------------------------------------------
      LOOP:  cpu time    3.7403: real time    3.7432

 eigenvalue-minimisations  :  2328
 total energy-change (2. order) : 0.2352510E-03  (-0.2298267E-04)
 number of electron     132.0000355 magnetization 
 augmentation part       63.2416892 magnetization 

 Broyden mixing:
  rms(total) = 0.40179E-02    rms(broyden)= 0.40177E-02
  rms(prec ) = 0.54875E-02
  weight for this iteration     100.00

 eigenvalues of (default mixing * dielectric matrix)
  average eigenvalue GAMMA=   1.6390
  2.8190  2.4481  1.0662  1.0662  0.7957

 Free energy of the ion-electron system (eV)
  ---------------------------------------------------
  alpha Z        PSCENC =       165.88112482
  Ewald energy   TEWEN  =     46108.92656615
  -Hartree energ DENC   =    -58487.48702470
  -exchange      EXHF   =         0.00000000
  -V(xc)+E(xc)   XCENC  =      -134.19689881
  PAW double counting   =     13056.17278063   -12527.64478370
  entropy T*S    EENTRO =        -0.00600080
  eigenvalues    EBANDS =      -658.55028109
  atomic energy  EATOM  =     12447.10114051
  Solvation  Ediel_sol  =         0.00000000
  ---------------------------------------------------
  free energy    TOTEN  =       -29.80337700 eV

  energy without entropy =      -29.79737619  energy(sigma->0) =      -29.80137673


--------------------------------------------------------------------------------------------------------




----------------------------------------- Iteration    1(  11)  ---------------------------------------


    POTLOK:  cpu time    0.0282: real time    0.0282
    SETDIJ:  cpu time    0.0032: real time    0.0032
     EDDAV:  cpu time    3.3815: real time    3.3834
       DOS:  cpu time    0.0007: real time    0.0007
    CHARGE:  cpu time    0.1529: real time    0.1529
    MIXING:  cpu time    0.0014: real time    0.0014
    --------------------------------------------
      LOOP:  cpu time    3.5690: real time    3.5728

 eigenvalue-minimisations  :  2112
 total energy-change (2. order) : 0.1846423E-03  (-0.1284038E-04)
 number of electron     132.0000355 magnetization 
 augmentation part       63.2414010 magnetization 

 Broyden mixing:
  rms(total) = 0.17516E-02    rms(broyden)= 0.17515E-02
  rms(prec ) = 0.28599E-02
  weight for this iteration     100.00

 eigenvalues of (default mixing * dielectric matrix)
  average eigenvalue GAMMA=   1.5442
  2.7901  2.4951  1.0317  1.0317  1.1030  0.8134

 Free energy of the ion-electron system (eV)
  ---------------------------------------------------
  alpha Z        PSCENC =       165.88112482
  Ewald energy   TEWEN  =     46108.92656615
  -Hartree energ DENC   =    -58490.37652705
  -exchange      EXHF   =         0.00000000
  -V(xc)+E(xc)   XCENC  =      -134.18750596
  PAW double counting   =     13058.55992996   -12529.96740871
  entropy T*S    EENTRO =        -0.00592977
  eigenvalues    EBANDS =      -655.73458229
  atomic energy  EATOM  =     12447.10114051
  Solvation  Ediel_sol  =         0.00000000
  ---------------------------------------------------
  free energy    TOTEN  =       -29.80319235 eV

  energy without entropy =      -29.79726258  energy(sigma->0) =      -29.80121576


--------------------------------------------------------------------------------------------------------




----------------------------------------- Iteration    1(  12)  ---------------------------------------


    POTLOK:  cpu time    0.0284: real time    0.0284
    SETDIJ:  cpu time    0.0031: real time    0.0031
     EDDAV:  cpu time    3.1768: real time    3.1776
       DOS:  cpu time    0.0007: real time    0.0007
    --------------------------------------------
      LOOP:  cpu time    3.2102: real time    3.2124

 eigenvalue-minimisations  :  2016
 total energy-change (2. order) :-0.4667856E-04  (-0.2419699E-05)
 number of electron     132.0000355 magnetization 
 augmentation part       63.2414010 magnetization 

 Free energy of the ion-electron system (eV)
  ---------------------------------------------------
  alpha Z        PSCENC =       165.88112482
  Ewald energy   TEWEN  =     46108.92656615
  -Hartree energ DENC   =    -58491.67977309
  -exchange      EXHF   =         0.00000000
  -V(xc)+E(xc)   XCENC  =      -134.18332525
  PAW double counting   =     13057.20081241   -12528.59481297
  entropy T*S    EENTRO =        -0.00586860
  eigenvalues    EBANDS =      -654.44910300
  atomic energy  EATOM  =     12447.10114051
  Solvation  Ediel_sol  =         0.00000000
  ---------------------------------------------------
  free energy    TOTEN  =       -29.80323903 eV

  energy without entropy =      -29.79737043  energy(sigma->0) =      -29.80128283


--------------------------------------------------------------------------------------------------------




 average (electrostatic) potential at core
  the test charge radii are     1.1249
  (the norm of the test charge is              1.0000)
       1 -79.8136       2 -79.8136       3 -79.8136       4 -79.8136       5 -79.9919
       6 -79.9919       7 -79.9919       8 -79.9919       9 -79.8136      10 -79.8136
      11 -79.8136      12 -79.8136
 
 
 
 E-fermi :  -0.9117     XC(G=0):  -4.2266     alpha+bet : -3.7304


 k-point     1 :       0.0000    0.0000    0.0000
  band No.  band energies     occupation 
      1      -7.7746      2.00000
      2      -6.8570      2.00000
      3      -6.8261      2.00000
      4      -6.8261      2.00000
      5      -6.8261      2.00000
      6      -6.7562      2.00000
      7      -6.6858      2.00000
      8      -6.6858      2.00000
      9      -6.6858      2.00000
     10      -6.5804      2.00000
     11      -6.5804      2.00000
     12      -6.5804      2.00000
     13      -6.4078      2.00000
     14      -6.4078      2.00000
     15      -6.4078      2.00000
     16      -5.7456      2.00000
     17      -5.7456      2.00000
     18      -5.7456      2.00000
     19      -5.6032      2.00000
     20      -5.6032      2.00000
     21      -5.6032      2.00000
     22      -5.5284      2.00000
     23      -5.4743      2.00000
     24      -5.4743      2.00000
     25      -5.3304      2.00000
     26      -5.3304      2.00000
     27      -5.2649      2.00000
     28      -5.2649      2.00000
     29      -5.2649      2.00000
     30      -5.2150      2.00000
     31      -5.2150      2.00000
     32      -4.8540      2.00000
     33      -4.7130      2.00000
     34      -4.7130      2.00000
     35      -4.7130      2.00000
     36      -4.5545      2.00000
     37      -4.5545      2.00000
     38      -4.5523      2.00000
     39      -4.5523      2.00000
     40      -4.5523      2.00000
     41      -4.3028      2.00000
     42      -4.3028      2.00000
     43      -4.3028      2.00000
     44      -4.2763      2.00000
     45      -4.2763      2.00000
     46      -4.0140      2.00000
     47      -4.0140      2.00000
     48      -4.0140      2.00000
     49      -3.9529      2.00000
     50      -3.9529      2.00000
     51      -3.9252      2.00000
     52      -3.9252      2.00000
     53      -3.9252      2.00000
     54      -3.8199      2.00000
     55      -3.8199      2.00000
     56      -3.8199      2.00000
     57      -3.6657      2.00000
     58      -3.6657      2.00000
     59      -3.6657      2.00000
     60      -3.6408      2.00000
     61      -3.6408      2.00000
     62      -3.6408      2.00000
     63      -2.2435      2.00000
     64      -0.5296     -0.00000
     65      -0.5296     -0.00000
     66      -0.5296     -0.00000
     67      -0.4579     -0.00000
     68       0.3221     -0.00000
     69       0.3221     -0.00000
     70       0.3221     -0.00000
     71       0.7104     -0.00000
     72       0.7104     -0.00000
     73       0.7104     -0.00000
     74       2.9981      0.00000
     75       2.9981      0.00000
     76       2.9981      0.00000
     77       3.0002      0.00000
     78       3.3129      0.00000
     79       3.8162      0.00000
     80       3.8162      0.00000
     81       3.8162      0.00000
     82       3.8601      0.00000
     83       4.5823      0.00000
     84       4.5823      0.00000
     85       4.5823      0.00000
     86       4.8241      0.00000
     87       5.0626      0.00000
     88       6.8740      0.00000
     89       6.9571      0.00000
     90       6.9862      0.00000
     91       6.9862      0.00000
     92       6.9862      0.00000
     93       7.4056      0.00000
     94       7.4056      0.00000
     95       7.4056      0.00000
     96       8.4299      0.00000

 k-point     2 :       0.1111    0.0000    0.0000
  band No.  band energies     occupation 
      1      -7.6934      2.00000
      2      -6.8035      2.00000
      3      -6.8012      2.00000
      4      -6.7760      2.00000
      5      -6.7760      2.00000
      6      -6.6845      2.00000
      7      -6.6590      2.00000
      8      -6.6487      2.00000
      9      -6.6487      2.00000
     10      -6.5583      2.00000
     11      -6.5512      2.00000
     12      -6.5512      2.00000
     13      -6.3808      2.00000
     14      -6.3540      2.00000
     15      -6.3540      2.00000
     16      -5.7424      2.00000
     17      -5.7424      2.00000
     18      -5.7266      2.00000
     19      -5.5822      2.00000
     20      -5.5810      2.00000
     21      -5.5810      2.00000
     22      -5.5265      2.00000
     23      -5.5039      2.00000
     24      -5.4352      2.00000
     25      -5.3761      2.00000
     26      -5.2993      2.00000
     27      -5.2853      2.00000
     28      -5.2853      2.00000
     29      -5.2531      2.00000
     30      -5.2282      2.00000
     31      -5.1746      2.00000
     32      -4.9212      2.00000
     33      -4.7513      2.00000
     34      -4.7464      2.00000
     35      -4.7464      2.00000
     36      -4.5821      2.00000
     37      -4.5821      2.00000
     38      -4.5698      2.00000
     39      -4.5494      2.00000
     40      -4.5282      2.00000
     41      -4.3326      2.00000
     42      -4.3295      2.00000
     43      -4.3295      2.00000
     44      -4.3241      2.00000
     45      -4.2764      2.00000
     46      -4.0432      2.00000
     47      -4.0432      2.00000
     48      -4.0250      2.00000
     49      -3.9734      2.00000
     50      -3.9711      2.00000
     51      -3.9511      2.00000
     52      -3.9471      2.00000
     53      -3.9471      2.00000
     54      -3.8891      2.00000
     55      -3.8891      2.00000
     56      -3.8635      2.00000
     57      -3.7358      2.00000
     58      -3.7358      2.00000
     59      -3.7138      2.00000
     60      -3.7103      2.00000
     61      -3.7103      2.00000
     62      -3.6926      2.00000
     63      -2.1410      2.00000
     64      -1.4131      2.00000
     65      -0.7038     -0.01226
     66      -0.7038     -0.01226
     67      -0.2988     -0.00000
     68      -0.2533     -0.00000
     69       0.2868     -0.00000
     70       0.2868     -0.00000
     71       1.0829     -0.00000
     72       1.0829     -0.00000
     73       1.3569     -0.00000
     74       3.0659      0.00000
     75       3.1568      0.00000
     76       3.1568      0.00000
     77       3.1831      0.00000
     78       3.3874      0.00000
     79       3.7215      0.00000
     80       3.7215      0.00000
     81       3.8821      0.00000
     82       3.9271      0.00000
     83       4.8796      0.00000
     84       4.8796      0.00000
     85       4.8975      0.00000
     86       5.0757      0.00000
     87       5.1257      0.00000
     88       6.6213      0.00000
     89       6.7863      0.00000
     90       6.7863      0.00000
     91       6.9421      0.00000
     92       7.0276      0.00000
     93       7.3260      0.00000
     94       7.7107      0.00000
     95       7.7107      0.00000
     96       7.9856      0.00000

 k-point     3 :       0.2222    0.0000    0.0000
  band No.  band energies     occupation 
      1      -7.4599      2.00000
      2      -6.7327      2.00000
      3      -6.6575      2.00000
      4      -6.6321      2.00000
      5      -6.6321      2.00000
      6      -6.5875      2.00000
      7      -6.5529      2.00000
      8      -6.5529      2.00000
      9      -6.4900      2.00000
     10      -6.4865      2.00000
     11      -6.4606      2.00000
     12      -6.4606      2.00000
     13      -6.3035      2.00000
     14      -6.1993      2.00000
     15      -6.1993      2.00000
     16      -5.7459      2.00000
     17      -5.7459      2.00000
     18      -5.6725      2.00000
     19      -5.5842      2.00000
     20      -5.5435      2.00000
     21      -5.5239      2.00000
     22      -5.5122      2.00000
     23      -5.5122      2.00000
     24      -5.4801      2.00000
     25      -5.3349      2.00000
     26      -5.3349      2.00000
     27      -5.3228      2.00000
     28      -5.2456      2.00000
     29      -5.2196      2.00000
     30      -5.2143      2.00000
     31      -5.0564      2.00000
     32      -5.0504      2.00000
     33      -4.8681      2.00000
     34      -4.8658      2.00000
     35      -4.8658      2.00000
     36      -4.6520      2.00000
     37      -4.6520      2.00000
     38      -4.6013      2.00000
     39      -4.5696      2.00000
     40      -4.5454      2.00000
     41      -4.4353      2.00000
     42      -4.4203      2.00000
     43      -4.4203      2.00000
     44      -4.4133      2.00000
     45      -4.2802      2.00000
     46      -4.1591      2.00000
     47      -4.1591      2.00000
     48      -4.1289      2.00000
     49      -4.1289      2.00000
     50      -4.1191      2.00000
     51      -4.0877      2.00000
     52      -4.0223      2.00000
     53      -4.0223      2.00000
     54      -3.9658      2.00000
     55      -3.9460      2.00000
     56      -3.9276      2.00000
     57      -3.8994      2.00000
     58      -3.8994      2.00000
     59      -3.8593      2.00000
     60      -3.8115      2.00000
     61      -3.7672      2.00000
     62      -3.7672      2.00000
     63      -2.6095      2.00000
     64      -1.8638      2.00000
     65      -1.2754      2.00000
     66      -0.9310      1.32023
     67      -0.9310      1.32019
     68       0.1364     -0.00000
     69       0.2366     -0.00000
     70       0.2366     -0.00000
     71       1.1333     -0.00000
     72       1.7777     -0.00000
     73       1.7777     -0.00000
     74       3.2631      0.00000
     75       3.3209      0.00000
     76       3.3209      0.00000
     77       3.6107      0.00000
     78       3.8855      0.00000
     79       4.0496      0.00000
     80       4.0496      0.00000
     81       4.1284      0.00000
     82       4.3854      0.00000
     83       5.1174      0.00000
     84       5.3164      0.00000
     85       5.3331      0.00000
     86       5.3331      0.00000
     87       5.5040      0.00000
     88       6.3771      0.00000
     89       6.7949      0.00000
     90       6.7949      0.00000
     91       6.9076      0.00000
     92       7.1470      0.00000
     93       7.2391      0.00000
     94       7.2495      0.00000
     95       7.5316      0.00000
     96       7.5316      0.00000

 k-point     4 :       0.3333    0.0000    0.0000
  band No.  band energies     occupation 
      1      -7.1161      2.00000
      2      -6.6441      2.00000
      3      -6.5028      2.00000
      4      -6.4783      2.00000
      5      -6.4566      2.00000
      6      -6.4566      2.00000
      7      -6.3907      2.00000
      8      -6.3907      2.00000
      9      -6.3653      2.00000
     10      -6.3272      2.00000
     11      -6.3272      2.00000
     12      -6.2309      2.00000
     13      -6.1867      2.00000
     14      -5.9751      2.00000
     15      -5.9751      2.00000
     16      -5.7627      2.00000
     17      -5.7627      2.00000
     18      -5.7286      2.00000
     19      -5.6535      2.00000
     20      -5.5924      2.00000
     21      -5.4821      2.00000
     22      -5.4566      2.00000
     23      -5.4116      2.00000
     24      -5.4116      2.00000
     25      -5.3924      2.00000
     26      -5.3924      2.00000
     27      -5.2071      2.00000
     28      -5.1707      2.00000
     29      -5.1689      2.00000
     30      -5.1618      2.00000
     31      -5.0927      2.00000
     32      -5.0720      2.00000
     33      -5.0720      2.00000
     34      -5.0475      2.00000
     35      -4.8701      2.00000
     36      -4.7223      2.00000
     37      -4.7223      2.00000
     38      -4.7134      2.00000
     39      -4.6069      2.00000
     40      -4.5759      2.00000
     41      -4.5759      2.00000
     42      -4.5659      2.00000
     43      -4.5516      2.00000
     44      -4.5239      2.00000
     45      -4.5239      2.00000
     46      -4.5170      2.00000
     47      -4.3668      2.00000
     48      -4.3246      2.00000
     49      -4.3246      2.00000
     50      -4.2902      2.00000
     51      -4.2403      2.00000
     52      -4.1747      2.00000
     53      -4.1747      2.00000
     54      -4.1171      2.00000
     55      -4.0707      2.00000
     56      -3.9392      2.00000
     57      -3.9360      2.00000
     58      -3.9360      2.00000
     59      -3.8972      2.00000
     60      -3.7759      2.00000
     61      -3.7759      2.00000
     62      -3.7388      2.00000
     63      -3.6580      2.00000
     64      -2.2167      2.00000
     65      -1.4609      2.00000
     66      -1.0553      2.06075
     67      -1.0553      2.06075
     68       0.1987     -0.00000
     69       0.1987     -0.00000
     70       0.3671     -0.00000
     71       0.7682     -0.00000
     72       2.2706      0.00000
     73       2.2706      0.00000
     74       3.2943      0.00000
     75       3.5914      0.00000
     76       3.7257      0.00000
     77       3.7257      0.00000
     78       3.9824      0.00000
     79       4.4657      0.00000
     80       4.8005      0.00000
     81       4.8005      0.00000
     82       5.3263      0.00000
     83       5.4834      0.00000
     84       5.6015      0.00000
     85       5.6015      0.00000
     86       5.6387      0.00000
     87       5.7566      0.00000
     88       6.0393      0.00000
     89       6.3081      0.00000
     90       7.1216      0.00000
     91       7.1216      0.00000
     92       7.2130      0.00000
     93       7.2788      0.00000
     94       7.2789      0.00000
     95       7.4149      0.00000
     96       7.4891      0.00000

 k-point     5 :       0.4444    0.0000    0.0000
  band No.  band energies     occupation 
      1      -6.7755      2.00000
      2      -6.6126      2.00000
      3      -6.4297      2.00000
      4      -6.3904      2.00000
      5      -6.3528      2.00000
      6      -6.3528      2.00000
      7      -6.2426      2.00000
      8      -6.2426      2.00000
      9      -6.1886      2.00000
     10      -6.1512      2.00000
     11      -6.1512      2.00000
     12      -6.0640      2.00000
     13      -6.0531      2.00000
     14      -5.9226      2.00000
     15      -5.8647      2.00000
     16      -5.8647      2.00000
     17      -5.7015      2.00000
     18      -5.6551      2.00000
     19      -5.6551      2.00000
     20      -5.5540      2.00000
     21      -5.5540      2.00000
     22      -5.5443      2.00000
     23      -5.4897      2.00000
     24      -5.4364      2.00000
     25      -5.2455      2.00000
     26      -5.2455      2.00000
     27      -5.2109      2.00000
     28      -5.2109      2.00000
     29      -5.1436      2.00000
     30      -5.1318      2.00000
     31      -5.1202      2.00000
     32      -5.0992      2.00000
     33      -5.0369      2.00000
     34      -4.8986      2.00000
     35      -4.8986      2.00000
     36      -4.8968      2.00000
     37      -4.8356      2.00000
     38      -4.8356      2.00000
     39      -4.8146      2.00000
     40      -4.7331      2.00000
     41      -4.6839      2.00000
     42      -4.6623      2.00000
     43      -4.6623      2.00000
     44      -4.6326      2.00000
     45      -4.6061      2.00000
     46      -4.5817      2.00000
     47      -4.5280      2.00000
     48      -4.5041      2.00000
     49      -4.5041      2.00000
     50      -4.4427      2.00000
     51      -4.3931      2.00000
     52      -4.3606      2.00000
     53      -4.2948      2.00000
     54      -4.2429      2.00000
     55      -4.2242      2.00000
     56      -4.2242      2.00000
     57      -3.9403      2.00000
     58      -3.9403      2.00000
     59      -3.9320      2.00000
     60      -3.9225      2.00000
     61      -3.7734      2.00000
     62      -3.7734      2.00000
     63      -3.4219      2.00000
     64      -2.9365      2.00000
     65      -1.1024      2.02134
     66      -1.1024      2.02134
     67      -0.9567      1.68305
     68      -0.3496     -0.00000
     69       0.1798     -0.00000
     70       0.1798     -0.00000
     71       1.5332     -0.00000
     72       2.3889      0.00000
     73       2.3889      0.00000
     74       2.3898      0.00000
     75       4.0511      0.00000
     76       4.5011      0.00000
     77       4.6416      0.00000
     78       4.6596      0.00000
     79       4.6597      0.00000
     80       4.9411      0.00000
     81       5.1619      0.00000
     82       5.2143      0.00000
     83       5.2143      0.00000
     84       5.5558      0.00000
     85       5.8242      0.00000
     86       5.8242      0.00000
     87       5.9932      0.00000
     88       6.0973      0.00000
     89       6.4198      0.00000
     90       6.4198      0.00000
     91       6.6348      0.00000
     92       6.6928      0.00000
     93       7.1567      0.00000
     94       7.1567      0.00000
     95       7.5684      0.00000
     96       7.5684      0.00000

 k-point     6 :       0.2222    0.1111    0.0000
  band No.  band energies     occupation 
      1      -7.5355      2.00000
      2      -6.7269      2.00000
      3      -6.7269      2.00000
      4      -6.7026      2.00000
      5      -6.6584      2.00000
      6      -6.5957      2.00000
      7      -6.5957      2.00000
      8      -6.5794      2.00000
      9      -6.5488      2.00000
     10      -6.5101      2.00000
     11      -6.5101      2.00000
     12      -6.4770      2.00000
     13      -6.3011      2.00000
     14      -6.3011      2.00000
     15      -6.2260      2.00000
     16      -5.7563      2.00000
     17      -5.7100      2.00000
     18      -5.7100      2.00000
     19      -5.5613      2.00000
     20      -5.5390      2.00000
     21      -5.5390      2.00000
     22      -5.5365      2.00000
     23      -5.5276      2.00000
     24      -5.4597      2.00000
     25      -5.3562      2.00000
     26      -5.3438      2.00000
     27      -5.2631      2.00000
     28      -5.2631      2.00000
     29      -5.2589      2.00000
     30      -5.2304      2.00000
     31      -5.0947      2.00000
     32      -5.0121      2.00000
     33      -4.8297      2.00000
     34      -4.8297      2.00000
     35      -4.8166      2.00000
     36      -4.6605      2.00000
     37      -4.6098      2.00000
     38      -4.5739      2.00000
     39      -4.5739      2.00000
     40      -4.5303      2.00000
     41      -4.3931      2.00000
     42      -4.3931      2.00000
     43      -4.3867      2.00000
     44      -4.3770      2.00000
     45      -4.3023      2.00000
     46      -4.1315      2.00000
     47      -4.0989      2.00000
     48      -4.0989      2.00000
     49      -4.0430      2.00000
     50      -4.0430      2.00000
     51      -4.0277      2.00000
     52      -3.9739      2.00000
     53      -3.9739      2.00000
     54      -3.9616      2.00000
     55      -3.9564      2.00000
     56      -3.9434      2.00000
     57      -3.8945      2.00000
     58      -3.8268      2.00000
     59      -3.8268      2.00000
     60      -3.7800      2.00000
     61      -3.7739      2.00000
     62      -3.7739      2.00000
     63      -1.9520      2.00000
     64      -1.8769      2.00000
     65      -1.8769      2.00000
     66      -0.6300     -0.00050
     67      -0.6300     -0.00050
     68      -0.0026     -0.00000
     69       0.0064     -0.00000
     70       0.7035     -0.00000
     71       1.1851     -0.00000
     72       1.5102     -0.00000
     73       1.5102     -0.00000
     74       3.1148      0.00000
     75       3.1974      0.00000
     76       3.4543      0.00000
     77       3.4543      0.00000
     78       3.5363      0.00000
     79       4.0260      0.00000
     80       4.0612      0.00000
     81       4.3677      0.00000
     82       4.3677      0.00000
     83       4.7973      0.00000
     84       5.0441      0.00000
     85       5.1733      0.00000
     86       5.1733      0.00000
     87       5.2526      0.00000
     88       6.8456      0.00000
     89       6.8456      0.00000
     90       7.0326      0.00000
     91       7.0326      0.00000
     92       7.0787      0.00000
     93       7.1686      0.00000
     94       7.2521      0.00000
     95       7.5343      0.00000
     96       7.5659      0.00000

 k-point     7 :       0.3333    0.1111    0.0000
  band No.  band energies     occupation 
      1      -7.2423      2.00000
      2      -6.6413      2.00000
      3      -6.5581      2.00000
      4      -6.5297      2.00000
      5      -6.5091      2.00000
      6      -6.5047      2.00000
      7      -6.4760      2.00000
      8      -6.4346      2.00000
      9      -6.4223      2.00000
     10      -6.4147      2.00000
     11      -6.3453      2.00000
     12      -6.3153      2.00000
     13      -6.2020      2.00000
     14      -6.1224      2.00000
     15      -6.0230      2.00000
     16      -5.7836      2.00000
     17      -5.7116      2.00000
     18      -5.6694      2.00000
     19      -5.6481      2.00000
     20      -5.6008      2.00000
     21      -5.5246      2.00000
     22      -5.4710      2.00000
     23      -5.4518      2.00000
     24      -5.4476      2.00000
     25      -5.4000      2.00000
     26      -5.3162      2.00000
     27      -5.2744      2.00000
     28      -5.2273      2.00000
     29      -5.2055      2.00000
     30      -5.1526      2.00000
     31      -5.1321      2.00000
     32      -5.0063      2.00000
     33      -4.9907      2.00000
     34      -4.9737      2.00000
     35      -4.9197      2.00000
     36      -4.7468      2.00000
     37      -4.6547      2.00000
     38      -4.6339      2.00000
     39      -4.6269      2.00000
     40      -4.5698      2.00000
     41      -4.5199      2.00000
     42      -4.5043      2.00000
     43      -4.4945      2.00000
     44      -4.4501      2.00000
     45      -4.3821      2.00000
     46      -4.3750      2.00000
     47      -4.3259      2.00000
     48      -4.3157      2.00000
     49      -4.2649      2.00000
     50      -4.2064      2.00000
     51      -4.1567      2.00000
     52      -4.1281      2.00000
     53      -4.1265      2.00000
     54      -4.0598      2.00000
     55      -3.9942      2.00000
     56      -3.9645      2.00000
     57      -3.9630      2.00000
     58      -3.9137      2.00000
     59      -3.8777      2.00000
     60      -3.8202      2.00000
     61      -3.8095      2.00000
     62      -3.8046      2.00000
     63      -2.9710      2.00000
     64      -2.0779      2.00000
     65      -1.6497      2.00000
     66      -1.6146      2.00000
     67      -0.8218     -0.02245
     68       0.1434     -0.00000
     69       0.5271     -0.00000
     70       0.8376     -0.00000
     71       1.1766     -0.00000
     72       1.4880     -0.00000
     73       1.8062     -0.00000
     74       3.4602      0.00000
     75       3.4832      0.00000
     76       3.7917      0.00000
     77       3.8339      0.00000
     78       4.0730      0.00000
     79       4.0922      0.00000
     80       4.3306      0.00000
     81       4.5931      0.00000
     82       4.9676      0.00000
     83       5.3372      0.00000
     84       5.3471      0.00000
     85       5.5093      0.00000
     86       5.7005      0.00000
     87       5.7794      0.00000
     88       6.3889      0.00000
     89       6.5697      0.00000
     90       6.5708      0.00000
     91       6.8944      0.00000
     92       6.9497      0.00000
     93       7.1290      0.00000
     94       7.3280      0.00000
     95       7.3526      0.00000
     96       7.4502      0.00000

 k-point     8 :       0.4444    0.1111    0.0000
  band No.  band energies     occupation 
      1      -6.8824      2.00000
      2      -6.5617      2.00000
      3      -6.4286      2.00000
      4      -6.3866      2.00000
      5      -6.3734      2.00000
      6      -6.3667      2.00000
      7      -6.3165      2.00000
      8      -6.2881      2.00000
      9      -6.2724      2.00000
     10      -6.2269      2.00000
     11      -6.1910      2.00000
     12      -6.0833      2.00000
     13      -6.0720      2.00000
     14      -5.9167      2.00000
     15      -5.8896      2.00000
     16      -5.8397      2.00000
     17      -5.7197      2.00000
     18      -5.7163      2.00000
     19      -5.6886      2.00000
     20      -5.5722      2.00000
     21      -5.4883      2.00000
     22      -5.4732      2.00000
     23      -5.4699      2.00000
     24      -5.4698      2.00000
     25      -5.3088      2.00000
     26      -5.3072      2.00000
     27      -5.2577      2.00000
     28      -5.2159      2.00000
     29      -5.2025      2.00000
     30      -5.1925      2.00000
     31      -5.1536      2.00000
     32      -5.1207      2.00000
     33      -5.0880      2.00000
     34      -4.9776      2.00000
     35      -4.8456      2.00000
     36      -4.8254      2.00000
     37      -4.7940      2.00000
     38      -4.7238      2.00000
     39      -4.7120      2.00000
     40      -4.6983      2.00000
     41      -4.6946      2.00000
     42      -4.6635      2.00000
     43      -4.6075      2.00000
     44      -4.5987      2.00000
     45      -4.5912      2.00000
     46      -4.5539      2.00000
     47      -4.5007      2.00000
     48      -4.4918      2.00000
     49      -4.4241      2.00000
     50      -4.3984      2.00000
     51      -4.3072      2.00000
     52      -4.2808      2.00000
     53      -4.2026      2.00000
     54      -4.1708      2.00000
     55      -4.1530      2.00000
     56      -3.9983      2.00000
     57      -3.9612      2.00000
     58      -3.9352      2.00000
     59      -3.9309      2.00000
     60      -3.8242      2.00000
     61      -3.8108      2.00000
     62      -3.7892      2.00000
     63      -3.5452      2.00000
     64      -2.5081      2.00000
     65      -2.1356      2.00000
     66      -1.1634      2.00214
     67      -0.8981      0.77149
     68       0.0633     -0.00000
     69       0.0810     -0.00000
     70       1.2206     -0.00000
     71       1.3592     -0.00000
     72       1.4334     -0.00000
     73       2.8053      0.00000
     74       2.9117      0.00000
     75       3.8176      0.00000
     76       3.8544      0.00000
     77       4.2793      0.00000
     78       4.3210      0.00000
     79       4.5741      0.00000
     80       4.7372      0.00000
     81       5.0346      0.00000
     82       5.2812      0.00000
     83       5.5951      0.00000
     84       5.6505      0.00000
     85       5.7757      0.00000
     86       5.9003      0.00000
     87       5.9654      0.00000
     88       6.0272      0.00000
     89       6.2093      0.00000
     90       6.7418      0.00000
     91       6.7616      0.00000
     92       6.9616      0.00000
     93       7.0743      0.00000
     94       7.1387      0.00000
     95       7.2541      0.00000
     96       7.2723      0.00000

 k-point     9 :      -0.4444    0.1111    0.0000
  band No.  band energies     occupation 
      1      -6.6126      2.00000
      2      -6.6126      2.00000
      3      -6.3587      2.00000
      4      -6.3587      2.00000
      5      -6.3156      2.00000
      6      -6.3060      2.00000
      7      -6.2530      2.00000
      8      -6.2029      2.00000
      9      -6.1190      2.00000
     10      -6.0844      2.00000
     11      -6.0844      2.00000
     12      -6.0258      2.00000
     13      -5.9500      2.00000
     14      -5.9500      2.00000
     15      -5.9308      2.00000
     16      -5.8533      2.00000
     17      -5.6975      2.00000
     18      -5.6975      2.00000
     19      -5.6328      2.00000
     20      -5.5969      2.00000
     21      -5.5894      2.00000
     22      -5.5343      2.00000
     23      -5.4627      2.00000
     24      -5.4627      2.00000
     25      -5.2701      2.00000
     26      -5.2125      2.00000
     27      -5.1980      2.00000
     28      -5.1939      2.00000
     29      -5.1608      2.00000
     30      -5.1608      2.00000
     31      -5.1430      2.00000
     32      -5.1430      2.00000
     33      -5.0206      2.00000
     34      -5.0065      2.00000
     35      -5.0065      2.00000
     36      -4.9750      2.00000
     37      -4.9432      2.00000
     38      -4.8979      2.00000
     39      -4.8132      2.00000
     40      -4.8132      2.00000
     41      -4.7417      2.00000
     42      -4.7417      2.00000
     43      -4.6764      2.00000
     44      -4.6055      2.00000
     45      -4.5685      2.00000
     46      -4.5685      2.00000
     47      -4.5546      2.00000
     48      -4.5176      2.00000
     49      -4.4349      2.00000
     50      -4.4349      2.00000
     51      -4.3573      2.00000
     52      -4.3573      2.00000
     53      -4.2329      2.00000
     54      -4.2210      2.00000
     55      -4.2210      2.00000
     56      -4.2006      2.00000
     57      -3.9971      2.00000
     58      -3.9524      2.00000
     59      -3.9524      2.00000
     60      -3.9335      2.00000
     61      -3.8236      2.00000
     62      -3.8088      2.00000
     63      -3.1338      2.00000
     64      -3.1338      2.00000
     65      -2.1455      2.00000
     66      -0.9171      1.09027
     67      -0.6069     -0.00014
     68      -0.6069     -0.00014
     69       0.0544     -0.00000
     70       1.3828     -0.00000
     71       1.4111     -0.00000
     72       2.0281      0.00000
     73       2.0281      0.00000
     74       3.4280      0.00000
     75       4.3076      0.00000
     76       4.3453      0.00000
     77       4.3541      0.00000
     78       4.3807      0.00000
     79       4.3807      0.00000
     80       4.8702      0.00000
     81       4.8702      0.00000
     82       5.2831      0.00000
     83       5.2831      0.00000
     84       5.5621      0.00000
     85       5.8486      0.00000
     86       6.1368      0.00000
     87       6.3509      0.00000
     88       6.3552      0.00000
     89       6.3552      0.00000
     90       6.4296      0.00000
     91       6.4296      0.00000
     92       6.4925      0.00000
     93       6.6264      0.00000
     94       6.8677      0.00000
     95       7.1507      0.00000
     96       7.8825      0.00000

 k-point    10 :       0.4444    0.2222    0.0000
  band No.  band energies     occupation 
      1      -6.9194      2.00000
      2      -6.4585      2.00000
      3      -6.4585      2.00000
      4      -6.3992      2.00000
      5      -6.3760      2.00000
      6      -6.3760      2.00000
      7      -6.3500      2.00000
      8      -6.3280      2.00000
      9      -6.3280      2.00000
     10      -6.2166      2.00000
     11      -6.2060      2.00000
     12      -6.1025      2.00000
     13      -6.0043      2.00000
     14      -6.0043      2.00000
     15      -5.9437      2.00000
     16      -5.8082      2.00000
     17      -5.7024      2.00000
     18      -5.6652      2.00000
     19      -5.6567      2.00000
     20      -5.6567      2.00000
     21      -5.5667      2.00000
     22      -5.4537      2.00000
     23      -5.4480      2.00000
     24      -5.4480      2.00000
     25      -5.3480      2.00000
     26      -5.3208      2.00000
     27      -5.2893      2.00000
     28      -5.2893      2.00000
     29      -5.2776      2.00000
     30      -5.1506      2.00000
     31      -5.1506      2.00000
     32      -5.1183      2.00000
     33      -5.0993      2.00000
     34      -4.9992      2.00000
     35      -4.8393      2.00000
     36      -4.7711      2.00000
     37      -4.7662      2.00000
     38      -4.7662      2.00000
     39      -4.7003      2.00000
     40      -4.6501      2.00000
     41      -4.6441      2.00000
     42      -4.6281      2.00000
     43      -4.6281      2.00000
     44      -4.5872      2.00000
     45      -4.5378      2.00000
     46      -4.5378      2.00000
     47      -4.5055      2.00000
     48      -4.5055      2.00000
     49      -4.3984      2.00000
     50      -4.3555      2.00000
     51      -4.3432      2.00000
     52      -4.1851      2.00000
     53      -4.1851      2.00000
     54      -4.0745      2.00000
     55      -4.0662      2.00000
     56      -3.9915      2.00000
     57      -3.9915      2.00000
     58      -3.9902      2.00000
     59      -3.9079      2.00000
     60      -3.9079      2.00000
     61      -3.8889      2.00000
[...]
     52      -4.1604      2.00000
     53      -4.1604      2.00000
     54      -4.0461      2.00000
     55      -4.0367      2.00000
     56      -3.9668      2.00000
     57      -3.9668      2.00000
     58      -3.9586      2.00000
     59      -3.8796      2.00000
     60      -3.8796      2.00000
     61      -3.8593      2.00000
     62      -3.5436      2.00000
     63      -3.0204      2.00000
     64      -3.0204      2.00000
     65      -1.7851      2.00000
     66      -1.7851      2.00000
     67      -1.1886      2.00017
     68       0.7026     -0.00000
     69       0.7026     -0.00000
     70       1.1530     -0.00000
     71       1.2056     -0.00000
     72       1.6075     -0.00000
     73       2.3641      0.00000
     74       3.5669      0.00000
     75       3.6102      0.00000
     76       3.6102      0.00000
     77       3.8974      0.00000
     78       4.3616      0.00000
     79       4.6569      0.00000
     80       4.7375      0.00000
     81       5.4592      0.00000
     82       5.5810      0.00000
     83       5.6285      0.00000
     84       5.6285      0.00000
     85       5.7175      0.00000
     86       5.9551      0.00000
     87       5.9703      0.00000
     88       5.9703      0.00000
     89       6.3807      0.00000
     90       6.3807      0.00000
     91       6.5270      0.00000
     92       6.5270      0.00000
     93       7.1299      0.00000
     94       7.4406      0.00000
     95       7.4406      0.00000
     96       7.6824      0.00000

 k-point    11 :      -0.4444    0.2222    0.0000
  band No.  band energies     occupation 
      1      -6.5943      2.00000
      2      -6.4276      2.00000
      3      -6.2944      2.00000
      4      -6.2876      2.00000
      5      -6.2807      2.00000
      6      -6.2474      2.00000
      7      -6.2230      2.00000
      8      -6.1755      2.00000
      9      -6.1690      2.00000
     10      -6.1579      2.00000
     11      -6.0229      2.00000
     12      -5.9946      2.00000
     13      -5.9608      2.00000
     14      -5.9387      2.00000
     15      -5.8446      2.00000
     16      -5.8397      2.00000
     17      -5.7312      2.00000
     18      -5.7099      2.00000
     19      -5.6691      2.00000
     20      -5.5790      2.00000
     21      -5.5506      2.00000
     22      -5.4916      2.00000
     23      -5.4495      2.00000
     24      -5.4383      2.00000
     25      -5.3811      2.00000
     26      -5.2971      2.00000
     27      -5.2880      2.00000
     28      -5.2427      2.00000
     29      -5.2054      2.00000
     30      -5.1707      2.00000
     31      -5.1644      2.00000
     32      -5.1410      2.00000
     33      -5.1210      2.00000
     34      -5.0688      2.00000
     35      -5.0546      2.00000
     36      -4.9507      2.00000
     37      -4.9155      2.00000
     38      -4.8958      2.00000
     39      -4.8883      2.00000
     40      -4.8401      2.00000
     41      -4.7783      2.00000
     42      -4.6381      2.00000
     43      -4.6197      2.00000
     44      -4.5658      2.00000
     45      -4.5256      2.00000
     46      -4.5001      2.00000
     47      -4.4990      2.00000
     48      -4.4642      2.00000
     49      -4.4248      2.00000
     50      -4.3002      2.00000
     51      -4.2818      2.00000
     52      -4.2073      2.00000
     53      -4.1792      2.00000
     54      -4.1216      2.00000
     55      -4.1042      2.00000
     56      -4.0356      2.00000
     57      -3.9711      2.00000
     58      -3.9686      2.00000
     59      -3.9479      2.00000
     60      -3.8907      2.00000
     61      -3.8880      2.00000
     62      -3.7257      2.00000
     63      -3.1695      2.00000
     64      -3.0149      2.00000
     65      -2.5895      2.00000
     66      -1.8374      2.00000
     67      -0.6832     -0.01426
     68      -0.0545     -0.00000
     69       0.6173     -0.00000
     70       1.3361     -0.00000
     71       1.8834      0.00000
     72       2.5822      0.00000
     73       2.7170      0.00000
     74       2.8341      0.00000
     75       3.4890      0.00000
     76       4.0576      0.00000
     77       4.3552      0.00000
     78       4.4074      0.00000
     79       4.8810      0.00000
     80       4.9019      0.00000
     81       4.9454      0.00000
     82       5.1392      0.00000
     83       5.5429      0.00000
     84       5.5441      0.00000
     85       5.6607      0.00000
     86       5.7632      0.00000
     87       6.1981      0.00000
     88       6.2286      0.00000
     89       6.2903      0.00000
     90       6.3921      0.00000
     91       6.4155      0.00000
     92       6.8751      0.00000
     93       7.0123      0.00000
     94       7.0663      0.00000
     95       7.5469      0.00000
     96       7.6162      0.00000

 k-point    12 :      -0.3333    0.3333    0.0000
  band No.  band energies     occupation 
      1      -6.3612      2.00000
      2      -6.3612      2.00000
      3      -6.3612      2.00000
      4      -6.1612      2.00000
      5      -6.1612      2.00000
      6      -6.1280      2.00000
      7      -6.1158      2.00000
      8      -6.1158      2.00000
      9      -6.1158      2.00000
     10      -6.0432      2.00000
     11      -6.0432      2.00000
     12      -6.0432      2.00000
     13      -6.0342      2.00000
     14      -6.0342      2.00000
     15      -6.0342      2.00000
     16      -5.7443      2.00000
     17      -5.7443      2.00000
     18      -5.5528      2.00000
     19      -5.5528      2.00000
     20      -5.5528      2.00000
     21      -5.5469      2.00000
     22      -5.5469      2.00000
     23      -5.5469      2.00000
     24      -5.3728      2.00000
     25      -5.3728      2.00000
     26      -5.3728      2.00000
     27      -5.3406      2.00000
     28      -5.3406      2.00000
     29      -5.3406      2.00000
     30      -5.3151      2.00000
     31      -5.1028      2.00000
     32      -5.0969      2.00000
     33      -5.0915      2.00000
     34      -5.0915      2.00000
     35      -5.0540      2.00000
     36      -5.0540      2.00000
     37      -5.0540      2.00000
     38      -5.0107      2.00000
     39      -5.0107      2.00000
     40      -5.0107      2.00000
     41      -4.6370      2.00000
     42      -4.6370      2.00000
     43      -4.6370      2.00000
     44      -4.5594      2.00000
     45      -4.5594      2.00000
     46      -4.4786      2.00000
     47      -4.4786      2.00000
     48      -4.4786      2.00000
     49      -4.2987      2.00000
     50      -4.2987      2.00000
     51      -4.2987      2.00000
     52      -4.1142      2.00000
     53      -4.1142      2.00000
     54      -4.1142      2.00000
     55      -4.0699      2.00000
     56      -4.0699      2.00000
     57      -3.9705      2.00000
     58      -3.9705      2.00000
     59      -3.9705      2.00000
     60      -3.9514      2.00000
     61      -3.7063      2.00000
     62      -3.7063      2.00000
     63      -3.7063      2.00000
     64      -2.6153      2.00000
     65      -2.6153      2.00000
     66      -2.6153      2.00000
     67      -0.1072     -0.00000
     68      -0.1072     -0.00000
     69      -0.1072     -0.00000
     70       2.6379      0.00000
     71       2.6379      0.00000
     72       2.6379      0.00000
     73       2.6457      0.00000
     74       2.6457      0.00000
     75       2.7567      0.00000
     76       3.6568      0.00000
     77       4.4567      0.00000
     78       4.4567      0.00000
     79       4.8830      0.00000
     80       4.8830      0.00000
     81       4.8830      0.00000
     82       5.4721      0.00000
     83       5.4721      0.00000
     84       5.4721      0.00000
     85       5.6951      0.00000
     86       5.6951      0.00000
     87       5.6951      0.00000
     88       5.9326      0.00000
     89       5.9326      0.00000
     90       6.8103      0.00000
     91       6.8103      0.00000
     92       6.8103      0.00000
     93       6.9500      0.00000
     94       6.9500      0.00000
     95       6.9500      0.00000
     96       6.9729      0.00000


--------------------------------------------------------------------------------------------------------


 soft charge-density along one line, spin component           1
         0         1         2         3         4         5         6         7         8         9
 total charge-density along one line
 
 pseudopotential strength for first ion, spin component:           1
 -9.005   0.000   0.000  -0.003   0.000  -9.033   0.000   0.000
  0.000  -8.993   0.000  -0.000  -0.003   0.000  -9.021   0.000
  0.000   0.000  -8.994   0.000   0.000   0.000   0.000  -9.023
 -0.003  -0.000   0.000  -8.993   0.000  -0.002  -0.000   0.000
  0.000  -0.003   0.000   0.000  -9.005   0.000  -0.002   0.000
 -9.033   0.000   0.000  -0.002   0.000  -9.035   0.000   0.000
  0.000  -9.021   0.000  -0.000  -0.002   0.000  -9.023   0.000
  0.000   0.000  -9.023   0.000   0.000   0.000   0.000  -9.025
 -0.002  -0.000   0.000  -9.021   0.000  -0.002  -0.000   0.000
  0.000  -0.002   0.000   0.000  -9.033   0.000  -0.002   0.000
  0.000  -0.000  -0.005  -0.000   0.000   0.000  -0.000  -0.005
  0.000  -0.000  -0.008  -0.000   0.000   0.000  -0.000  -0.008
  0.000  -0.012   0.000   0.000   0.000   0.000  -0.011   0.000
  0.000   0.000  -0.014   0.000   0.000   0.000   0.000  -0.013
  0.000   0.000   0.000  -0.012   0.000   0.000   0.000   0.000
  0.000  -0.014   0.000   0.000   0.000   0.000  -0.013   0.000
  0.000   0.000  -0.017   0.000   0.000   0.000   0.000  -0.016
  0.000   0.000   0.000  -0.014   0.000   0.000   0.000   0.000
 total augmentation occupancy for first ion, spin component:           1
  3.082   0.000  -0.000  -0.009  -0.000  -1.101   0.000   0.000  -0.024   0.000  -0.000   0.000   0.000   0.000  -0.017  -0.000
  0.000   2.885   0.000   0.000  -0.009   0.000  -0.794   0.000  -0.000  -0.024   0.000  -0.000  -0.114   0.000  -0.000   0.002
 -0.000   0.000   3.173  -0.000  -0.000   0.000   0.000  -1.105   0.000   0.000   0.424  -0.055   0.000  -0.151   0.000  -0.000
 -0.009   0.000   0.000   2.885   0.000  -0.024  -0.000   0.000  -0.794  -0.000  -0.000  -0.000  -0.000   0.000  -0.114   0.000
 -0.000  -0.009  -0.000   0.000   3.082   0.000  -0.024   0.000  -0.000  -1.101  -0.000   0.000  -0.017   0.000   0.000   0.001
 -1.101   0.000   0.000  -0.024   0.000   1.069  -0.000  -0.000   0.051  -0.000   0.000  -0.000  -0.000  -0.000   0.019   0.000
  0.000  -0.794   0.000  -0.000  -0.024  -0.000   0.671  -0.000   0.000   0.051   0.000   0.000   0.115  -0.000   0.000  -0.008
  0.000   0.000  -1.105   0.000   0.000  -0.000  -0.000   1.001  -0.000  -0.000  -0.389   0.057  -0.000   0.170  -0.000   0.000
 -0.024  -0.000   0.000  -0.794  -0.000   0.051   0.000  -0.000   0.671   0.000   0.000  -0.000   0.000  -0.000   0.115  -0.000
  0.000  -0.024   0.000  -0.000  -1.101  -0.000   0.051  -0.000   0.000   1.069   0.000  -0.000   0.019  -0.000   0.000  -0.001
 -0.000   0.000   0.424   0.000  -0.000   0.000  -0.000  -0.389  -0.000   0.000   1.932  -0.310  -0.000   0.125   0.000   0.000
  0.000  -0.000  -0.055   0.000   0.000  -0.000   0.000   0.057  -0.000  -0.000  -0.310   0.067  -0.000  -0.035   0.000  -0.000
  0.000  -0.114   0.000  -0.000  -0.017  -0.000   0.115  -0.000   0.000   0.019  -0.000  -0.000   0.136   0.000   0.000  -0.008
  0.000   0.000  -0.151   0.000   0.000  -0.000   0.000   0.170  -0.000  -0.000   0.125  -0.035   0.000   0.080  -0.000   0.000
 -0.017  -0.000   0.000  -0.114  -0.000   0.019   0.000  -0.000   0.115   0.000   0.000   0.000   0.000  -0.000   0.136  -0.000
 -0.000   0.002  -0.000   0.000   0.001   0.000  -0.008   0.000  -0.000  -0.001   0.000  -0.000  -0.008   0.000  -0.000   0.001
 -0.000  -0.000  -0.000  -0.000   0.000   0.000  -0.000  -0.009  -0.000   0.000  -0.013   0.003  -0.000  -0.005   0.000  -0.000
  0.001   0.000  -0.000   0.002   0.000  -0.001  -0.000   0.000  -0.008  -0.000   0.000  -0.000  -0.000   0.000  -0.008   0.000


------------------------ aborting loop because EDIFF is reached ----------------------------------------


    CHARGE:  cpu time    0.1500: real time    0.1501
    FORLOC:  cpu time    0.0029: real time    0.0029
    FORNL :  cpu time    2.6886: real time    2.6889
    STRESS:  cpu time    3.3004: real time    3.3007
    FORCOR:  cpu time    0.0288: real time    0.0288
    FORHAR:  cpu time    0.0093: real time    0.0093
    MIXING:  cpu time    0.0015: real time    0.0015
    OFIELD:  cpu time    0.0000: real time    0.0000

  FORCE on cell =-STRESS in cart. coord.  units (eV):
  Direction    XX          YY          ZZ          XY          YZ          ZX
  --------------------------------------------------------------------------------------
  Alpha Z   165.88112   165.88112   165.88112
  Ewald   53990.53418 53990.53418-61634.60211    -0.00000    -0.00000    -0.00000
  Hartree 57114.55821 57114.55821-55497.49861    -0.00000    -0.00000    -0.00000
  E(xc)    -695.33717  -695.33714  -697.88543    -0.00002     0.00000     0.00000
  Local  ************************115024.89322     0.00061     0.00000     0.00000
  n-local  -103.91219  -123.18529  -115.88049    -9.26114     0.17933    -0.32501
  augment  1103.01446  1103.01507  1107.76950    -0.00053    -0.00000    -0.00001
  Kinetic  1632.18756  1634.54621  1646.34455     1.80340    -0.34219     0.52100
  Fock        0.00000     0.00000     0.00000     0.00000     0.00000     0.00000
  -------------------------------------------------------------------------------------
  Total      -3.74514    -3.74514    -0.97825     0.00000     0.00000     0.00000
  in kB      -8.12642    -8.12642    -2.12265     0.00000     0.00000     0.00000
  external pressure =       -6.13 kB  Pullay stress =        0.00 kB


 VOLUME and BASIS-vectors are now :
 -----------------------------------------------------------------------------
  energy-cutoff  :      400.00
  volume of cell :      738.38
      direct lattice vectors                 reciprocal lattice vectors
     5.864743643  0.000000000  0.000000000     0.170510437 -0.098444247  0.000000000
     2.932371822  5.079016982  0.000000000     0.000000000  0.196888493  0.000000000
     0.000000000  0.000000000 24.788543133     0.000000000  0.000000000  0.040341217

  length of vectors
     5.864743643  5.864743643 24.788543133     0.196888493  0.196888493  0.040341217


 FORCES acting on ions
    electron-ion (+dipol)            ewald-force                    non-local-force                 convergence-correction
 -----------------------------------------------------------------------------------------------
   -.130E-06 -.751E-07 0.208E+04   0.243E-11 0.141E-11 -.208E+04   -.629E-17 -.390E-17 -.165E+01   0.174E-07 0.100E-07 0.238E-01
   -.130E-06 -.751E-07 0.208E+04   0.240E-11 0.142E-11 -.208E+04   0.108E-17 -.867E-18 -.165E+01   0.174E-07 0.100E-07 0.238E-01
   -.130E-06 -.751E-07 0.208E+04   0.243E-11 0.147E-11 -.208E+04   0.152E-17 0.000E+00 -.165E+01   0.174E-07 0.100E-07 0.238E-01
   -.130E-06 -.751E-07 0.208E+04   0.241E-11 0.145E-11 -.208E+04   0.564E-17 -.434E-18 -.165E+01   0.174E-07 0.100E-07 0.238E-01
   -.429E-11 -.163E-11 0.665E-10   -.362E-11 -.221E-11 0.000E+00   -.108E-22 -.662E-23 -.711E-22   0.120E-12 0.110E-12 0.570E-11
   -.460E-11 -.262E-11 -.759E-11   -.365E-11 -.222E-11 0.114E-12   0.910E-23 0.414E-23 -.364E-22   0.781E-13 0.231E-12 0.646E-11
   -.280E-11 -.131E-11 0.661E-10   -.361E-11 -.217E-11 0.199E-12   0.116E-22 0.331E-23 -.397E-22   -.183E-12 -.358E-13 0.667E-11
   -.454E-11 -.260E-11 -.768E-11   -.364E-11 -.219E-11 0.171E-12   -.579E-23 0.517E-25 0.331E-22   -.198E-13 -.141E-12 0.668E-11
   0.130E-06 0.751E-07 -.208E+04   0.124E-11 0.742E-12 0.208E+04   -.369E-17 0.130E-17 0.165E+01   -.174E-07 -.100E-07 -.238E-01
   0.130E-06 0.751E-07 -.208E+04   0.121E-11 0.739E-12 0.208E+04   -.217E-18 0.520E-17 0.165E+01   -.174E-07 -.100E-07 -.238E-01
   0.130E-06 0.751E-07 -.208E+04   0.124E-11 0.772E-12 0.208E+04   0.412E-17 0.173E-17 0.165E+01   -.174E-07 -.100E-07 -.238E-01
   0.130E-06 0.751E-07 -.208E+04   0.121E-11 0.768E-12 0.208E+04   -.239E-17 0.130E-17 0.165E+01   -.174E-07 -.100E-07 -.238E-01
 -----------------------------------------------------------------------------------------------
   0.696E-11 0.619E-11 -.259E-10   0.418E-13 -.249E-13 0.000E+00   -.217E-18 0.434E-17 -.888E-15   0.369E-12 0.534E-12 0.653E-10
 
 
 POSITION                                       TOTAL-FORCE (eV/Angst)
 -----------------------------------------------------------------------------------
      1.46619      0.84650     10.01428         0.000000     -0.000000      0.015096
      4.39856      0.84650     10.01428        -0.000000      0.000000      0.015096
      2.93237      3.38601     10.01428         0.000000      0.000000      0.015096
      5.86474      3.38601     10.01428        -0.000000     -0.000000      0.015096
      5.86474      1.69301     12.39427        -0.000000      0.000000      0.000000
      2.93237      1.69301     12.39427        -0.000000      0.000000      0.000000
      7.33093      4.23251     12.39427        -0.000000      0.000000      0.000000
      4.39856      4.23251     12.39427        -0.000000      0.000000      0.000000
      0.00000      0.00000     14.77426        -0.000000     -0.000000     -0.015096
      2.93237      0.00000     14.77426         0.000000      0.000000     -0.015096
      1.46619      2.53951     14.77426        -0.000000      0.000000     -0.015096
      4.39856      2.53951     14.77426         0.000000     -0.000000     -0.015096
 -----------------------------------------------------------------------------------
    total drift:                                0.000000      0.000000      0.000000


--------------------------------------------------------------------------------------------------------



  FREE ENERGIE OF THE ION-ELECTRON SYSTEM (eV)
  ---------------------------------------------------
  free  energy   TOTEN  =       -29.80874611 eV

  energy  without entropy=      -29.80236949  energy(sigma->0) =      -29.80662057
 
 d Force = 0.4374155E-03[ 0.349E-03, 0.526E-03]  d Energy = 0.6787656E-03-0.241E-03
 d Force =-0.4807393E+02[-0.481E+02,-0.481E+02]  d Ewald  =-0.4807393E+02 0.113E-05


--------------------------------------------------------------------------------------------------------


    POTLOK:  cpu time    0.0321: real time    0.0321


--------------------------------------------------------------------------------------------------------




--------------------------------------------------------------------------------------------------------


  
 reached required accuracy - stopping structural energy minimisation
     LOOP+:  cpu time   17.1724: real time   17.2141
    4ORBIT:  cpu time    0.0000: real time    0.0000

 total amount of memory used by VASP on root node    75361. kBytes
========================================================================

   base      :      30000. kBytes
   nonl-proj :      25943. kBytes
   fftplans  :       1950. kBytes
   grid      :       6739. kBytes
   one-center:        186. kBytes
   wavefun   :      10543. kBytes
 
  
  
 General timing and accounting informations for this job:
 ========================================================
  
                  Total CPU time used (sec):      128.192
                            User time (sec):      126.227
                          System time (sec):        1.965
                         Elapsed time (sec):      128.892
  
                   Maximum memory used (kb):      111996.
                   Average memory used (kb):           0.
  
                          Minor page faults:       127887
                          Major page faults:           46
                 Voluntary context switches:         2095
