<?xml version="1.0" encoding="ISO-8859-1"?>
<modeling>
 <generator>
  <i name="program" type="string">vasp </i>
  <i name="version" type="string">5.4.1  </i>
  <i name="subversion" type="string">05Feb16 (build Feb 08 2018 09:21:51) complex                          parallel </i>
  <i name="platform" type="string">LinuxIFC </i>
  <i name="date" type="string">2019 11 21 </i>
  <i name="time" type="string">23:19:11 </i>
 </generator>
 <incar>
  <i type="string" name="PREC">normal</i>
  <i type="int" name="IBRION">     2</i>
  <i type="int" name="NSW">    20</i>
  <i name="ENCUT">    400.00000000</i>
  <i type="int" name="ISMEAR">     1</i>
  <i name="SIGMA">      0.10000000</i>
  <i type="logical" name="LWAVE"> F  </i>
  <i type="logical" name="LCHARG"> F  </i>
  <v type="int" name="KPOINT_BSE">    -1     0     0     0</v>
 </incar>
 <kpoints>
  <generation param="Monkhorst-Pack">
   <v type="int" name="divisions">       9        9        1 </v>
   <v name="usershift">      0.00000000       0.00000000       0.00000000 </v>
   <v name="genvec1">      0.11111111       0.00000000       0.00000000 </v>
   <v name="genvec2">      0.00000000       0.11111111       0.00000000 </v>
   <v name="genvec3">      0.00000000       0.00000000       1.00000000 </v>
   <v name="shift">      0.00000000       0.00000000       0.00000000 </v>
  </generation>
  <varray name="kpointlist" >
   <v>       0.00000000       0.00000000       0.00000000 </v>
   <v>       0.11111111       0.00000000       0.00000000 </v>
   <v>       0.22222222       0.00000000       0.00000000 </v>
   <v>       0.33333333       0.00000000       0.00000000 </v>
   <v>       0.44444444       0.00000000       0.00000000 </v>
   <v>       0.22222222       0.11111111       0.00000000 </v>
   <v>       0.33333333       0.11111111       0.00000000 </v>
   <v>       0.44444444       0.11111111       0.00000000 </v>
   <v>      -0.44444444       0.11111111       0.00000000 </v>
   <v>       0.44444444       0.22222222       0.00000000 </v>
   <v>      -0.44444444       0.22222222       0.00000000 </v>
   <v>      -0.33333333       0.33333333       0.00000000 </v>
  </varray>
  <varray name="weights" >
   <v>       0.01234568 </v>
   <v>       0.07407407 </v>
   <v>       0.07407407 </v>
   <v>       0.07407407 </v>
   <v>       0.07407407 </v>
   <v>       0.07407407 </v>
   <v>       0.14814815 </v>
   <v>       0.14814815 </v>
   <v>       0.07407407 </v>
   <v>       0.07407407 </v>
   <v>       0.14814815 </v>
   <v>       0.02469136 </v>
  </varray>
 </kpoints>
 <parameters>
  <separator name="general" >
   <i type="string" name="SYSTEM">unknown system</i>
   <i type="logical" name="LCOMPAT"> F  </i>
  </separator>
  <separator name="electronic" >
   <i type="string" name="PREC">normal</i>
   <i name="ENMAX">    400.00000000</i>
   <i name="ENAUG">    412.49600000</i>
   <i name="EDIFF">      0.00010000</i>
   <i type="int" name="IALGO">    38</i>
   <i type="int" name="IWAVPR">    11</i>
   <i type="int" name="NBANDS">    96</i>
   <i name="NELECT">    132.00000000</i>
   <i type="int" name="TURBO">     0</i>
   <i type="int" name="IRESTART">     0</i>
   <i type="int" name="NREBOOT">     0</i>
   <i type="int" name="NMIN">     0</i>
   <i name="EREF">      0.00000000</i>
   <separator name="electronic smearing" >
    <i type="int" name="ISMEAR">     1</i>
    <i name="SIGMA">      0.10000000</i>
    <i name="KSPACING">      0.50000000</i>
    <i type="logical" name="KGAMMA"> T  </i>
   </separator>
   <separator name="electronic projectors" >
    <i type="logical" name="LREAL"> F  </i>
    <v name="ROPT">      0.00000000</v>
    <i type="int" name="LMAXPAW">  -100</i>
    <i type="int" name="LMAXMIX">     2</i>
    <i type="logical" name="NLSPLINE"> F  </i>
   </separator>
   <separator name="electronic startup" >
    <i type="int" name="ISTART">     0</i>
    <i type="int" name="ICHARG">     2</i>
    <i type="int" name="INIWAV">     1</i>
   </separator>
   <separator name="electronic spin" >
    <i type="int" name="ISPIN">     1</i>
    <i type="logical" name="LNONCOLLINEAR"> F  </i>
    <v name="MAGMOM">      1.00000000      1.00000000      1.00000000      1.00000000      1.00000000      1.00000000      1.00000000      1.00000000      1.00000000      1.00000000      1.00000000      1.00000000</v>
    <i name="NUPDOWN">     -1.00000000</i>
    <i type="logical" name="LSORBIT"> F  </i>
    <v name="SAXIS">      0.00000000      0.00000000      1.00000000</v>
    <i type="logical" name="LSPIRAL"> F  </i>
    <v name="QSPIRAL">      0.00000000      0.00000000      0.00000000</v>
    <i type="logical" name="LZEROZ"> F  </i>
   </separator>
   <separator name="electronic exchange-correlation" >
    <i type="logical" name="LASPH"> F  </i>
    <i type="logical" name="LMETAGGA"> F  </i>
   </separator>
   <separator name="electronic convergence" >
    <i type="int" name="NELM">    60</i>
    <i type="int" name="NELMDL">    -5</i>
    <i type="int" name="NELMIN">     2</i>
    <i name="ENINI">    400.00000000</i>
    <separator name="electronic convergence detail" >
     <i type="logical" name="LDIAG"> T  </i>
     <i type="logical" name="LSUBROT"> F  </i>
     <i name="WEIMIN">      0.00100000</i>
     <i name="EBREAK">      0.00000026</i>
     <i name="DEPER">      0.30000000</i>
     <i type="int" name="NRMM">     4</i>
     <i name="TIME">      0.40000000</i>
    </separator>
   </separator>
   <separator name="electronic mixer" >
    <i name="AMIX">      0.40000000</i>
    <i name="BMIX">      1.00000000</i>
    <i name="AMIN">      0.10000000</i>
    <i name="AMIX_MAG">      1.60000000</i>
    <i name="BMIX_MAG">      1.00000000</i>
    <separator name="electronic mixer details" >
     <i type="int" name="IMIX">     4</i>
     <i type="logical" name="MIXFIRST"> F  </i>
     <i type="int" name="MAXMIX">   -45</i>
     <i name="WC">    100.00000000</i>
     <i type="int" name="INIMIX">     1</i>
     <i type="int" name="MIXPRE">     1</i>
     <i type="int" name="MREMOVE">     5</i>
    </separator>
   </separator>
   <separator name="electronic dipolcorrection" >
    <i type="logical" name="LDIPOL"> F  </i>
    <i type="logical" name="LMONO"> F  </i>
    <i type="int" name="IDIPOL">     0</i>
    <i name="EPSILON">      1.00000000</i>
    <v name="DIPOL">   -100.00000000   -100.00000000   -100.00000000</v>
    <i name="EFIELD">      0.00000000</i>
   </separator>
  </separator>
  <separator name="grids" >
   <i type="int" name="NGX">    30</i>
   <i type="int" name="NGY">    30</i>
   <i type="int" name="NGZ">   126</i>
   <i type="int" name="NGXF">    60</i>
   <i type="int" name="NGYF">    60</i>
   <i type="int" name="NGZF">   252</i>
   <i type="logical" name="ADDGRID"> F  </i>
  </separator>
  <separator name="ionic" >
   <i type="int" name="NSW">    20</i>
   <i type="int" name="IBRION">     2</i>
   <i type="int" name="ISIF">     2</i>
   <i name="PSTRESS">      0.00000000</i>
   <i name="EDIFFG">      0.00100000</i>
   <i type="int" name="NFREE">     1</i>
   <i name="POTIM">      0.50000000</i>
   <i name="SMASS">     -3.00000000</i>
   <i name="SCALEE">      1.00000000</i>
  </separator>
  <separator name="ionic md" >
   <i name="TEBEG">      0.00010000</i>
   <i name="TEEND">      0.00010000</i>
   <i type="int" name="NBLOCK">     1</i>
   <i type="int" name="KBLOCK">    20</i>
   <i type="int" name="NPACO">   256</i>
   <i name="APACO">     16.00000000</i>
  </separator>
  <separator name="symmetry" >
   <i type="int" name="ISYM">     2</i>
   <i name="SYMPREC">      0.00001000</i>
  </separator>
  <separator name="dos" >
   <i type="logical" name="LORBIT"> F  </i>
   <v name="RWIGS">     -1.00000000</v>
   <i type="int" name="NEDOS">   301</i>
   <i name="EMIN">     10.00000000</i>
   <i name="EMAX">    -10.00000000</i>
   <i name="EFERMI">      0.00000000</i>
  </separator>
  <separator name="writing" >
   <i type="int" name="NWRITE">     2</i>
   <i type="logical" name="LWAVE"> F  </i>
   <i type="logical" name="LCHARG"> F  </i>
   <i type="logical" name="LPARD"> F  </i>
   <i type="logical" name="LVTOT"> F  </i>
   <i type="logical" name="LVHAR"> F  </i>
   <i type="logical" name="LELF"> F  </i>
   <i type="logical" name="LOPTICS"> F  </i>
   <v name="STM">      0.00000000      0.00000000      0.00000000      0.00000000      0.00000000      0.00000000      0.00000000</v>
  </separator>
  <separator name="performance" >
   <i type="int" name="NPAR">    24</i>
   <i type="int" name="NSIM">     4</i>
   <i type="int" name="NBLK">    -1</i>
   <i type="logical" name="LPLANE"> T  </i>
   <i type="logical" name="LSCALAPACK"> F  </i>
   <i type="logical" name="LSCAAWARE"> F  </i>
   <i type="logical" name="LSCALU"> F  </i>
   <i type="logical" name="LASYNC"> F  </i>
   <i type="logical" name="LORBITALREAL"> F  </i>
  </separator>
  <separator name="miscellaneous" >
   <i type="int" name="IDIOT">     3</i>
   <i type="logical" name="LMUSIC"> F  </i>
   <v name="POMASS">    107.86800000</v>
   <v name="DARWINR">      0.00000000</v>
   <v name="DARWINV">      1.00000000</v>
   <i type="logical" name="LCORR"> T  </i>
  </separator>
  <i type="logical" name="GGA_COMPAT"> T  </i>
  <i type="logical" name="LBERRY"> F  </i>
  <i type="int" name="ICORELEVEL">     0</i>
  <i type="logical" name="LDAU"> F  </i>
  <i type="int" name="I_CONSTRAINED_M">     0</i>
  <separator name="electronic exchange-correlation" >
   <i type="string" name="GGA">--</i>
   <i type="int" name="VOSKOWN">     0</i>
   <i type="logical" name="LHFCALC"> F  </i>
   <i type="string" name="PRECFOCK"></i>
   <i type="logical" name="LSYMGRAD"> F  </i>
   <i type="logical" name="LHFONE"> F  </i>
   <i type="logical" name="LRHFCALC"> F  </i>
   <i type="logical" name="LTHOMAS"> F  </i>
   <i type="logical" name="LMODELHF"> F  </i>
   <i name="ENCUT4O">     -1.00000000</i>
   <i type="int" name="EXXOEP">     0</i>
   <i type="int" name="FOURORBIT">     0</i>
   <i name="AEXX">      0.00000000</i>
   <i name="HFALPHA">      0.00000000</i>
   <i name="MCALPHA">      0.00000000</i>
   <i name="ALDAX">      1.00000000</i>
   <i name="AGGAX">      1.00000000</i>
   <i name="ALDAC">      1.00000000</i>
   <i name="AGGAC">      1.00000000</i>
   <i type="int" name="NKREDX">     1</i>
   <i type="int" name="NKREDY">     1</i>
   <i type="int" name="NKREDZ">     1</i>
   <i type="logical" name="SHIFTRED"> F  </i>
   <i type="logical" name="ODDONLY"> F  </i>
   <i type="logical" name="EVENONLY"> F  </i>
   <i type="int" name="LMAXFOCK">     0</i>
   <i type="int" name="NMAXFOCKAE">     0</i>
   <i type="logical" name="LFOCKAEDFT"> F  </i>
   <i name="HFSCREEN">      0.00000000</i>
   <i name="HFSCREENC">      0.00000000</i>
   <i type="int" name="NBANDSGWLOW">     0</i>
  </separator>
  <separator name="vdW DFT" >
   <i type="logical" name="LUSE_VDW"> F  </i>
   <i name="Zab_VDW">     -0.84910000</i>
   <i name="PARAM1">      0.12340000</i>
   <i name="PARAM2">      1.00000000</i>
   <i name="PARAM3">      0.00000000</i>
  </separator>
  <separator name="model GW" >
   <i type="int" name="MODEL_GW">     0</i>
   <i name="MODEL_EPS0">     36.91898101</i>
   <i name="MODEL_ALPHA">      1.00000000</i>
  </separator>
  <separator name="linear response parameters" >
   <i type="logical" name="LEPSILON"> F  </i>
   <i type="logical" name="LRPA"> F  </i>
   <i type="logical" name="LNABLA"> F  </i>
   <i type="logical" name="LVEL"> F  </i>
   <i type="int" name="KINTER">     0</i>
   <i name="CSHIFT">      0.10000000</i>
   <i name="OMEGAMAX">     -1.00000000</i>
   <i name="DEG_THRESHOLD">      0.00200000</i>
  </separator>
  <separator name="orbital magnetization" >
   <i type="logical" name="NUCIND"> F  </i>
   <v name="MAGPOS">      0.00000000      0.00000000      0.00000000</v>
   <i type="logical" name="LNICSALL"> T  </i>
   <i type="logical" name="ORBITALMAG"> F  </i>
   <i type="logical" name="LMAGBLOCH"> F  </i>
   <i type="logical" name="LCHIMAG"> F  </i>
   <i type="logical" name="LGAUGE"> T  </i>
   <i type="int" name="MAGATOM">     0</i>
   <v name="MAGDIPOL">      0.00000000      0.00000000      0.00000000</v>
   <v name="AVECCONST">      0.00000000      0.00000000      0.00000000</v>
  </separator>
  <separator name="response functions" >
   <i type="logical" name="LADDER"> F  </i>
   <i type="logical" name="LFXC"> F  </i>
   <i type="logical" name="LHARTREE"> T  </i>
   <i type="int" name="IBSE">     0</i>
   <v type="int" name="KPOINT">    -1     0     0     0</v>
   <i type="logical" name="LTCTE"> F  </i>
   <i type="logical" name="LTETE"> F  </i>
   <i type="logical" name="LTRIPLET"> F  </i>
   <i type="logical" name="LFXCEPS"> F  </i>
   <i type="logical" name="LFXHEG"> F  </i>
   <i type="int" name="NATURALO">     0</i>
   <i type="logical" name="L2ORDER"> F  </i>
   <i type="logical" name="LUSEW"> F  </i>
   <i name="ENCUTGW">     -2.00000000</i>
   <i name="ENCUTGWSOFT">     -2.00000000</i>
   <i name="ENCUTLF">     -1.00000000</i>
   <i type="int" name="LMAXMP2">    -1</i>
   <i name="SCISSOR">      0.00000000</i>
   <i type="int" name="NOMEGA">     0</i>
   <i type="int" name="NOMEGAR">     0</i>
   <i type="int" name="NBANDSGW">    -1</i>
   <i type="int" name="NBANDSO">    -1</i>
   <i type="int" name="NBANDSV">    -1</i>
   <i type="int" name="NELM">     1</i>
   <i type="int" name="NELMHF">     1</i>
   <i type="int" name="DIM">     3</i>
   <i type="int" name="ANTIRES">     0</i>
   <i name="OMEGAMAX">    -30.00000000</i>
   <i name="OMEGAMIN">    -30.00000000</i>
   <i name="OMEGATL">   -200.00000000</i>
   <i type="int" name="OMEGAGRID">     0</i>
   <i name="CSHIFT">     -0.10000000</i>
   <i type="logical" name="SELFENERGY"> F  </i>
   <i type="logical" name="LSPECTRAL"> F  </i>
   <i type="logical" name="LSPECTRALGW"> F  </i>
   <i type="logical" name="LSINGLES"> F  </i>
   <i type="logical" name="LFERMIGW"> F  </i>
   <i type="logical" name="ODDONLYGW"> F  </i>
   <i type="logical" name="EVENONLYGW"> F  </i>
   <i type="int" name="NKREDLFX">     1</i>
   <i type="int" name="NKREDLFY">     1</i>
   <i type="int" name="NKREDLFZ">     1</i>
   <i type="int" name="MAXMEM">  1800</i>
   <i type="int" name="TELESCOPE">     0</i>
   <i type="int" name="TAUPAR">     1</i>
   <i type="int" name="OMEGAPAR">    -1</i>
   <i name="LAMBDA">      1.00000000</i>
  </separator>
  <separator name="External order field" >
   <i name="OFIELD_KAPPA">      0.00000000</i>
   <v name="OFIELD_K">      0.00000000      0.00000000      0.00000000</v>
   <i name="OFIELD_Q6_NEAR">      0.00000000</i>
   <i name="OFIELD_Q6_FAR">      0.00000000</i>
   <i name="OFIELD_A">      0.00000000</i>
  </separator>
 </parameters>
 <atominfo>
  <atoms>      12 </atoms>
  <types>       1 </types>
  <array name="atoms" >
   <dimension dim="1">ion</dimension>
   <field type="string">element</field>
   <field type="int">atomtype</field>
   <set>
    <rc><c>Ag</c><c>   1</c></rc>
    <rc><c>Ag</c><c>   1</c></rc>
    <rc><c>Ag</c><c>   1</c></rc>
    <rc><c>Ag</c><c>   1</c></rc>
    <rc><c>Ag</c><c>   1</c></rc>
    <rc><c>Ag</c><c>   1</c></rc>
    <rc><c>Ag</c><c>   1</c></rc>
    <rc><c>Ag</c><c>   1</c></rc>
    <rc><c>Ag</c><c>   1</c></rc>
    <rc><c>Ag</c><c>   1</c></rc>
    <rc><c>Ag</c><c>   1</c></rc>
    <rc><c>Ag</c><c>   1</c></rc>
   </set>
  </array>
  <array name="atomtypes" >
   <dimension dim="1">type</dimension>
   <field type="int">atomspertype</field>
   <field type="string">element</field>
   <field>mass</field>
   <field>valence</field>
   <field type="string">pseudopotential</field>
   <set>
    <rc><c>  12</c><c>Ag</c><c>    107.86800000</c><c>     11.00000000</c><c>  PAW_PBE Ag 02Apr2005                  </c></rc>
   </set>
  </array>
 </atominfo>
 <structure name="initialpos" >
  <crystal>
   <varray name="basis" >
    <v>       5.86474364       0.00000000       0.00000000 </v>
    <v>       2.93237182       5.07901698       0.00000000 </v>
    <v>       0.00000000       0.00000000      24.78854313 </v>
   </varray>
   <i name="volume">    738.37962018 </i>
   <varray name="rec_basis" >
    <v>       0.17051044      -0.09844425       0.00000000 </v>
    <v>       0.00000000       0.19688849       0.00000000 </v>
    <v>       0.00000000       0.00000000       0.04034122 </v>
   </varray>
  </crystal>
  <varray name="positions" >
   <v>       0.16666667       0.16666667       0.40341217 </v>
   <v>       0.66666667       0.16666667       0.40341217 </v>
   <v>       0.16666667       0.66666667       0.40341217 </v>
   <v>       0.66666667       0.66666667       0.40341217 </v>
   <v>       0.83333333       0.33333333       0.50000000 </v>
   <v>       0.33333333       0.33333333       0.50000000 </v>
   <v>       0.83333333       0.83333333       0.50000000 </v>
   <v>       0.33333333       0.83333333       0.50000000 </v>
   <v>       0.00000000       0.00000000       0.59658783 </v>
   <v>       0.50000000       0.00000000       0.59658783 </v>
   <v>       0.00000000       0.50000000       0.59658783 </v>
   <v>       0.50000000       0.50000000       0.59658783 </v>
  </varray>
 </structure>
 <calculation>
  <scstep>
   <time name="dav">    3.68    3.68</time>
   <time name="total">    3.73    3.74</time>
   <energy>
    <i name="alphaZ">    165.88112482 </i>
    <i name="ewald">  46108.92656615 </i>
    <i name="hartreedc"> -58577.64777584 </i>
    <i name="XCdc">   -129.51007930 </i>
    <i name="pawpsdc">  12041.54579192 </i>
    <i name="pawaedc"> -11488.19129077 </i>
    <i name="eentropy">     -0.00213857 </i>
    <i name="bandstr">    108.30264200 </i>
    <i name="atom">  12447.10114051 </i>
    <i name="e_fr_energy">    676.40598091 </i>
    <i name="e_wo_entrp">    676.40811948 </i>
    <i name="e_0_energy">    676.40669377 </i>
   </energy>
  </scstep>
  <scstep>
   <time name="dav">    3.85    3.85</time>
   <time name="total">    3.85    3.86</time>
   <energy>
    <i name="e_fr_energy">    -12.31248931 </i>
    <i name="e_wo_entrp">    -12.30649987 </i>
    <i name="e_0_energy">    -12.31049283 </i>
   </energy>
  </scstep>
  <scstep>
   <time name="dav">    4.16    4.19</time>
   <time name="total">    4.17    4.21</time>
   <energy>
    <i name="e_fr_energy">    -31.92260938 </i>
    <i name="e_wo_entrp">    -31.92107493 </i>
    <i name="e_0_energy">    -31.92209790 </i>
   </energy>
  </scstep>
  <scstep>
   <time name="dav">    4.36    4.41</time>
   <time name="total">    4.36    4.41</time>
   <energy>
    <i name="e_fr_energy">    -32.09021402 </i>
    <i name="e_wo_entrp">    -32.08864504 </i>
    <i name="e_0_energy">    -32.08969102 </i>
   </energy>
  </scstep>
  <scstep>
   <time name="dav">    4.42    4.44</time>
   <time name="total">    4.56    4.59</time>
   <energy>
    <i name="e_fr_energy">    -32.09265943 </i>
    <i name="e_wo_entrp">    -32.09108497 </i>
    <i name="e_0_energy">    -32.09213461 </i>
   </energy>
  </scstep>
  <scstep>
   <time name="dav">    3.87    3.87</time>
   <time name="total">    4.06    4.07</time>
   <energy>
    <i name="e_fr_energy">    -29.89484038 </i>
    <i name="e_wo_entrp">    -29.88857916 </i>
    <i name="e_0_energy">    -29.89275330 </i>
   </energy>
  </scstep>
  <scstep>
   <time name="dav">    4.02    4.03</time>
   <time name="total">    4.21    4.22</time>
   <energy>
    <i name="e_fr_energy">    -29.82593890 </i>
    <i name="e_wo_entrp">    -29.81898707 </i>
    <i name="e_0_energy">    -29.82362162 </i>
   </energy>
  </scstep>
  <scstep>
   <time name="dav">    3.74    3.75</time>
   <time name="total">    3.93    3.94</time>
   <energy>
    <i name="e_fr_energy">    -29.80378517 </i>
    <i name="e_wo_entrp">    -29.79779860 </i>
    <i name="e_0_energy">    -29.80178964 </i>
   </energy>
  </scstep>
  <scstep>
   <time name="dav">    4.32    4.33</time>
   <time name="total">    4.51    4.52</time>
   <energy>
    <i name="e_fr_energy">    -29.80361225 </i>
    <i name="e_wo_entrp">    -29.79761888 </i>
    <i name="e_0_energy">    -29.80161446 </i>
   </energy>
  </scstep>
  <scstep>
   <time name="dav">    3.55    3.55</time>
   <time name="total">    3.74    3.74</time>
   <energy>
    <i name="e_fr_energy">    -29.80337700 </i>
    <i name="e_wo_entrp">    -29.79737619 </i>
    <i name="e_0_energy">    -29.80137673 </i>
   </energy>
  </scstep>
  <scstep>
   <time name="dav">    3.38    3.38</time>
   <time name="total">    3.57    3.57</time>
   <energy>
    <i name="e_fr_energy">    -29.80319235 </i>
    <i name="e_wo_entrp">    -29.79726258 </i>
    <i name="e_0_energy">    -29.80121576 </i>
   </energy>
  </scstep>
  <scstep>
   <time name="dav">    3.18    3.18</time>
   <time name="total">    3.21    3.21</time>
   <energy>
    <i name="alphaZ">    165.88112482 </i>
    <i name="ewald">  46108.92656615 </i>
    <i name="hartreedc"> -58491.67977309 </i>
    <i name="XCdc">   -134.18332525 </i>
    <i name="pawpsdc">  13057.20081241 </i>
    <i name="pawaedc"> -12528.59481297 </i>
    <i name="eentropy">     -0.00586860 </i>
    <i name="bandstr">   -654.44910300 </i>
    <i name="atom">  12447.10114051 </i>
    <i name="e_fr_energy">    -29.80323903 </i>
    <i name="e_wo_entrp">    -29.79737043 </i>
    <i name="e_0_energy">    -29.80128283 </i>
   </energy>
  </scstep>
  <structure>
   <crystal>
    <varray name="basis" >
     <v>       5.86474364       0.00000000       0.00000000 </v>
     <v>       2.93237182       5.07901698       0.00000000 </v>
     <v>       0.00000000       0.00000000      24.78854313 </v>
    </varray>
    <i name="volume">    738.37962018 </i>
    <varray name="rec_basis" >
     <v>       0.17051044      -0.09844425       0.00000000 </v>
     <v>       0.00000000       0.19688849       0.00000000 </v>
     <v>       0.00000000       0.00000000       0.04034122 </v>
    </varray>
   </crystal>
   <varray name="positions" >
    <v>       0.16666667       0.16666667       0.40341217 </v>
    <v>       0.66666667       0.16666667       0.40341217 </v>
    <v>       0.16666667       0.66666667       0.40341217 </v>
    <v>       0.66666667       0.66666667       0.40341217 </v>
    <v>       0.83333333       0.33333333       0.50000000 </v>
    <v>       0.33333333       0.33333333       0.50000000 </v>
    <v>       0.83333333       0.83333333       0.50000000 </v>
    <v>       0.33333333       0.83333333       0.50000000 </v>
    <v>       0.00000000       0.00000000       0.59658783 </v>
    <v>       0.50000000       0.00000000       0.59658783 </v>
    <v>       0.00000000       0.50000000       0.59658783 </v>
    <v>       0.50000000       0.50000000       0.59658783 </v>
   </varray>
  </structure>
  <varray name="forces" >
   <v>       0.00000000      -0.00000000       0.06116580 </v>
   <v>       0.00000000      -0.00000000       0.06116580 </v>
   <v>       0.00000000       0.00000000       0.06116580 </v>
   <v>       0.00000000      -0.00000000       0.06116580 </v>
   <v>       0.00000000      -0.00000000      -0.00000000 </v>
   <v>       0.00000000      -0.00000000      -0.00000000 </v>
   <v>       0.00000000      -0.00000000      -0.00000000 </v>
   <v>       0.00000000      -0.00000000      -0.00000000 </v>
   <v>       0.00000000       0.00000000      -0.06116580 </v>
   <v>      -0.00000000       0.00000000      -0.06116580 </v>
   <v>      -0.00000000       0.00000000      -0.06116580 </v>
   <v>      -0.00000000       0.00000000      -0.06116580 </v>
  </varray>
  <varray name="stress" >
   <v>      -8.83586610       0.00000000       0.00000000 </v>
   <v>       0.00000000      -8.83586610       0.00000000 </v>
   <v>       0.00000000       0.00000000      -3.43507541 </v>
  </varray>
  <energy>
   <i name="e_fr_energy">    -29.80323903 </i>
   <i name="e_wo_entrp">    -29.80128283 </i>
   <i name="e_0_energy">     -0.00586860 </i>
  </energy>
  <time name="totalsc">   54.35   54.56</time>
 </calculation>
 <calculation>
  <scstep>
   <time name="dav">    3.75    3.76</time>
   <time name="total">    3.93    3.95</time>
   <energy>
    <i name="alphaZ">    165.88112482 </i>
    <i name="ewald">  46157.96167802 </i>
    <i name="hartreedc"> -58542.76808670 </i>
    <i name="XCdc">   -134.14842402 </i>
    <i name="pawpsdc">  13056.46894633 </i>
    <i name="pawaedc"> -12527.86526692 </i>
    <i name="eentropy">     -0.00593897 </i>
    <i name="bandstr">   -652.42965789 </i>
    <i name="atom">  12447.10114051 </i>
    <i name="e_fr_energy">    -29.80448483 </i>
    <i name="e_wo_entrp">    -29.79854586 </i>
    <i name="e_0_energy">    -29.80250518 </i>
   </energy>
  </scstep>
  <scstep>
   <time name="dav">    3.92    3.93</time>
   <time name="total">    4.11    4.12</time>
   <energy>
    <i name="e_fr_energy">    -29.80485642 </i>
    <i name="e_wo_entrp">    -29.79888689 </i>
    <i name="e_0_energy">    -29.80286658 </i>
   </energy>
  </scstep>
  <scstep>
   <time name="dav">    2.95    2.95</time>
   <time name="total">    2.98    2.99</time>
   <energy>
    <i name="alphaZ">    165.88112482 </i>
    <i name="ewald">  46157.96167802 </i>
    <i name="hartreedc"> -58542.88248827 </i>
    <i name="XCdc">   -134.15227753 </i>
    <i name="pawpsdc">  13058.44222395 </i>
    <i name="pawaedc"> -12529.87680375 </i>
    <i name="eentropy">     -0.00597319 </i>
    <i name="bandstr">   -652.27354304 </i>
    <i name="atom">  12447.10114051 </i>
    <i name="e_fr_energy">    -29.80491849 </i>
    <i name="e_wo_entrp">    -29.79894529 </i>
    <i name="e_0_energy">    -29.80292742 </i>
   </energy>
  </scstep>
  <structure>
   <crystal>
    <varray name="basis" >
     <v>       5.86474364       0.00000000       0.00000000 </v>
     <v>       2.93237182       5.07901698       0.00000000 </v>
     <v>       0.00000000       0.00000000      24.78854313 </v>
    </varray>
    <i name="volume">    738.37962018 </i>
    <varray name="rec_basis" >
     <v>       0.17051044      -0.09844425       0.00000000 </v>
     <v>       0.00000000       0.19688849       0.00000000 </v>
     <v>       0.00000000       0.00000000       0.04034122 </v>
    </varray>
   </crystal>
   <varray name="positions" >
    <v>       0.16666667       0.16666667       0.40353121 </v>
    <v>       0.66666667       0.16666667       0.40353121 </v>
    <v>       0.16666667       0.66666667       0.40353121 </v>
    <v>       0.66666667       0.66666667       0.40353121 </v>
    <v>       0.83333333       0.33333333       0.50000000 </v>
    <v>       0.33333333       0.33333333       0.50000000 </v>
    <v>       0.83333333       0.83333333       0.50000000 </v>
    <v>       0.33333333       0.83333333       0.50000000 </v>
    <v>       0.00000000       0.00000000       0.59646879 </v>
    <v>       0.50000000       0.00000000       0.59646879 </v>
    <v>      -0.00000000       0.50000000       0.59646879 </v>
    <v>       0.50000000       0.50000000       0.59646879 </v>
   </varray>
  </structure>
  <varray name="forces" >
   <v>      -0.00000000      -0.00000000       0.04386456 </v>
   <v>      -0.00000000      -0.00000000       0.04386456 </v>
   <v>       0.00000000       0.00000000       0.04386456 </v>
   <v>       0.00000000      -0.00000000       0.04386456 </v>
   <v>       0.00000000       0.00000000       0.00000000 </v>
   <v>       0.00000000       0.00000000       0.00000000 </v>
   <v>       0.00000000       0.00000000       0.00000000 </v>
   <v>       0.00000000       0.00000000       0.00000000 </v>
   <v>      -0.00000000      -0.00000000      -0.04386456 </v>
   <v>      -0.00000000      -0.00000000      -0.04386456 </v>
   <v>       0.00000000       0.00000000      -0.04386456 </v>
   <v>      -0.00000000       0.00000000      -0.04386456 </v>
  </varray>
  <varray name="stress" >
   <v>      -8.71390141       0.00000000       0.00000000 </v>
   <v>       0.00000000      -8.71390141       0.00000000 </v>
   <v>       0.00000000      -0.00000000      -3.33343842 </v>
  </varray>
  <energy>
   <i name="e_fr_energy">    -29.80491849 </i>
   <i name="e_wo_entrp">    -29.80292742 </i>
   <i name="e_0_energy">     -0.00597319 </i>
  </energy>
  <time name="totalsc">   17.95   18.05</time>
 </calculation>
 <calculation>
  <scstep>
   <time name="dav">    4.03    4.03</time>
   <time name="total">    4.22    4.23</time>
   <energy>
    <i name="alphaZ">    165.88112482 </i>
    <i name="ewald">  46282.38470225 </i>
    <i name="hartreedc"> -58667.16604847 </i>
    <i name="XCdc">   -134.08041779 </i>
    <i name="pawpsdc">  13059.53899837 </i>
    <i name="pawaedc"> -12530.99656960 </i>
    <i name="eentropy">     -0.00621199 </i>
    <i name="bandstr">   -652.46255772 </i>
    <i name="atom">  12447.10114051 </i>
    <i name="e_fr_energy">    -29.80583962 </i>
    <i name="e_wo_entrp">    -29.79962762 </i>
    <i name="e_0_energy">    -29.80376895 </i>
   </energy>
  </scstep>
  <scstep>
   <time name="dav">    4.56    4.57</time>
   <time name="total">    4.75    4.75</time>
   <energy>
    <i name="e_fr_energy">    -29.80775102 </i>
    <i name="e_wo_entrp">    -29.80145000 </i>
    <i name="e_0_energy">    -29.80565068 </i>
   </energy>
  </scstep>
  <scstep>
   <time name="dav">    4.32    4.32</time>
   <time name="total">    4.35    4.36</time>
   <energy>
    <i name="alphaZ">    165.88112482 </i>
    <i name="ewald">  46282.38470225 </i>
    <i name="hartreedc"> -58667.08253979 </i>
    <i name="XCdc">   -134.09120681 </i>
    <i name="pawpsdc">  13065.17541803 </i>
    <i name="pawaedc"> -12536.72263552 </i>
    <i name="eentropy">     -0.00628417 </i>
    <i name="bandstr">   -652.44747743 </i>
    <i name="atom">  12447.10114051 </i>
    <i name="e_fr_energy">    -29.80775810 </i>
    <i name="e_wo_entrp">    -29.80147393 </i>
    <i name="e_0_energy">    -29.80566338 </i>
   </energy>
  </scstep>
  <structure>
   <crystal>
    <varray name="basis" >
     <v>       5.86474364       0.00000000       0.00000000 </v>
     <v>       2.93237182       5.07901698       0.00000000 </v>
     <v>       0.00000000       0.00000000      24.78854313 </v>
    </varray>
    <i name="volume">    738.37962018 </i>
    <varray name="rec_basis" >
     <v>       0.17051044      -0.09844425       0.00000000 </v>
     <v>       0.00000000       0.19688849       0.00000000 </v>
     <v>       0.00000000       0.00000000       0.04034122 </v>
    </varray>
   </crystal>
   <varray name="positions" >
    <v>       0.16666667       0.16666667       0.40383301 </v>
    <v>       0.66666667       0.16666667       0.40383301 </v>
    <v>       0.16666667       0.66666667       0.40383301 </v>
    <v>       0.66666667       0.66666667       0.40383301 </v>
    <v>       0.83333333       0.33333333       0.50000000 </v>
    <v>       0.33333333       0.33333333       0.50000000 </v>
    <v>       0.83333333       0.83333333       0.50000000 </v>
    <v>       0.33333333       0.83333333       0.50000000 </v>
    <v>       0.00000000       0.00000000       0.59616699 </v>
    <v>       0.50000000       0.00000000       0.59616699 </v>
    <v>      -0.00000000       0.50000000       0.59616699 </v>
    <v>       0.50000000       0.50000000       0.59616699 </v>
   </varray>
  </structure>
  <varray name="forces" >
   <v>      -0.00000000       0.00000000       0.02845735 </v>
   <v>      -0.00000000      -0.00000000       0.02845735 </v>
   <v>      -0.00000000      -0.00000000       0.02845735 </v>
   <v>       0.00000000      -0.00000000       0.02845735 </v>
   <v>      -0.00000000       0.00000000       0.00000000 </v>
   <v>      -0.00000000       0.00000000       0.00000000 </v>
   <v>      -0.00000000       0.00000000       0.00000000 </v>
   <v>      -0.00000000       0.00000000       0.00000000 </v>
   <v>       0.00000000       0.00000000      -0.02845735 </v>
   <v>       0.00000000       0.00000000      -0.02845735 </v>
   <v>       0.00000000      -0.00000000      -0.02845735 </v>
   <v>       0.00000000       0.00000000      -0.02845735 </v>
  </varray>
  <varray name="stress" >
   <v>      -8.30536727       0.00000000       0.00000000 </v>
   <v>       0.00000000      -8.30536727       0.00000000 </v>
   <v>       0.00000000      -0.00000000      -2.46913135 </v>
  </varray>
  <energy>
   <i name="e_fr_energy">    -29.80775810 </i>
   <i name="e_wo_entrp">    -29.80566338 </i>
   <i name="e_0_energy">     -0.00628417 </i>
  </energy>
  <time name="totalsc">   20.32   20.35</time>
 </calculation>
 <calculation>
  <scstep>
   <time name="dav">    4.47    4.47</time>
   <time name="total">    4.68    4.68</time>
   <energy>
    <i name="alphaZ">    165.88112482 </i>
    <i name="ewald">  46298.40450019 </i>
    <i name="hartreedc"> -58683.15733153 </i>
    <i name="XCdc">   -134.08301587 </i>
    <i name="pawpsdc">  13067.87934023 </i>
    <i name="pawaedc"> -12539.47201355 </i>
    <i name="eentropy">     -0.00632732 </i>
    <i name="bandstr">   -652.35543677 </i>
    <i name="atom">  12447.10114051 </i>
    <i name="e_fr_energy">    -29.80801929 </i>
    <i name="e_wo_entrp">    -29.80169197 </i>
    <i name="e_0_energy">    -29.80591018 </i>
   </energy>
  </scstep>
  <scstep>
   <time name="dav">    4.47    4.48</time>
   <time name="total">    4.58    4.66</time>
   <energy>
    <i name="alphaZ">    165.88112482 </i>
    <i name="ewald">  46298.40450019 </i>
    <i name="hartreedc"> -58683.25542279 </i>
    <i name="XCdc">   -134.08475108 </i>
    <i name="pawpsdc">  13068.58216288 </i>
    <i name="pawaedc"> -12540.18496442 </i>
    <i name="eentropy">     -0.00634195 </i>
    <i name="bandstr">   -652.24551550 </i>
    <i name="atom">  12447.10114051 </i>
    <i name="e_fr_energy">    -29.80806734 </i>
    <i name="e_wo_entrp">    -29.80172540 </i>
    <i name="e_0_energy">    -29.80595336 </i>
   </energy>
  </scstep>
  <structure>
   <crystal>
    <varray name="basis" >
     <v>       5.86474364       0.00000000       0.00000000 </v>
     <v>       2.93237182       5.07901698       0.00000000 </v>
     <v>       0.00000000       0.00000000      24.78854313 </v>
    </varray>
    <i name="volume">    738.37962018 </i>
    <varray name="rec_basis" >
     <v>       0.17051044      -0.09844425       0.00000000 </v>
     <v>       0.00000000       0.19688849       0.00000000 </v>
     <v>       0.00000000       0.00000000       0.04034122 </v>
    </varray>
   </crystal>
   <varray name="positions" >
    <v>       0.16666667       0.16666667       0.40387185 </v>
    <v>       0.66666667       0.16666667       0.40387185 </v>
    <v>       0.16666667       0.66666667       0.40387185 </v>
    <v>       0.66666667       0.66666667       0.40387185 </v>
    <v>       0.83333333       0.33333333       0.50000000 </v>
    <v>       0.33333333       0.33333333       0.50000000 </v>
    <v>       0.83333333       0.83333333       0.50000000 </v>
    <v>       0.33333333       0.83333333       0.50000000 </v>
    <v>       0.00000000       0.00000000       0.59612815 </v>
    <v>       0.50000000       0.00000000       0.59612815 </v>
    <v>      -0.00000000       0.50000000       0.59612815 </v>
    <v>       0.50000000       0.50000000       0.59612815 </v>
   </varray>
  </structure>
  <varray name="forces" >
   <v>       0.00000000       0.00000000       0.02277165 </v>
   <v>       0.00000000       0.00000000       0.02277165 </v>
   <v>       0.00000000       0.00000000       0.02277165 </v>
   <v>       0.00000000       0.00000000       0.02277165 </v>
   <v>      -0.00000000       0.00000000       0.00000000 </v>
   <v>      -0.00000000       0.00000000       0.00000000 </v>
   <v>      -0.00000000       0.00000000       0.00000000 </v>
   <v>      -0.00000000       0.00000000       0.00000000 </v>
   <v>      -0.00000000      -0.00000000      -0.02277165 </v>
   <v>      -0.00000000       0.00000000      -0.02277165 </v>
   <v>      -0.00000000      -0.00000000      -0.02277165 </v>
   <v>       0.00000000      -0.00000000      -0.02277165 </v>
  </varray>
  <varray name="stress" >
   <v>      -8.27729681       0.00000000       0.00000000 </v>
   <v>       0.00000000      -8.27729681       0.00000000 </v>
   <v>       0.00000000       0.00000000      -2.46019180 </v>
  </varray>
  <energy>
   <i name="e_fr_energy">    -29.80806734 </i>
   <i name="e_wo_entrp">    -29.80595336 </i>
   <i name="e_0_energy">     -0.00634195 </i>
  </energy>
  <time name="totalsc">   16.32   16.44</time>
 </calculation>
 <calculation>
  <scstep>
   <time name="dav">    3.56    3.56</time>
   <time name="total">    3.76    3.76</time>
   <energy>
    <i name="alphaZ">    165.88112482 </i>
    <i name="ewald">  46346.47842979 </i>
    <i name="hartreedc"> -58731.22155786 </i>
    <i name="XCdc">   -134.05677180 </i>
    <i name="pawpsdc">  13068.95938536 </i>
    <i name="pawaedc"> -12540.56943851 </i>
    <i name="eentropy">     -0.00634662 </i>
    <i name="bandstr">   -652.37442092 </i>
    <i name="atom">  12447.10114051 </i>
    <i name="e_fr_energy">    -29.80845524 </i>
    <i name="e_wo_entrp">    -29.80210862 </i>
    <i name="e_0_energy">    -29.80633970 </i>
   </energy>
  </scstep>
  <scstep>
   <time name="dav">    4.06    4.06</time>
   <time name="total">    4.25    4.26</time>
   <energy>
    <i name="e_fr_energy">    -29.80874379 </i>
    <i name="e_wo_entrp">    -29.80235614 </i>
    <i name="e_0_energy">    -29.80661457 </i>
   </energy>
  </scstep>
  <scstep>
   <time name="dav">    2.90    2.90</time>
   <time name="total">    2.93    2.94</time>
   <energy>
    <i name="alphaZ">    165.88112482 </i>
    <i name="ewald">  46346.47842979 </i>
    <i name="hartreedc"> -58731.19726650 </i>
    <i name="XCdc">   -134.06094132 </i>
    <i name="pawpsdc">  13071.45827441 </i>
    <i name="pawaedc"> -12543.10842813 </i>
    <i name="eentropy">     -0.00637662 </i>
    <i name="bandstr">   -652.35470307 </i>
    <i name="atom">  12447.10114051 </i>
    <i name="e_fr_energy">    -29.80874611 </i>
    <i name="e_wo_entrp">    -29.80236949 </i>
    <i name="e_0_energy">    -29.80662057 </i>
   </energy>
  </scstep>
  <structure>
   <crystal>
    <varray name="basis" >
     <v>       5.86474364       0.00000000       0.00000000 </v>
     <v>       2.93237182       5.07901698       0.00000000 </v>
     <v>       0.00000000       0.00000000      24.78854313 </v>
    </varray>
    <i name="volume">    738.37962018 </i>
    <varray name="rec_basis" >
     <v>       0.17051044      -0.09844425       0.00000000 </v>
     <v>       0.00000000       0.19688849       0.00000000 </v>
     <v>       0.00000000       0.00000000       0.04034122 </v>
    </varray>
   </crystal>
   <varray name="positions" >
    <v>       0.16666667       0.16666667       0.40398834 </v>
    <v>       0.66666667       0.16666667       0.40398834 </v>
    <v>       0.16666667       0.66666667       0.40398834 </v>
    <v>       0.66666667       0.66666667       0.40398834 </v>
    <v>       0.83333333       0.33333333       0.50000000 </v>
    <v>       0.33333333       0.33333333       0.50000000 </v>
    <v>       0.83333333       0.83333333       0.50000000 </v>
    <v>       0.33333333       0.83333333       0.50000000 </v>
    <v>       0.00000000       0.00000000       0.59601166 </v>
    <v>       0.50000000       0.00000000       0.59601166 </v>
    <v>       0.00000000       0.50000000       0.59601166 </v>
    <v>       0.50000000       0.50000000       0.59601166 </v>
   </varray>
  </structure>
  <varray name="forces" >
   <v>       0.00000000      -0.00000000       0.01509601 </v>
   <v>      -0.00000000       0.00000000       0.01509601 </v>
   <v>       0.00000000       0.00000000       0.01509601 </v>
   <v>      -0.00000000      -0.00000000       0.01509601 </v>
   <v>      -0.00000000       0.00000000       0.00000000 </v>
   <v>      -0.00000000       0.00000000       0.00000000 </v>
   <v>      -0.00000000       0.00000000       0.00000000 </v>
   <v>      -0.00000000       0.00000000       0.00000000 </v>
   <v>      -0.00000000      -0.00000000      -0.01509601 </v>
   <v>       0.00000000       0.00000000      -0.01509601 </v>
   <v>      -0.00000000       0.00000000      -0.01509601 </v>
   <v>       0.00000000      -0.00000000      -0.01509601 </v>
  </varray>
  <varray name="stress" >
   <v>      -8.12641981       0.00000000       0.00000000 </v>
   <v>       0.00000000      -8.12641981      -0.00000000 </v>
   <v>       0.00000000       0.00000000      -2.12265448 </v>
  </varray>
  <energy>
   <i name="e_fr_energy">    -29.80874611 </i>
   <i name="e_wo_entrp">    -29.80662057 </i>
   <i name="e_0_energy">     -0.00637662 </i>
  </energy>
  <time name="totalsc">   17.17   17.21</time>
  <eigenvalues>
   <array>
    <dimension dim="1">band</dimension>
    <dimension dim="2">kpoint</dimension>
    <dimension dim="3">spin</dimension>
    <field>eigene</field>
    <field>occ</field>
    <set>
     <set comment="spin 1">
      <set comment="kpoint 1">
       <r>   -7.7769    1.0000 </r>
       <r>   -6.8506    1.0000 </r>
       <r>   -6.8221    1.0000 </r>
       <r>   -6.8221    1.0000 </r>
       <r>   -6.8221    1.0000 </r>
       <r>   -6.7400    1.0000 </r>
       <r>   -6.6845    1.0000 </r>
       <r>   -6.6845    1.0000 </r>
       <r>   -6.6845    1.0000 </r>
       <r>   -6.5803    1.0000 </r>
       <r>   -6.5803    1.0000 </r>
       <r>   -6.5803    1.0000 </r>
       <r>   -6.3901    1.0000 </r>
       <r>   -6.3901    1.0000 </r>
       <r>   -6.3901    1.0000 </r>
       <r>   -5.7319    1.0000 </r>
       <r>   -5.7319    1.0000 </r>
       <r>   -5.7319    1.0000 </r>
       <r>   -5.5766    1.0000 </r>
       <r>   -5.5766    1.0000 </r>
       <r>   -5.5766    1.0000 </r>
       <r>   -5.4986    1.0000 </r>
       <r>   -5.4646    1.0000 </r>
       <r>   -5.4646    1.0000 </r>
       <r>   -5.3217    1.0000 </r>
       <r>   -5.3217    1.0000 </r>
       <r>   -5.2682    1.0000 </r>
       <r>   -5.2682    1.0000 </r>
       <r>   -5.2682    1.0000 </r>
       <r>   -5.1962    1.0000 </r>
       <r>   -5.1962    1.0000 </r>
       <r>   -4.8326    1.0000 </r>
       <r>   -4.7013    1.0000 </r>
       <r>   -4.7013    1.0000 </r>
       <r>   -4.7013    1.0000 </r>
       <r>   -4.5376    1.0000 </r>
       <r>   -4.5376    1.0000 </r>
       <r>   -4.5367    1.0000 </r>
       <r>   -4.5367    1.0000 </r>
       <r>   -4.5367    1.0000 </r>
       <r>   -4.2758    1.0000 </r>
       <r>   -4.2758    1.0000 </r>
       <r>   -4.2758    1.0000 </r>
       <r>   -4.2598    1.0000 </r>
       <r>   -4.2598    1.0000 </r>
       <r>   -3.9840    1.0000 </r>
       <r>   -3.9840    1.0000 </r>
       <r>   -3.9840    1.0000 </r>
       <r>   -3.9229    1.0000 </r>
       <r>   -3.9229    1.0000 </r>
       <r>   -3.8980    1.0000 </r>
       <r>   -3.8980    1.0000 </r>
       <r>   -3.8980    1.0000 </r>
       <r>   -3.8024    1.0000 </r>
       <r>   -3.8024    1.0000 </r>
       <r>   -3.8024    1.0000 </r>
       <r>   -3.6462    1.0000 </r>
       <r>   -3.6462    1.0000 </r>
       <r>   -3.6462    1.0000 </r>
       <r>   -3.6188    1.0000 </r>
       <r>   -3.6188    1.0000 </r>
       <r>   -3.6188    1.0000 </r>
       <r>   -2.2085    1.0000 </r>
       <r>   -0.5179   -0.0000 </r>
       <r>   -0.5179   -0.0000 </r>
       <r>   -0.5179   -0.0000 </r>
       <r>   -0.4220   -0.0000 </r>
       <r>    0.3403   -0.0000 </r>
       <r>    0.3403   -0.0000 </r>
       <r>    0.3403   -0.0000 </r>
       <r>    0.7329   -0.0000 </r>
       <r>    0.7329   -0.0000 </r>
       <r>    0.7329   -0.0000 </r>
       <r>    3.0325    0.0000 </r>
       <r>    3.0325    0.0000 </r>
       <r>    3.0325    0.0000 </r>
       <r>    3.1149    0.0000 </r>
       <r>    3.4673    0.0000 </r>
       <r>    3.8402    0.0000 </r>
       <r>    3.8456    0.0000 </r>
       <r>    3.8456    0.0000 </r>
       <r>    3.8456    0.0000 </r>
       <r>    4.6271    0.0000 </r>
       <r>    4.6271    0.0000 </r>
       <r>    4.6271    0.0000 </r>
       <r>    4.8381    0.0000 </r>
       <r>    5.1865    0.0000 </r>
       <r>    6.9485    0.0000 </r>
       <r>    7.0256    0.0000 </r>
       <r>    7.0483    0.0000 </r>
       <r>    7.0483    0.0000 </r>
       <r>    7.0483    0.0000 </r>
       <r>    7.4654    0.0000 </r>
       <r>    7.4654    0.0000 </r>
       <r>    7.4654    0.0000 </r>
       <r>    8.5052    0.0000 </r>
      </set>
      <set comment="kpoint 2">
       <r>   -7.6958    1.0000 </r>
       <r>   -6.7973    1.0000 </r>
       <r>   -6.7972    1.0000 </r>
       <r>   -6.7721    1.0000 </r>
       <r>   -6.7721    1.0000 </r>
       <r>   -6.6684    1.0000 </r>
       <r>   -6.6573    1.0000 </r>
       <r>   -6.6482    1.0000 </r>
       <r>   -6.6482    1.0000 </r>
       <r>   -6.5586    1.0000 </r>
       <r>   -6.5506    1.0000 </r>
       <r>   -6.5506    1.0000 </r>
       <r>   -6.3631    1.0000 </r>
       <r>   -6.3364    1.0000 </r>
       <r>   -6.3364    1.0000 </r>
       <r>   -5.7295    1.0000 </r>
       <r>   -5.7295    1.0000 </r>
       <r>   -5.7123    1.0000 </r>
       <r>   -5.5564    1.0000 </r>
       <r>   -5.5546    1.0000 </r>
       <r>   -5.5546    1.0000 </r>
       <r>   -5.4980    1.0000 </r>
       <r>   -5.4944    1.0000 </r>
       <r>   -5.4255    1.0000 </r>
       <r>   -5.3681    1.0000 </r>
       <r>   -5.2912    1.0000 </r>
       <r>   -5.2876    1.0000 </r>
       <r>   -5.2876    1.0000 </r>
       <r>   -5.2564    1.0000 </r>
       <r>   -5.2085    1.0000 </r>
       <r>   -5.1557    1.0000 </r>
       <r>   -4.8991    1.0000 </r>
       <r>   -4.7400    1.0000 </r>
       <r>   -4.7354    1.0000 </r>
       <r>   -4.7354    1.0000 </r>
       <r>   -4.5659    1.0000 </r>
       <r>   -4.5659    1.0000 </r>
       <r>   -4.5529    1.0000 </r>
       <r>   -4.5340    1.0000 </r>
       <r>   -4.5115    1.0000 </r>
       <r>   -4.3068    1.0000 </r>
       <r>   -4.3058    1.0000 </r>
       <r>   -4.3040    1.0000 </r>
       <r>   -4.3040    1.0000 </r>
       <r>   -4.2593    1.0000 </r>
       <r>   -4.0140    1.0000 </r>
       <r>   -4.0140    1.0000 </r>
       <r>   -3.9969    1.0000 </r>
       <r>   -3.9465    1.0000 </r>
       <r>   -3.9411    1.0000 </r>
       <r>   -3.9209    1.0000 </r>
       <r>   -3.9204    1.0000 </r>
       <r>   -3.9204    1.0000 </r>
       <r>   -3.8702    1.0000 </r>
       <r>   -3.8702    1.0000 </r>
       <r>   -3.8448    1.0000 </r>
       <r>   -3.7141    1.0000 </r>
       <r>   -3.7141    1.0000 </r>
       <r>   -3.6939    1.0000 </r>
       <r>   -3.6882    1.0000 </r>
       <r>   -3.6882    1.0000 </r>
       <r>   -3.6700    1.0000 </r>
       <r>   -2.1053    1.0000 </r>
       <r>   -1.3998    1.0000 </r>
       <r>   -0.6911   -0.0092 </r>
       <r>   -0.6911   -0.0092 </r>
       <r>   -0.2624   -0.0000 </r>
       <r>   -0.2313   -0.0000 </r>
       <r>    0.3067   -0.0000 </r>
       <r>    0.3067   -0.0000 </r>
       <r>    1.1052   -0.0000 </r>
       <r>    1.1052   -0.0000 </r>
       <r>    1.3858   -0.0000 </r>
       <r>    3.1801    0.0000 </r>
       <r>    3.1925    0.0000 </r>
       <r>    3.1925    0.0000 </r>
       <r>    3.2170    0.0000 </r>
       <r>    3.5419    0.0000 </r>
       <r>    3.7509    0.0000 </r>
       <r>    3.7509    0.0000 </r>
       <r>    3.9074    0.0000 </r>
       <r>    3.9078    0.0000 </r>
       <r>    4.9114    0.0000 </r>
       <r>    4.9201    0.0000 </r>
       <r>    4.9201    0.0000 </r>
       <r>    5.1135    0.0000 </r>
       <r>    5.2493    0.0000 </r>
       <r>    6.6808    0.0000 </r>
       <r>    6.8463    0.0000 </r>
       <r>    6.8463    0.0000 </r>
       <r>    7.0160    0.0000 </r>
       <r>    7.0962    0.0000 </r>
       <r>    7.4156    0.0000 </r>
       <r>    7.7843    0.0000 </r>
       <r>    7.7843    0.0000 </r>
       <r>    8.1140    0.0000 </r>
      </set>
      <set comment="kpoint 3">
       <r>   -7.4627    1.0000 </r>
       <r>   -6.7288    1.0000 </r>
       <r>   -6.6521    1.0000 </r>
       <r>   -6.6289    1.0000 </r>
       <r>   -6.6289    1.0000 </r>
       <r>   -6.5844    1.0000 </r>
       <r>   -6.5537    1.0000 </r>
       <r>   -6.5537    1.0000 </r>
       <r>   -6.4914    1.0000 </r>
       <r>   -6.4711    1.0000 </r>
       <r>   -6.4595    1.0000 </r>
       <r>   -6.4595    1.0000 </r>
       <r>   -6.2859    1.0000 </r>
       <r>   -6.1820    1.0000 </r>
       <r>   -6.1820    1.0000 </r>
       <r>   -5.7356    1.0000 </r>
       <r>   -5.7356    1.0000 </r>
       <r>   -5.6563    1.0000 </r>
       <r>   -5.5767    1.0000 </r>
       <r>   -5.5241    1.0000 </r>
       <r>   -5.5006    1.0000 </r>
       <r>   -5.4867    1.0000 </r>
       <r>   -5.4867    1.0000 </r>
       <r>   -5.4667    1.0000 </r>
       <r>   -5.3342    1.0000 </r>
       <r>   -5.3342    1.0000 </r>
       <r>   -5.3140    1.0000 </r>
       <r>   -5.2231    1.0000 </r>
       <r>   -5.2229    1.0000 </r>
       <r>   -5.2078    1.0000 </r>
       <r>   -5.0375    1.0000 </r>
       <r>   -5.0274    1.0000 </r>
       <r>   -4.8578    1.0000 </r>
       <r>   -4.8560    1.0000 </r>
       <r>   -4.8560    1.0000 </r>
       <r>   -4.6343    1.0000 </r>
       <r>   -4.6343    1.0000 </r>
       <r>   -4.5837    1.0000 </r>
       <r>   -4.5522    1.0000 </r>
       <r>   -4.5312    1.0000 </r>
       <r>   -4.4159    1.0000 </r>
       <r>   -4.3985    1.0000 </r>
       <r>   -4.3985    1.0000 </r>
       <r>   -4.3868    1.0000 </r>
       <r>   -4.2619    1.0000 </r>
       <r>   -4.1397    1.0000 </r>
       <r>   -4.1397    1.0000 </r>
       <r>   -4.1018    1.0000 </r>
       <r>   -4.1018    1.0000 </r>
       <r>   -4.0935    1.0000 </r>
       <r>   -4.0668    1.0000 </r>
       <r>   -3.9945    1.0000 </r>
       <r>   -3.9945    1.0000 </r>
       <r>   -3.9435    1.0000 </r>
       <r>   -3.9153    1.0000 </r>
       <r>   -3.8982    1.0000 </r>
       <r>   -3.8748    1.0000 </r>
       <r>   -3.8748    1.0000 </r>
       <r>   -3.8386    1.0000 </r>
       <r>   -3.7851    1.0000 </r>
       <r>   -3.7418    1.0000 </r>
       <r>   -3.7418    1.0000 </r>
       <r>   -2.5949    1.0000 </r>
       <r>   -1.8256    1.0000 </r>
       <r>   -1.2505    1.0000 </r>
       <r>   -0.9177    0.7486 </r>
       <r>   -0.9177    0.7486 </r>
       <r>    0.1740   -0.0000 </r>
       <r>    0.2592   -0.0000 </r>
       <r>    0.2592   -0.0000 </r>
       <r>    1.1793   -0.0000 </r>
       <r>    1.8044   -0.0000 </r>
       <r>    1.8044   -0.0000 </r>
       <r>    3.3557    0.0000 </r>
       <r>    3.3557    0.0000 </r>
       <r>    3.3758    0.0000 </r>
       <r>    3.7657    0.0000 </r>
       <r>    3.9126    0.0000 </r>
       <r>    4.0755    0.0000 </r>
       <r>    4.0755    0.0000 </r>
       <r>    4.1109    0.0000 </r>
       <r>    4.4119    0.0000 </r>
       <r>    5.1315    0.0000 </r>
       <r>    5.3710    0.0000 </r>
       <r>    5.3710    0.0000 </r>
       <r>    5.4392    0.0000 </r>
       <r>    5.5404    0.0000 </r>
       <r>    6.4700    0.0000 </r>
       <r>    6.8527    0.0000 </r>
       <r>    6.8527    0.0000 </r>
       <r>    7.0563    0.0000 </r>
       <r>    7.2192    0.0000 </r>
       <r>    7.2582    0.0000 </r>
       <r>    7.3078    0.0000 </r>
       <r>    7.6201    0.0000 </r>
       <r>    7.6201    0.0000 </r>
      </set>
      <set comment="kpoint 4">
       <r>   -7.1195    1.0000 </r>
       <r>   -6.6410    1.0000 </r>
       <r>   -6.4990    1.0000 </r>
       <r>   -6.4738    1.0000 </r>
       <r>   -6.4585    1.0000 </r>
       <r>   -6.4585    1.0000 </r>
       <r>   -6.3874    1.0000 </r>
       <r>   -6.3874    1.0000 </r>
       <r>   -6.3666    1.0000 </r>
       <r>   -6.3274    1.0000 </r>
       <r>   -6.3274    1.0000 </r>
       <r>   -6.2168    1.0000 </r>
       <r>   -6.1692    1.0000 </r>
       <r>   -5.9600    1.0000 </r>
       <r>   -5.9600    1.0000 </r>
       <r>   -5.7543    1.0000 </r>
       <r>   -5.7543    1.0000 </r>
       <r>   -5.7253    1.0000 </r>
       <r>   -5.6422    1.0000 </r>
       <r>   -5.5742    1.0000 </r>
       <r>   -5.4610    1.0000 </r>
       <r>   -5.4387    1.0000 </r>
       <r>   -5.4087    1.0000 </r>
       <r>   -5.4087    1.0000 </r>
       <r>   -5.3682    1.0000 </r>
       <r>   -5.3682    1.0000 </r>
       <r>   -5.1828    1.0000 </r>
       <r>   -5.1739    1.0000 </r>
       <r>   -5.1654    1.0000 </r>
       <r>   -5.1390    1.0000 </r>
       <r>   -5.0851    1.0000 </r>
       <r>   -5.0608    1.0000 </r>
       <r>   -5.0608    1.0000 </r>
       <r>   -5.0360    1.0000 </r>
       <r>   -4.8511    1.0000 </r>
       <r>   -4.7030    1.0000 </r>
       <r>   -4.7030    1.0000 </r>
       <r>   -4.6941    1.0000 </r>
       <r>   -4.5874    1.0000 </r>
       <r>   -4.5562    1.0000 </r>
       <r>   -4.5562    1.0000 </r>
       <r>   -4.5541    1.0000 </r>
       <r>   -4.5303    1.0000 </r>
       <r>   -4.5052    1.0000 </r>
       <r>   -4.5052    1.0000 </r>
       <r>   -4.4912    1.0000 </r>
       <r>   -4.3433    1.0000 </r>
       <r>   -4.2990    1.0000 </r>
       <r>   -4.2990    1.0000 </r>
       <r>   -4.2703    1.0000 </r>
       <r>   -4.2224    1.0000 </r>
       <r>   -4.1436    1.0000 </r>
       <r>   -4.1436    1.0000 </r>
       <r>   -4.0975    1.0000 </r>
       <r>   -4.0483    1.0000 </r>
       <r>   -3.9088    1.0000 </r>
       <r>   -3.9088    1.0000 </r>
       <r>   -3.9078    1.0000 </r>
       <r>   -3.8646    1.0000 </r>
       <r>   -3.7494    1.0000 </r>
       <r>   -3.7494    1.0000 </r>
       <r>   -3.7094    1.0000 </r>
       <r>   -3.6408    1.0000 </r>
       <r>   -2.1892    1.0000 </r>
       <r>   -1.4193    1.0000 </r>
       <r>   -1.0416    1.0254 </r>
       <r>   -1.0416    1.0254 </r>
       <r>    0.2234   -0.0000 </r>
       <r>    0.2234   -0.0000 </r>
       <r>    0.4162   -0.0000 </r>
       <r>    0.8072   -0.0000 </r>
       <r>    2.3096    0.0000 </r>
       <r>    2.3096    0.0000 </r>
       <r>    3.3344    0.0000 </r>
       <r>    3.7014    0.0000 </r>
       <r>    3.7485    0.0000 </r>
       <r>    3.7485    0.0000 </r>
       <r>    4.1382    0.0000 </r>
       <r>    4.4513    0.0000 </r>
       <r>    4.8266    0.0000 </r>
       <r>    4.8266    0.0000 </r>
       <r>    5.4106    0.0000 </r>
       <r>    5.4976    0.0000 </r>
       <r>    5.6413    0.0000 </r>
       <r>    5.6413    0.0000 </r>
       <r>    5.7598    0.0000 </r>
       <r>    5.8060    0.0000 </r>
       <r>    6.1727    0.0000 </r>
       <r>    6.3150    0.0000 </r>
       <r>    7.1518    0.0000 </r>
       <r>    7.1518    0.0000 </r>
       <r>    7.2561    0.0000 </r>
       <r>    7.3664    0.0000 </r>
       <r>    7.3664    0.0000 </r>
       <r>    7.4574    0.0000 </r>
       <r>    7.5589    0.0000 </r>
      </set>
      <set comment="kpoint 5">
       <r>   -6.7783    1.0000 </r>
       <r>   -6.6124    1.0000 </r>
       <r>   -6.4255    1.0000 </r>
       <r>   -6.3859    1.0000 </r>
       <r>   -6.3548    1.0000 </r>
       <r>   -6.3548    1.0000 </r>
       <r>   -6.2455    1.0000 </r>
       <r>   -6.2455    1.0000 </r>
       <r>   -6.1875    1.0000 </r>
       <r>   -6.1474    1.0000 </r>
       <r>   -6.1474    1.0000 </r>
       <r>   -6.0521    1.0000 </r>
       <r>   -6.0363    1.0000 </r>
       <r>   -5.9167    1.0000 </r>
       <r>   -5.8606    1.0000 </r>
       <r>   -5.8606    1.0000 </r>
       <r>   -5.6963    1.0000 </r>
       <r>   -5.6388    1.0000 </r>
       <r>   -5.6388    1.0000 </r>
       <r>   -5.5524    1.0000 </r>
       <r>   -5.5524    1.0000 </r>
       <r>   -5.5415    1.0000 </r>
       <r>   -5.4647    1.0000 </r>
       <r>   -5.4113    1.0000 </r>
       <r>   -5.2255    1.0000 </r>
       <r>   -5.2255    1.0000 </r>
       <r>   -5.1935    1.0000 </r>
       <r>   -5.1935    1.0000 </r>
       <r>   -5.1242    1.0000 </r>
       <r>   -5.1233    1.0000 </r>
       <r>   -5.1132    1.0000 </r>
       <r>   -5.1018    1.0000 </r>
       <r>   -5.0157    1.0000 </r>
       <r>   -4.8866    1.0000 </r>
       <r>   -4.8789    1.0000 </r>
       <r>   -4.8789    1.0000 </r>
       <r>   -4.8156    1.0000 </r>
       <r>   -4.8156    1.0000 </r>
       <r>   -4.7926    1.0000 </r>
       <r>   -4.7126    1.0000 </r>
       <r>   -4.6740    1.0000 </r>
       <r>   -4.6389    1.0000 </r>
       <r>   -4.6389    1.0000 </r>
       <r>   -4.6136    1.0000 </r>
       <r>   -4.5824    1.0000 </r>
       <r>   -4.5577    1.0000 </r>
       <r>   -4.5080    1.0000 </r>
       <r>   -4.4796    1.0000 </r>
       <r>   -4.4796    1.0000 </r>
       <r>   -4.4205    1.0000 </r>
       <r>   -4.3754    1.0000 </r>
       <r>   -4.3413    1.0000 </r>
       <r>   -4.2728    1.0000 </r>
       <r>   -4.2188    1.0000 </r>
       <r>   -4.1935    1.0000 </r>
       <r>   -4.1935    1.0000 </r>
       <r>   -3.9126    1.0000 </r>
       <r>   -3.9126    1.0000 </r>
       <r>   -3.8996    1.0000 </r>
       <r>   -3.8892    1.0000 </r>
       <r>   -3.7464    1.0000 </r>
       <r>   -3.7464    1.0000 </r>
       <r>   -3.3919    1.0000 </r>
       <r>   -2.9069    1.0000 </r>
       <r>   -1.0884    1.0076 </r>
       <r>   -1.0884    1.0076 </r>
       <r>   -0.9114    0.7022 </r>
       <r>   -0.3014   -0.0000 </r>
       <r>    0.2056   -0.0000 </r>
       <r>    0.2056   -0.0000 </r>
       <r>    1.5734   -0.0000 </r>
       <r>    2.4305    0.0000 </r>
       <r>    2.4335    0.0000 </r>
       <r>    2.4335    0.0000 </r>
       <r>    4.1571    0.0000 </r>
       <r>    4.6576    0.0000 </r>
       <r>    4.6781    0.0000 </r>
       <r>    4.6781    0.0000 </r>
       <r>    4.7421    0.0000 </r>
       <r>    4.9313    0.0000 </r>
       <r>    5.2475    0.0000 </r>
       <r>    5.2475    0.0000 </r>
       <r>    5.3188    0.0000 </r>
       <r>    5.5521    0.0000 </r>
       <r>    5.8421    0.0000 </r>
       <r>    5.8421    0.0000 </r>
       <r>    6.0081    0.0000 </r>
       <r>    6.2155    0.0000 </r>
       <r>    6.4500    0.0000 </r>
       <r>    6.4500    0.0000 </r>
       <r>    6.6523    0.0000 </r>
       <r>    6.8054    0.0000 </r>
       <r>    7.2427    0.0000 </r>
       <r>    7.2427    0.0000 </r>
       <r>    7.6261    0.0000 </r>
       <r>    7.6261    0.0000 </r>
      </set>
      <set comment="kpoint 6">
       <r>   -7.5382    1.0000 </r>
       <r>   -6.7230    1.0000 </r>
       <r>   -6.7230    1.0000 </r>
       <r>   -6.6969    1.0000 </r>
       <r>   -6.6554    1.0000 </r>
       <r>   -6.5943    1.0000 </r>
       <r>   -6.5943    1.0000 </r>
       <r>   -6.5803    1.0000 </r>
       <r>   -6.5331    1.0000 </r>
       <r>   -6.5105    1.0000 </r>
       <r>   -6.5105    1.0000 </r>
       <r>   -6.4756    1.0000 </r>
       <r>   -6.2835    1.0000 </r>
       <r>   -6.2835    1.0000 </r>
       <r>   -6.2087    1.0000 </r>
       <r>   -5.7468    1.0000 </r>
       <r>   -5.6959    1.0000 </r>
       <r>   -5.6959    1.0000 </r>
       <r>   -5.5529    1.0000 </r>
       <r>   -5.5143    1.0000 </r>
       <r>   -5.5143    1.0000 </r>
       <r>   -5.5102    1.0000 </r>
       <r>   -5.5013    1.0000 </r>
       <r>   -5.4523    1.0000 </r>
       <r>   -5.3471    1.0000 </r>
       <r>   -5.3430    1.0000 </r>
       <r>   -5.2652    1.0000 </r>
       <r>   -5.2652    1.0000 </r>
       <r>   -5.2443    1.0000 </r>
       <r>   -5.2163    1.0000 </r>
       <r>   -5.0756    1.0000 </r>
       <r>   -4.9896    1.0000 </r>
       <r>   -4.8195    1.0000 </r>
       <r>   -4.8195    1.0000 </r>
       <r>   -4.8064    1.0000 </r>
       <r>   -4.6426    1.0000 </r>
       <r>   -4.5927    1.0000 </r>
       <r>   -4.5582    1.0000 </r>
       <r>   -4.5582    1.0000 </r>
       <r>   -4.5127    1.0000 </r>
       <r>   -4.3681    1.0000 </r>
       <r>   -4.3681    1.0000 </r>
       <r>   -4.3647    1.0000 </r>
       <r>   -4.3582    1.0000 </r>
       <r>   -4.2845    1.0000 </r>
       <r>   -4.1058    1.0000 </r>
       <r>   -4.0742    1.0000 </r>
       <r>   -4.0742    1.0000 </r>
       <r>   -4.0176    1.0000 </r>
       <r>   -4.0176    1.0000 </r>
       <r>   -4.0060    1.0000 </r>
       <r>   -3.9515    1.0000 </r>
       <r>   -3.9515    1.0000 </r>
       <r>   -3.9345    1.0000 </r>
       <r>   -3.9259    1.0000 </r>
       <r>   -3.9139    1.0000 </r>
       <r>   -3.8701    1.0000 </r>
       <r>   -3.8054    1.0000 </r>
       <r>   -3.8054    1.0000 </r>
       <r>   -3.7544    1.0000 </r>
       <r>   -3.7492    1.0000 </r>
       <r>   -3.7492    1.0000 </r>
       <r>   -1.9146    1.0000 </r>
       <r>   -1.8630    1.0000 </r>
       <r>   -1.8630    1.0000 </r>
       <r>   -0.6063   -0.0003 </r>
       <r>   -0.6063   -0.0003 </r>
       <r>    0.0185   -0.0000 </r>
       <r>    0.0346   -0.0000 </r>
       <r>    0.7201   -0.0000 </r>
       <r>    1.2080   -0.0000 </r>
       <r>    1.5500   -0.0000 </r>
       <r>    1.5500   -0.0000 </r>
       <r>    3.1489    0.0000 </r>
       <r>    3.3106    0.0000 </r>
       <r>    3.4788    0.0000 </r>
       <r>    3.4788    0.0000 </r>
       <r>    3.6911    0.0000 </r>
       <r>    4.0431    0.0000 </r>
       <r>    4.0565    0.0000 </r>
       <r>    4.3930    0.0000 </r>
       <r>    4.3930    0.0000 </r>
       <r>    4.8431    0.0000 </r>
       <r>    5.0582    0.0000 </r>
       <r>    5.2131    0.0000 </r>
       <r>    5.2132    0.0000 </r>
       <r>    5.3757    0.0000 </r>
       <r>    6.9303    0.0000 </r>
       <r>    6.9303    0.0000 </r>
       <r>    7.1003    0.0000 </r>
       <r>    7.1004    0.0000 </r>
       <r>    7.1514    0.0000 </r>
       <r>    7.2373    0.0000 </r>
       <r>    7.3115    0.0000 </r>
       <r>    7.5912    0.0000 </r>
       <r>    7.7039    0.0000 </r>
      </set>
      <set comment="kpoint 7">
       <r>   -7.2456    1.0000 </r>
       <r>   -6.6377    1.0000 </r>
       <r>   -6.5547    1.0000 </r>
       <r>   -6.5250    1.0000 </r>
       <r>   -6.5070    1.0000 </r>
       <r>   -6.5060    1.0000 </r>
       <r>   -6.4761    1.0000 </r>
       <r>   -6.4313    1.0000 </r>
       <r>   -6.4240    1.0000 </r>
       <r>   -6.4146    1.0000 </r>
       <r>   -6.3450    1.0000 </r>
       <r>   -6.3008    1.0000 </r>
       <r>   -6.1843    1.0000 </r>
       <r>   -6.1050    1.0000 </r>
       <r>   -6.0078    1.0000 </r>
       <r>   -5.7774    1.0000 </r>
       <r>   -5.6997    1.0000 </r>
       <r>   -5.6645    1.0000 </r>
       <r>   -5.6322    1.0000 </r>
       <r>   -5.5895    1.0000 </r>
       <r>   -5.5041    1.0000 </r>
       <r>   -5.4498    1.0000 </r>
       <r>   -5.4291    1.0000 </r>
       <r>   -5.4227    1.0000 </r>
       <r>   -5.3950    1.0000 </r>
       <r>   -5.3153    1.0000 </r>
       <r>   -5.2547    1.0000 </r>
       <r>   -5.2290    1.0000 </r>
       <r>   -5.1960    1.0000 </r>
       <r>   -5.1338    1.0000 </r>
       <r>   -5.1199    1.0000 </r>
       <r>   -4.9965    1.0000 </r>
       <r>   -4.9808    1.0000 </r>
       <r>   -4.9635    1.0000 </r>
       <r>   -4.9009    1.0000 </r>
       <r>   -4.7267    1.0000 </r>
       <r>   -4.6359    1.0000 </r>
       <r>   -4.6170    1.0000 </r>
       <r>   -4.6074    1.0000 </r>
       <r>   -4.5556    1.0000 </r>
       <r>   -4.5008    1.0000 </r>
       <r>   -4.4827    1.0000 </r>
       <r>   -4.4699    1.0000 </r>
       <r>   -4.4296    1.0000 </r>
       <r>   -4.3628    1.0000 </r>
       <r>   -4.3551    1.0000 </r>
       <r>   -4.3038    1.0000 </r>
       <r>   -4.2971    1.0000 </r>
       <r>   -4.2407    1.0000 </r>
       <r>   -4.1803    1.0000 </r>
       <r>   -4.1360    1.0000 </r>
       <r>   -4.1032    1.0000 </r>
       <r>   -4.0990    1.0000 </r>
       <r>   -4.0313    1.0000 </r>
       <r>   -3.9661    1.0000 </r>
       <r>   -3.9422    1.0000 </r>
       <r>   -3.9319    1.0000 </r>
       <r>   -3.8884    1.0000 </r>
       <r>   -3.8480    1.0000 </r>
       <r>   -3.7921    1.0000 </r>
       <r>   -3.7839    1.0000 </r>
       <r>   -3.7751    1.0000 </r>
       <r>   -2.9553    1.0000 </r>
       <r>   -2.0635    1.0000 </r>
       <r>   -1.6236    1.0000 </r>
       <r>   -1.5743    1.0000 </r>
       <r>   -0.7966   -0.0115 </r>
       <r>    0.1564   -0.0000 </r>
       <r>    0.5656   -0.0000 </r>
       <r>    0.8858   -0.0000 </r>
       <r>    1.1961   -0.0000 </r>
       <r>    1.5334   -0.0000 </r>
       <r>    1.8266   -0.0000 </r>
       <r>    3.5181    0.0000 </r>
       <r>    3.5713    0.0000 </r>
       <r>    3.8300    0.0000 </r>
       <r>    3.9894    0.0000 </r>
       <r>    4.1056    0.0000 </r>
       <r>    4.1166    0.0000 </r>
       <r>    4.3150    0.0000 </r>
       <r>    4.6218    0.0000 </r>
       <r>    4.9863    0.0000 </r>
       <r>    5.3514    0.0000 </r>
       <r>    5.3886    0.0000 </r>
       <r>    5.6311    0.0000 </r>
       <r>    5.7362    0.0000 </r>
       <r>    5.8561    0.0000 </r>
       <r>    6.4772    0.0000 </r>
       <r>    6.6632    0.0000 </r>
       <r>    6.6843    0.0000 </r>
       <r>    6.9013    0.0000 </r>
       <r>    6.9774    0.0000 </r>
       <r>    7.2784    0.0000 </r>
       <r>    7.3689    0.0000 </r>
       <r>    7.4233    0.0000 </r>
       <r>    7.4701    0.0000 </r>
      </set>
      <set comment="kpoint 8">
       <r>   -6.8860    1.0000 </r>
       <r>   -6.5600    1.0000 </r>
       <r>   -6.4251    1.0000 </r>
       <r>   -6.3896    1.0000 </r>
       <r>   -6.3694    1.0000 </r>
       <r>   -6.3680    1.0000 </r>
       <r>   -6.3162    1.0000 </r>
       <r>   -6.2861    1.0000 </r>
       <r>   -6.2731    1.0000 </r>
       <r>   -6.2292    1.0000 </r>
       <r>   -6.1872    1.0000 </r>
       <r>   -6.0710    1.0000 </r>
       <r>   -6.0543    1.0000 </r>
       <r>   -5.9148    1.0000 </r>
       <r>   -5.8754    1.0000 </r>
       <r>   -5.8372    1.0000 </r>
       <r>   -5.7083    1.0000 </r>
       <r>   -5.7053    1.0000 </r>
       <r>   -5.6731    1.0000 </r>
       <r>   -5.5585    1.0000 </r>
       <r>   -5.4830    1.0000 </r>
       <r>   -5.4723    1.0000 </r>
       <r>   -5.4552    1.0000 </r>
       <r>   -5.4481    1.0000 </r>
       <r>   -5.2865    1.0000 </r>
       <r>   -5.2863    1.0000 </r>
       <r>   -5.2369    1.0000 </r>
       <r>   -5.2009    1.0000 </r>
       <r>   -5.1978    1.0000 </r>
       <r>   -5.1782    1.0000 </r>
       <r>   -5.1395    1.0000 </r>
       <r>   -5.1100    1.0000 </r>
       <r>   -5.0786    1.0000 </r>
       <r>   -4.9673    1.0000 </r>
       <r>   -4.8264    1.0000 </r>
       <r>   -4.8057    1.0000 </r>
       <r>   -4.7735    1.0000 </r>
       <r>   -4.7036    1.0000 </r>
       <r>   -4.6927    1.0000 </r>
       <r>   -4.6794    1.0000 </r>
       <r>   -4.6757    1.0000 </r>
       <r>   -4.6410    1.0000 </r>
       <r>   -4.5920    1.0000 </r>
       <r>   -4.5787    1.0000 </r>
       <r>   -4.5712    1.0000 </r>
       <r>   -4.5325    1.0000 </r>
       <r>   -4.4770    1.0000 </r>
       <r>   -4.4700    1.0000 </r>
       <r>   -4.4014    1.0000 </r>
       <r>   -4.3712    1.0000 </r>
       <r>   -4.2860    1.0000 </r>
       <r>   -4.2613    1.0000 </r>
       <r>   -4.1728    1.0000 </r>
       <r>   -4.1406    1.0000 </r>
       <r>   -4.1315    1.0000 </r>
       <r>   -3.9700    1.0000 </r>
       <r>   -3.9294    1.0000 </r>
       <r>   -3.9042    1.0000 </r>
       <r>   -3.9025    1.0000 </r>
       <r>   -3.7957    1.0000 </r>
       <r>   -3.7852    1.0000 </r>
       <r>   -3.7699    1.0000 </r>
       <r>   -3.5152    1.0000 </r>
       <r>   -2.4797    1.0000 </r>
       <r>   -2.1207    1.0000 </r>
       <r>   -1.1195    1.0024 </r>
       <r>   -0.8719    0.3765 </r>
       <r>    0.0944   -0.0000 </r>
       <r>    0.1122   -0.0000 </r>
       <r>    1.2604   -0.0000 </r>
       <r>    1.3835   -0.0000 </r>
       <r>    1.4806   -0.0000 </r>
       <r>    2.8255    0.0000 </r>
       <r>    2.9523    0.0000 </r>
       <r>    3.8559    0.0000 </r>
       <r>    3.9622    0.0000 </r>
       <r>    4.3595    0.0000 </r>
       <r>    4.4356    0.0000 </r>
       <r>    4.6011    0.0000 </r>
       <r>    4.7253    0.0000 </r>
       <r>    5.1310    0.0000 </r>
       <r>    5.2982    0.0000 </r>
       <r>    5.6651    0.0000 </r>
       <r>    5.7503    0.0000 </r>
       <r>    5.7902    0.0000 </r>
       <r>    5.9664    0.0000 </r>
       <r>    6.0198    0.0000 </r>
       <r>    6.0638    0.0000 </r>
       <r>    6.2858    0.0000 </r>
       <r>    6.7630    0.0000 </r>
       <r>    6.8253    0.0000 </r>
       <r>    7.1013    0.0000 </r>
       <r>    7.1299    0.0000 </r>
       <r>    7.2072    0.0000 </r>
       <r>    7.2769    0.0000 </r>
       <r>    7.2900    0.0000 </r>
      </set>
      <set comment="kpoint 9">
       <r>   -6.6147    1.0000 </r>
       <r>   -6.6147    1.0000 </r>
       <r>   -6.3545    1.0000 </r>
       <r>   -6.3545    1.0000 </r>
       <r>   -6.3181    1.0000 </r>
       <r>   -6.3069    1.0000 </r>
       <r>   -6.2563    1.0000 </r>
       <r>   -6.2067    1.0000 </r>
       <r>   -6.1150    1.0000 </r>
       <r>   -6.0824    1.0000 </r>
       <r>   -6.0824    1.0000 </r>
       <r>   -6.0222    1.0000 </r>
       <r>   -5.9335    1.0000 </r>
       <r>   -5.9335    1.0000 </r>
       <r>   -5.9315    1.0000 </r>
       <r>   -5.8475    1.0000 </r>
       <r>   -5.6949    1.0000 </r>
       <r>   -5.6949    1.0000 </r>
       <r>   -5.6152    1.0000 </r>
       <r>   -5.5935    1.0000 </r>
       <r>   -5.5889    1.0000 </r>
       <r>   -5.5180    1.0000 </r>
       <r>   -5.4385    1.0000 </r>
       <r>   -5.4385    1.0000 </r>
       <r>   -5.2560    1.0000 </r>
       <r>   -5.1939    1.0000 </r>
       <r>   -5.1788    1.0000 </r>
       <r>   -5.1745    1.0000 </r>
       <r>   -5.1574    1.0000 </r>
       <r>   -5.1574    1.0000 </r>
       <r>   -5.1274    1.0000 </r>
       <r>   -5.1274    1.0000 </r>
       <r>   -4.9977    1.0000 </r>
       <r>   -4.9871    1.0000 </r>
       <r>   -4.9871    1.0000 </r>
       <r>   -4.9516    1.0000 </r>
       <r>   -4.9246    1.0000 </r>
       <r>   -4.8786    1.0000 </r>
       <r>   -4.7921    1.0000 </r>
       <r>   -4.7921    1.0000 </r>
       <r>   -4.7295    1.0000 </r>
       <r>   -4.7295    1.0000 </r>
       <r>   -4.6486    1.0000 </r>
       <r>   -4.5839    1.0000 </r>
       <r>   -4.5461    1.0000 </r>
       <r>   -4.5461    1.0000 </r>
       <r>   -4.5345    1.0000 </r>
       <r>   -4.4911    1.0000 </r>
       <r>   -4.4159    1.0000 </r>
       <r>   -4.4159    1.0000 </r>
       <r>   -4.3379    1.0000 </r>
       <r>   -4.3379    1.0000 </r>
       <r>   -4.2028    1.0000 </r>
       <r>   -4.1971    1.0000 </r>
       <r>   -4.1971    1.0000 </r>
       <r>   -4.1706    1.0000 </r>
       <r>   -3.9688    1.0000 </r>
       <r>   -3.9197    1.0000 </r>
       <r>   -3.9197    1.0000 </r>
       <r>   -3.9066    1.0000 </r>
       <r>   -3.7950    1.0000 </r>
       <r>   -3.7831    1.0000 </r>
       <r>   -3.1039    1.0000 </r>
       <r>   -3.1039    1.0000 </r>
       <r>   -2.1304    1.0000 </r>
       <r>   -0.8906    0.5330 </r>
       <r>   -0.5598   -0.0000 </r>
       <r>   -0.5598   -0.0000 </r>
       <r>    0.0679   -0.0000 </r>
       <r>    1.4084   -0.0000 </r>
       <r>    1.4587   -0.0000 </r>
       <r>    2.0686    0.0000 </r>
       <r>    2.0686    0.0000 </r>
       <r>    3.4649    0.0000 </r>
       <r>    4.3476    0.0000 </r>
       <r>    4.3596    0.0000 </r>
       <r>    4.3758    0.0000 </r>
       <r>    4.4838    0.0000 </r>
       <r>    4.4838    0.0000 </r>
       <r>    5.0272    0.0000 </r>
       <r>    5.0272    0.0000 </r>
       <r>    5.2765    0.0000 </r>
       <r>    5.2765    0.0000 </r>
       <r>    5.5885    0.0000 </r>
       <r>    5.8781    0.0000 </r>
       <r>    6.1960    0.0000 </r>
       <r>    6.3710    0.0000 </r>
       <r>    6.3710    0.0000 </r>
       <r>    6.3974    0.0000 </r>
       <r>    6.5134    0.0000 </r>
       <r>    6.5453    0.0000 </r>
       <r>    6.5453    0.0000 </r>
       <r>    6.6652    0.0000 </r>
       <r>    7.0179    0.0000 </r>
       <r>    7.1611    0.0000 </r>
       <r>    7.9131    0.0000 </r>
      </set>
      <set comment="kpoint 10">
       <r>   -6.9233    1.0000 </r>
       <r>   -6.4562    1.0000 </r>
       <r>   -6.4562    1.0000 </r>
       <r>   -6.4025    1.0000 </r>
       <r>   -6.3739    1.0000 </r>
       <r>   -6.3739    1.0000 </r>
       <r>   -6.3465    1.0000 </r>
       <r>   -6.3294    1.0000 </r>
       <r>   -6.3294    1.0000 </r>
       <r>   -6.2185    1.0000 </r>
       <r>   -6.2023    1.0000 </r>
       <r>   -6.0912    1.0000 </r>
       <r>   -5.9869    1.0000 </r>
       <r>   -5.9868    1.0000 </r>
       <r>   -5.9427    1.0000 </r>
       <r>   -5.8057    1.0000 </r>
       <r>   -5.6872    1.0000 </r>
       <r>   -5.6519    1.0000 </r>
       <r>   -5.6445    1.0000 </r>
       <r>   -5.6445    1.0000 </r>
       <r>   -5.5472    1.0000 </r>
       <r>   -5.4478    1.0000 </r>
       <r>   -5.4373    1.0000 </r>
       <r>   -5.4373    1.0000 </r>
       <r>   -5.3248    1.0000 </r>
       <r>   -5.3029    1.0000 </r>
       <r>   -5.2796    1.0000 </r>
       <r>   -5.2796    1.0000 </r>
       <r>   -5.2549    1.0000 </r>
       <r>   -5.1384    1.0000 </r>
       <r>   -5.1384    1.0000 </r>
       <r>   -5.1053    1.0000 </r>
       <r>   -5.0910    1.0000 </r>
       <r>   -4.9891    1.0000 </r>
       <r>   -4.8184    1.0000 </r>
       <r>   -4.7504    1.0000 </r>
       <r>   -4.7475    1.0000 </r>
       <r>   -4.7475    1.0000 </r>
       <r>   -4.6817    1.0000 </r>
       <r>   -4.6285    1.0000 </r>
       <r>   -4.6247    1.0000 </r>
       <r>   -4.6093    1.0000 </r>
       <r>   -4.6093    1.0000 </r>
       <r>   -4.5679    1.0000 </r>
       <r>   -4.5198    1.0000 </r>
       <r>   -4.5198    1.0000 </r>
       <r>   -4.4803    1.0000 </r>
       <r>   -4.4803    1.0000 </r>
       <r>   -4.3741    1.0000 </r>
       <r>   -4.3372    1.0000 </r>
       <r>   -4.3157    1.0000 </r>
       <r>   -4.1604    1.0000 </r>
       <r>   -4.1604    1.0000 </r>
       <r>   -4.0461    1.0000 </r>
       <r>   -4.0367    1.0000 </r>
       <r>   -3.9668    1.0000 </r>
       <r>   -3.9668    1.0000 </r>
       <r>   -3.9586    1.0000 </r>
       <r>   -3.8796    1.0000 </r>
       <r>   -3.8796    1.0000 </r>
       <r>   -3.8593    1.0000 </r>
       <r>   -3.5436    1.0000 </r>
       <r>   -3.0204    1.0000 </r>
       <r>   -3.0204    1.0000 </r>
       <r>   -1.7851    1.0000 </r>
       <r>   -1.7851    1.0000 </r>
       <r>   -1.1886    1.0001 </r>
       <r>    0.7026   -0.0000 </r>
       <r>    0.7026   -0.0000 </r>
       <r>    1.1530   -0.0000 </r>
       <r>    1.2056   -0.0000 </r>
       <r>    1.6075   -0.0000 </r>
       <r>    2.3641    0.0000 </r>
       <r>    3.5669    0.0000 </r>
       <r>    3.6102    0.0000 </r>
       <r>    3.6102    0.0000 </r>
       <r>    3.8974    0.0000 </r>
       <r>    4.3616    0.0000 </r>
       <r>    4.6569    0.0000 </r>
       <r>    4.7375    0.0000 </r>
       <r>    5.4592    0.0000 </r>
       <r>    5.5810    0.0000 </r>
       <r>    5.6285    0.0000 </r>
       <r>    5.6285    0.0000 </r>
       <r>    5.7175    0.0000 </r>
       <r>    5.9551    0.0000 </r>
       <r>    5.9703    0.0000 </r>
       <r>    5.9703    0.0000 </r>
       <r>    6.3807    0.0000 </r>
       <r>    6.3807    0.0000 </r>
       <r>    6.5270    0.0000 </r>
       <r>    6.5270    0.0000 </r>
       <r>    7.1299    0.0000 </r>
       <r>    7.4406    0.0000 </r>
       <r>    7.4406    0.0000 </r>
       <r>    7.6824    0.0000 </r>
      </set>
      <set comment="kpoint 11">
       <r>   -6.5943    1.0000 </r>
       <r>   -6.4276    1.0000 </r>
       <r>   -6.2944    1.0000 </r>
       <r>   -6.2876    1.0000 </r>
       <r>   -6.2807    1.0000 </r>
       <r>   -6.2474    1.0000 </r>
       <r>   -6.2230    1.0000 </r>
       <r>   -6.1755    1.0000 </r>
       <r>   -6.1690    1.0000 </r>
       <r>   -6.1579    1.0000 </r>
       <r>   -6.0229    1.0000 </r>
       <r>   -5.9946    1.0000 </r>
       <r>   -5.9608    1.0000 </r>
       <r>   -5.9387    1.0000 </r>
       <r>   -5.8446    1.0000 </r>
       <r>   -5.8397    1.0000 </r>
       <r>   -5.7312    1.0000 </r>
       <r>   -5.7099    1.0000 </r>
       <r>   -5.6691    1.0000 </r>
       <r>   -5.5790    1.0000 </r>
       <r>   -5.5506    1.0000 </r>
       <r>   -5.4916    1.0000 </r>
       <r>   -5.4495    1.0000 </r>
       <r>   -5.4383    1.0000 </r>
       <r>   -5.3811    1.0000 </r>
       <r>   -5.2971    1.0000 </r>
       <r>   -5.2880    1.0000 </r>
       <r>   -5.2427    1.0000 </r>
       <r>   -5.2054    1.0000 </r>
       <r>   -5.1707    1.0000 </r>
       <r>   -5.1644    1.0000 </r>
       <r>   -5.1410    1.0000 </r>
       <r>   -5.1210    1.0000 </r>
       <r>   -5.0688    1.0000 </r>
       <r>   -5.0546    1.0000 </r>
       <r>   -4.9507    1.0000 </r>
       <r>   -4.9155    1.0000 </r>
       <r>   -4.8958    1.0000 </r>
       <r>   -4.8883    1.0000 </r>
       <r>   -4.8401    1.0000 </r>
       <r>   -4.7783    1.0000 </r>
       <r>   -4.6381    1.0000 </r>
       <r>   -4.6197    1.0000 </r>
       <r>   -4.5658    1.0000 </r>
       <r>   -4.5256    1.0000 </r>
       <r>   -4.5001    1.0000 </r>
       <r>   -4.4990    1.0000 </r>
       <r>   -4.4642    1.0000 </r>
       <r>   -4.4248    1.0000 </r>
       <r>   -4.3002    1.0000 </r>
       <r>   -4.2818    1.0000 </r>
       <r>   -4.2073    1.0000 </r>
       <r>   -4.1792    1.0000 </r>
       <r>   -4.1216    1.0000 </r>
       <r>   -4.1042    1.0000 </r>
       <r>   -4.0356    1.0000 </r>
       <r>   -3.9711    1.0000 </r>
       <r>   -3.9686    1.0000 </r>
       <r>   -3.9479    1.0000 </r>
       <r>   -3.8907    1.0000 </r>
       <r>   -3.8880    1.0000 </r>
       <r>   -3.7257    1.0000 </r>
       <r>   -3.1695    1.0000 </r>
       <r>   -3.0149    1.0000 </r>
       <r>   -2.5895    1.0000 </r>
       <r>   -1.8374    1.0000 </r>
       <r>   -0.6832   -0.0071 </r>
       <r>   -0.0545   -0.0000 </r>
       <r>    0.6173   -0.0000 </r>
       <r>    1.3361   -0.0000 </r>
       <r>    1.8834    0.0000 </r>
       <r>    2.5822    0.0000 </r>
       <r>    2.7170    0.0000 </r>
       <r>    2.8341    0.0000 </r>
       <r>    3.4890    0.0000 </r>
       <r>    4.0576    0.0000 </r>
       <r>    4.3552    0.0000 </r>
       <r>    4.4074    0.0000 </r>
       <r>    4.8810    0.0000 </r>
       <r>    4.9019    0.0000 </r>
       <r>    4.9454    0.0000 </r>
       <r>    5.1392    0.0000 </r>
       <r>    5.5429    0.0000 </r>
       <r>    5.5441    0.0000 </r>
       <r>    5.6607    0.0000 </r>
       <r>    5.7632    0.0000 </r>
       <r>    6.1981    0.0000 </r>
       <r>    6.2286    0.0000 </r>
       <r>    6.2903    0.0000 </r>
       <r>    6.3921    0.0000 </r>
       <r>    6.4155    0.0000 </r>
       <r>    6.8751    0.0000 </r>
       <r>    7.0123    0.0000 </r>
       <r>    7.0663    0.0000 </r>
       <r>    7.5469    0.0000 </r>
       <r>    7.6162    0.0000 </r>
      </set>
      <set comment="kpoint 12">
       <r>   -6.3612    1.0000 </r>
       <r>   -6.3612    1.0000 </r>
       <r>   -6.3612    1.0000 </r>
       <r>   -6.1612    1.0000 </r>
       <r>   -6.1612    1.0000 </r>
       <r>   -6.1280    1.0000 </r>
       <r>   -6.1158    1.0000 </r>
       <r>   -6.1158    1.0000 </r>
       <r>   -6.1158    1.0000 </r>
       <r>   -6.0432    1.0000 </r>
       <r>   -6.0432    1.0000 </r>
       <r>   -6.0432    1.0000 </r>
       <r>   -6.0342    1.0000 </r>
       <r>   -6.0342    1.0000 </r>
       <r>   -6.0342    1.0000 </r>
       <r>   -5.7443    1.0000 </r>
       <r>   -5.7443    1.0000 </r>
       <r>   -5.5528    1.0000 </r>
       <r>   -5.5528    1.0000 </r>
       <r>   -5.5528    1.0000 </r>
       <r>   -5.5469    1.0000 </r>
       <r>   -5.5469    1.0000 </r>
       <r>   -5.5469    1.0000 </r>
       <r>   -5.3728    1.0000 </r>
       <r>   -5.3728    1.0000 </r>
       <r>   -5.3728    1.0000 </r>
       <r>   -5.3406    1.0000 </r>
       <r>   -5.3406    1.0000 </r>
       <r>   -5.3406    1.0000 </r>
       <r>   -5.3151    1.0000 </r>
       <r>   -5.1028    1.0000 </r>
       <r>   -5.0969    1.0000 </r>
       <r>   -5.0915    1.0000 </r>
       <r>   -5.0915    1.0000 </r>
       <r>   -5.0540    1.0000 </r>
       <r>   -5.0540    1.0000 </r>
       <r>   -5.0540    1.0000 </r>
       <r>   -5.0107    1.0000 </r>
       <r>   -5.0107    1.0000 </r>
       <r>   -5.0107    1.0000 </r>
       <r>   -4.6370    1.0000 </r>
       <r>   -4.6370    1.0000 </r>
       <r>   -4.6370    1.0000 </r>
       <r>   -4.5594    1.0000 </r>
       <r>   -4.5594    1.0000 </r>
       <r>   -4.4786    1.0000 </r>
       <r>   -4.4786    1.0000 </r>
       <r>   -4.4786    1.0000 </r>
       <r>   -4.2987    1.0000 </r>
       <r>   -4.2987    1.0000 </r>
       <r>   -4.2987    1.0000 </r>
       <r>   -4.1142    1.0000 </r>
       <r>   -4.1142    1.0000 </r>
       <r>   -4.1142    1.0000 </r>
       <r>   -4.0699    1.0000 </r>
       <r>   -4.0699    1.0000 </r>
       <r>   -3.9705    1.0000 </r>
       <r>   -3.9705    1.0000 </r>
       <r>   -3.9705    1.0000 </r>
       <r>   -3.9514    1.0000 </r>
       <r>   -3.7063    1.0000 </r>
       <r>   -3.7063    1.0000 </r>
       <r>   -3.7063    1.0000 </r>
       <r>   -2.6153    1.0000 </r>
       <r>   -2.6153    1.0000 </r>
       <r>   -2.6153    1.0000 </r>
       <r>   -0.1072   -0.0000 </r>
       <r>   -0.1072   -0.0000 </r>
       <r>   -0.1072   -0.0000 </r>
       <r>    2.6379    0.0000 </r>
       <r>    2.6379    0.0000 </r>
       <r>    2.6379    0.0000 </r>
       <r>    2.6457    0.0000 </r>
       <r>    2.6457    0.0000 </r>
       <r>    2.7567    0.0000 </r>
       <r>    3.6568    0.0000 </r>
       <r>    4.4567    0.0000 </r>
       <r>    4.4567    0.0000 </r>
       <r>    4.8830    0.0000 </r>
       <r>    4.8830    0.0000 </r>
       <r>    4.8830    0.0000 </r>
       <r>    5.4721    0.0000 </r>
       <r>    5.4721    0.0000 </r>
       <r>    5.4721    0.0000 </r>
       <r>    5.6951    0.0000 </r>
       <r>    5.6951    0.0000 </r>
       <r>    5.6951    0.0000 </r>
       <r>    5.9326    0.0000 </r>
       <r>    5.9326    0.0000 </r>
       <r>    6.8103    0.0000 </r>
       <r>    6.8103    0.0000 </r>
       <r>    6.8103    0.0000 </r>
       <r>    6.9500    0.0000 </r>
       <r>    6.9500    0.0000 </r>
       <r>    6.9500    0.0000 </r>
       <r>    6.9729    0.0000 </r>
      </set>
     </set>
    </set>
   </array>
  </eigenvalues>
  <separator name="orbital magnetization" >
   <v name="MAGDIPOLOUT">      0.00000000      0.00000000      0.00000000</v>
  </separator>
  <dos>
   <i name="efermi">     -0.88669965 </i>
   <total>
    <array>
     <dimension dim="1">gridpoints</dimension>
     <dimension dim="2">spin</dimension>
     <field>energy</field>
     <field>total</field>
     <field>integrated</field>
     <set>
      <set comment="spin 1">
       <r>    -8.7769     0.0000     0.0000 </r>
       <r>    -8.7159     0.0000     0.0000 </r>
       <r>    -8.6550     0.0000     0.0000 </r>
       <r>    -8.5941    -0.0000    -0.0000 </r>
       <r>    -8.5331    -0.0000    -0.0000 </r>
       <r>    -8.4722    -0.0000    -0.0000 </r>
       <r>    -8.4112    -0.0000    -0.0000 </r>
       <r>    -8.3503    -0.0000    -0.0000 </r>
       <r>    -8.2893    -0.0000    -0.0000 </r>
       <r>    -8.2284    -0.0000    -0.0000 </r>
       <r>    -8.1675    -0.0000    -0.0000 </r>
       <r>    -8.1065    -0.0000    -0.0000 </r>
       <r>    -8.0456    -0.0002    -0.0000 </r>
       <r>    -7.9846    -0.0027    -0.0002 </r>
       <r>    -7.9237    -0.0160    -0.0012 </r>
       <r>    -7.8628    -0.0309    -0.0030 </r>
       <r>    -7.8018     0.0945     0.0027 </r>
       <r>    -7.7409     0.6381     0.0416 </r>
       <r>    -7.6799     1.1812     0.1136 </r>
       <r>    -7.6190     0.8957     0.1682 </r>
       <r>    -7.5581     0.9259     0.2246 </r>
       <r>    -7.4971     1.7052     0.3285 </r>
       <r>    -7.4362     1.6330     0.4280 </r>
       <r>    -7.3752     0.5728     0.4629 </r>
       <r>    -7.3143     0.3728     0.4857 </r>
       <r>    -7.2534     1.7725     0.5937 </r>
       <r>    -7.1924     2.3416     0.7364 </r>
       <r>    -7.1315     1.5924     0.8334 </r>
       <r>    -7.0705     0.9274     0.8899 </r>
       <r>    -7.0096     0.2274     0.9038 </r>
       <r>    -6.9487     0.9120     0.9594 </r>
       <r>    -6.8877     3.1023     1.1484 </r>
       <r>    -6.8268     5.2617     1.4691 </r>
       <r>    -6.7658     7.8168     1.9454 </r>
       <r>    -6.7049    11.5163     2.6472 </r>
       <r>    -6.6440    19.5826     3.8406 </r>
       <r>    -6.5830    28.9975     5.6077 </r>
       <r>    -6.5221    33.5437     7.6519 </r>
       <r>    -6.4611    36.3972     9.8699 </r>
       <r>    -6.4002    42.2108    12.4423 </r>
       <r>    -6.3393    48.4855    15.3970 </r>
       <r>    -6.2783    47.5066    18.2921 </r>
       <r>    -6.2174    41.0233    20.7920 </r>
       <r>    -6.1564    34.3824    22.8873 </r>
       <r>    -6.0955    26.4640    24.5000 </r>
       <r>    -6.0346    23.3644    25.9239 </r>
       <r>    -5.9736    24.5622    27.4207 </r>
       <r>    -5.9127    23.1715    28.8328 </r>
       <r>    -5.8517    19.0963    29.9965 </r>
       <r>    -5.7908    18.2099    31.1062 </r>
       <r>    -5.7299    28.9777    32.8721 </r>
       <r>    -5.6689    40.3879    35.3334 </r>
       <r>    -5.6080    38.1735    37.6597 </r>
       <r>    -5.5470    39.8055    40.0854 </r>
       <r>    -5.4861    50.6408    43.1715 </r>
       <r>    -5.4252    53.0601    46.4050 </r>
       <r>    -5.3642    40.7447    48.8880 </r>
       <r>    -5.3033    36.7548    51.1278 </r>
       <r>    -5.2423    48.9036    54.1081 </r>
       <r>    -5.1814    60.1045    57.7708 </r>
       <r>    -5.1205    59.3268    61.3862 </r>
       <r>    -5.0595    45.3985    64.1528 </r>
       <r>    -4.9986    32.0931    66.1086 </r>
       <r>    -4.9376    28.3197    67.8344 </r>
       <r>    -4.8767    29.8195    69.6516 </r>
       <r>    -4.8158    32.3308    71.6219 </r>
       <r>    -4.7548    32.7724    73.6190 </r>
       <r>    -4.6939    35.9078    75.8072 </r>
       <r>    -4.6329    47.5067    78.7023 </r>
       <r>    -4.5720    63.4683    82.5701 </r>
       <r>    -4.5111    69.2242    86.7886 </r>
       <r>    -4.4501    55.8237    90.1906 </r>
       <r>    -4.3892    40.8213    92.6782 </r>
       <r>    -4.3282    41.1075    95.1833 </r>
       <r>    -4.2673    42.5783    97.7781 </r>
       <r>    -4.2064    37.5525   100.0665 </r>
       <r>    -4.1454    38.7642   102.4288 </r>
       <r>    -4.0845    39.4925   104.8355 </r>
       <r>    -4.0235    36.7731   107.0765 </r>
       <r>    -3.9626    50.9405   110.1808 </r>
       <r>    -3.9016    68.1784   114.3356 </r>
       <r>    -3.8407    57.6546   117.8491 </r>
       <r>    -3.7798    41.2621   120.3636 </r>
       <r>    -3.7188    34.4050   122.4603 </r>
       <r>    -3.6579    20.4826   123.7085 </r>
       <r>    -3.5969     6.5665   124.1087 </r>
       <r>    -3.5360     2.6829   124.2721 </r>
       <r>    -3.4751     2.8185   124.4439 </r>
       <r>    -3.4141     1.8198   124.5548 </r>
       <r>    -3.3532     1.0153   124.6167 </r>
       <r>    -3.2922     0.2638   124.6328 </r>
       <r>    -3.2313     0.3377   124.6533 </r>
       <r>    -3.1704     2.1959   124.7872 </r>
       <r>    -3.1094     4.0171   125.0320 </r>
       <r>    -3.0485     5.3031   125.3551 </r>
       <r>    -2.9875     6.6732   125.7618 </r>
       <r>    -2.9266     5.6599   126.1067 </r>
       <r>    -2.8657     2.5810   126.2640 </r>
       <r>    -2.8047     0.3109   126.2829 </r>
       <r>    -2.7438    -0.3849   126.2595 </r>
       <r>    -2.6828     0.1929   126.2712 </r>
       <r>    -2.6219     2.7901   126.4413 </r>
       <r>    -2.5610     4.8451   126.7365 </r>
       <r>    -2.5000     3.8900   126.9736 </r>
       <r>    -2.4391     2.3932   127.1194 </r>
       <r>    -2.3781     0.8025   127.1683 </r>
       <r>    -2.3172    -0.2076   127.1557 </r>
       <r>    -2.2563    -0.0851   127.1505 </r>
       <r>    -2.1953     1.5721   127.2463 </r>
       <r>    -2.1344     4.9804   127.5498 </r>
       <r>    -2.0734     6.6610   127.9557 </r>
       <r>    -2.0125     3.7721   128.1856 </r>
       <r>    -1.9516     1.0763   128.2512 </r>
       <r>    -1.8906     3.2170   128.4473 </r>
       <r>    -1.8297     7.1069   128.8804 </r>
       <r>    -1.7687     6.4051   129.2707 </r>
       <r>    -1.7078     2.3878   129.4162 </r>
       <r>    -1.6469     1.7679   129.5239 </r>
       <r>    -1.5859     3.8803   129.7604 </r>
       <r>    -1.5250     3.2395   129.9578 </r>
       <r>    -1.4640     1.4915   130.0487 </r>
       <r>    -1.4031     1.9220   130.1658 </r>
       <r>    -1.3422     1.7700   130.2737 </r>
       <r>    -1.2812     0.9466   130.3314 </r>
       <r>    -1.2203     1.5185   130.4239 </r>
       <r>    -1.1593     3.0883   130.6121 </r>
       <r>    -1.0984     5.4076   130.9417 </r>
       <r>    -1.0375     5.6087   131.2835 </r>
       <r>    -0.9765     3.6230   131.5042 </r>
       <r>    -0.9156     4.8940   131.8025 </r>
       <r>    -0.8546     6.8128   132.2177 </r>
       <r>    -0.7937     4.9403   132.5187 </r>
       <r>    -0.7328     3.6846   132.7433 </r>
       <r>    -0.6718     5.1610   133.0578 </r>
       <r>    -0.6109     5.9918   133.4229 </r>
       <r>    -0.5499     5.1436   133.7364 </r>
       <r>    -0.4890     2.8415   133.9095 </r>
       <r>    -0.4281     0.5549   133.9434 </r>
       <r>    -0.3671     0.1506   133.9525 </r>
       <r>    -0.3062     1.5501   134.0470 </r>
       <r>    -0.2452     2.9818   134.2287 </r>
       <r>    -0.1843     2.2654   134.3668 </r>
       <r>    -0.1234     1.5673   134.4623 </r>
       <r>    -0.0624     2.7703   134.6311 </r>
       <r>    -0.0015     3.9182   134.8699 </r>
       <r>     0.0595     5.6223   135.2125 </r>
       <r>     0.1204     8.2364   135.7144 </r>
       <r>     0.1814     9.6806   136.3044 </r>
       <r>     0.2423     9.5516   136.8864 </r>
       <r>     0.3032     7.3359   137.3335 </r>
       <r>     0.3642     3.9567   137.5746 </r>
       <r>     0.4251     1.6190   137.6733 </r>
       <r>     0.4861     0.7901   137.7214 </r>
       <r>     0.5470     1.9049   137.8375 </r>
       <r>     0.6079     4.0575   138.0848 </r>
       <r>     0.6689     4.8256   138.3788 </r>
       <r>     0.7298     4.7314   138.6672 </r>
       <r>     0.7908     3.5535   138.8837 </r>
       <r>     0.8517     2.6978   139.0481 </r>
       <r>     0.9126     2.5879   139.2058 </r>
       <r>     0.9736     1.1247   139.2744 </r>
       <r>     1.0345     0.1173   139.2815 </r>
       <r>     1.0955     1.9272   139.3990 </r>
       <r>     1.1564     5.7389   139.7487 </r>
       <r>     1.2173     8.2455   140.2512 </r>
       <r>     1.2783     6.8224   140.6669 </r>
       <r>     1.3392     5.4646   141.0000 </r>
       <r>     1.4002     6.5144   141.3970 </r>
       <r>     1.4611     6.8922   141.8170 </r>
       <r>     1.5220     7.5552   142.2774 </r>
       <r>     1.5830     7.4385   142.7307 </r>
       <r>     1.6439     3.8124   142.9630 </r>
       <r>     1.7049     0.4080   142.9879 </r>
       <r>     1.7658     1.2819   143.0660 </r>
       <r>     1.8267     4.9476   143.3675 </r>
       <r>     1.8877     5.6543   143.7121 </r>
       <r>     1.9486     2.5637   143.8683 </r>
       <r>     2.0096     0.8127   143.9178 </r>
       <r>     2.0705     1.8881   144.0329 </r>
       <r>     2.1314     1.8930   144.1482 </r>
       <r>     2.1924     0.3496   144.1696 </r>
       <r>     2.2533     0.4014   144.1940 </r>
       <r>     2.3143     2.3418   144.3367 </r>
       <r>     2.3752     3.9840   144.5795 </r>
       <r>     2.4361     4.4101   144.8483 </r>
       <r>     2.4971     3.0485   145.0340 </r>
       <r>     2.5580     2.0971   145.1618 </r>
       <r>     2.6190     3.3834   145.3680 </r>
       <r>     2.6799     3.9653   145.6097 </r>
       <r>     2.7408     3.7034   145.8353 </r>
       <r>     2.8018     4.4039   146.1037 </r>
       <r>     2.8627     5.0039   146.4087 </r>
       <r>     2.9237     3.6678   146.6322 </r>
       <r>     2.9846     2.5269   146.7862 </r>
       <r>     3.0455     1.4234   146.8729 </r>
       <r>     3.1065     1.2992   146.9521 </r>
       <r>     3.1674     3.8968   147.1895 </r>
       <r>     3.2284     5.3315   147.5144 </r>
       <r>     3.2893     4.1528   147.7675 </r>
       <r>     3.3502     4.6529   148.0511 </r>
       <r>     3.4112     5.2630   148.3718 </r>
       <r>     3.4721     7.1219   148.8058 </r>
       <r>     3.5331    10.4473   149.4425 </r>
       <r>     3.5940     9.6004   150.0275 </r>
       <r>     3.6549     6.1813   150.4042 </r>
       <r>     3.7159     5.9491   150.7668 </r>
       <r>     3.7768     8.0160   151.2553 </r>
       <r>     3.8378     8.7444   151.7881 </r>
       <r>     3.8987     9.1779   152.3474 </r>
       <r>     3.9596     8.6728   152.8760 </r>
       <r>     4.0206     8.8939   153.4180 </r>
       <r>     4.0815    12.2235   154.1629 </r>
       <r>     4.1425    12.1853   154.9054 </r>
       <r>     4.2034     5.1781   155.2210 </r>
       <r>     4.2644     0.9603   155.2795 </r>
       <r>     4.3253     7.0161   155.7071 </r>
       <r>     4.3862    16.4529   156.7097 </r>
       <r>     4.4472    16.4166   157.7102 </r>
       <r>     4.5081     8.3623   158.2198 </r>
       <r>     4.5691     3.7818   158.4502 </r>
       <r>     4.6300     6.8643   158.8685 </r>
       <r>     4.6909     9.8492   159.4688 </r>
       <r>     4.7519     7.9918   159.9558 </r>
       <r>     4.8128     6.1428   160.3301 </r>
       <r>     4.8738     9.8475   160.9302 </r>
       <r>     4.9347    13.9875   161.7826 </r>
       <r>     4.9956    11.3195   162.4725 </r>
       <r>     5.0566     7.0839   162.9041 </r>
       <r>     5.1175     7.1320   163.3388 </r>
       <r>     5.1785     8.3921   163.8502 </r>
       <r>     5.2394     9.1129   164.4055 </r>
       <r>     5.3003    10.9958   165.0756 </r>
       <r>     5.3613    12.2124   165.8198 </r>
       <r>     5.4222    11.0023   166.4903 </r>
       <r>     5.4832     8.7443   167.0232 </r>
       <r>     5.5441    10.1419   167.6413 </r>
       <r>     5.6050    13.6777   168.4748 </r>
       <r>     5.6660    15.6102   169.4261 </r>
       <r>     5.7269    15.2808   170.3573 </r>
       <r>     5.7879    14.2504   171.2257 </r>
       <r>     5.8488    11.3418   171.9169 </r>
       <r>     5.9097     8.1539   172.4138 </r>
       <r>     5.9707     8.7697   172.9482 </r>
       <r>     6.0316     9.3308   173.5168 </r>
       <r>     6.0926     5.6187   173.8592 </r>
       <r>     6.1535     3.8287   174.0926 </r>
       <r>     6.2144     7.4451   174.5463 </r>
       <r>     6.2754     9.8099   175.1441 </r>
       <r>     6.3363    10.0631   175.7573 </r>
       <r>     6.3973    12.4308   176.5149 </r>
       <r>     6.4582    13.6564   177.3471 </r>
       <r>     6.5191    11.1794   178.0284 </r>
       <r>     6.5801     7.1141   178.4619 </r>
       <r>     6.6410     6.0541   178.8309 </r>
       <r>     6.7020     7.8747   179.3107 </r>
       <r>     6.7629     7.6369   179.7761 </r>
       <r>     6.8238    10.1491   180.3946 </r>
       <r>     6.8848    13.4344   181.2133 </r>
       <r>     6.9457    12.3461   181.9657 </r>
       <r>     7.0067    11.5577   182.6700 </r>
       <r>     7.0676    13.8421   183.5136 </r>
       <r>     7.1285    16.1178   184.4958 </r>
       <r>     7.1895    15.3690   185.4324 </r>
       <r>     7.2504    15.8284   186.3970 </r>
       <r>     7.3114    16.1615   187.3819 </r>
       <r>     7.3723    12.7708   188.1601 </r>
       <r>     7.4332    11.3484   188.8517 </r>
       <r>     7.4942     9.9017   189.4551 </r>
       <r>     7.5551     8.1690   189.9529 </r>
       <r>     7.6161     9.9799   190.5611 </r>
       <r>     7.6770     9.1421   191.1182 </r>
       <r>     7.7379     4.8985   191.4167 </r>
       <r>     7.7989     2.7616   191.5850 </r>
       <r>     7.8598     1.8323   191.6967 </r>
       <r>     7.9208     1.2355   191.7720 </r>
       <r>     7.9817     0.7558   191.8180 </r>
       <r>     8.0426     0.3239   191.8378 </r>
       <r>     8.1036     0.8537   191.8898 </r>
       <r>     8.1645     1.0963   191.9566 </r>
       <r>     8.2255     0.3875   191.9802 </r>
       <r>     8.2864    -0.0400   191.9778 </r>
       <r>     8.3474    -0.0449   191.9751 </r>
       <r>     8.4083    -0.0045   191.9748 </r>
       <r>     8.4692     0.0961   191.9806 </r>
       <r>     8.5302     0.1977   191.9927 </r>
       <r>     8.5911     0.1214   192.0001 </r>
       <r>     8.6521     0.0103   192.0007 </r>
       <r>     8.7130    -0.0093   192.0002 </r>
       <r>     8.7739    -0.0023   192.0000 </r>
       <r>     8.8349    -0.0002   192.0000 </r>
       <r>     8.8958    -0.0000   192.0000 </r>
       <r>     8.9568    -0.0000   192.0000 </r>
       <r>     9.0177    -0.0000   192.0000 </r>
       <r>     9.0786    -0.0000   192.0000 </r>
       <r>     9.1396    -0.0000   192.0000 </r>
       <r>     9.2005     0.0000   192.0000 </r>
       <r>     9.2615     0.0000   192.0000 </r>
       <r>     9.3224     0.0000   192.0000 </r>
       <r>     9.3833     0.0000   192.0000 </r>
       <r>     9.4443     0.0000   192.0000 </r>
       <r>     9.5052     0.0000   192.0000 </r>
      </set>
     </set>
    </array>
   </total>
  </dos>
 </calculation>
 <structure name="finalpos" >
  <crystal>
   <varray name="basis" >
    <v>       5.86474364       0.00000000       0.00000000 </v>
    <v>       2.93237182       5.07901698       0.00000000 </v>
    <v>       0.00000000       0.00000000      24.78854313 </v>
   </varray>
   <i name="volume">    738.37962018 </i>
   <varray name="rec_basis" >
    <v>       0.17051044      -0.09844425       0.00000000 </v>
    <v>       0.00000000       0.19688849       0.00000000 </v>
    <v>       0.00000000       0.00000000       0.04034122 </v>
   </varray>
  </crystal>
  <varray name="positions" >
   <v>       0.16666667       0.16666667       0.40398834 </v>
   <v>       0.66666667       0.16666667       0.40398834 </v>
   <v>       0.16666667       0.66666667       0.40398834 </v>
   <v>       0.66666667       0.66666667       0.40398834 </v>
   <v>       0.83333333       0.33333333       0.50000000 </v>
   <v>       0.33333333       0.33333333       0.50000000 </v>
   <v>       0.83333333       0.83333333       0.50000000 </v>
   <v>       0.33333333       0.83333333       0.50000000 </v>
   <v>       0.00000000       0.00000000       0.59601166 </v>
   <v>       0.50000000       0.00000000       0.59601166 </v>
   <v>       0.00000000       0.50000000       0.59601166 </v>
   <v>       0.50000000       0.50000000       0.59601166 </v>
  </varray>
 </structure>
</modeling>
