unknown system                          
           1
     5.864744    0.000000    0.000000
     2.932372    5.079017    0.000000
     0.000000    0.000000   24.788543
   Ag
  12
Direct configuration=     1
   0.16666667  0.16666667  0.40341217
   0.66666667  0.16666667  0.40341217
   0.16666667  0.66666667  0.40341217
   0.66666667  0.66666667  0.40341217
   0.83333333  0.33333333  0.50000000
   0.33333333  0.33333333  0.50000000
   0.83333333  0.83333333  0.50000000
   0.33333333  0.83333333  0.50000000
   0.00000000  0.00000000  0.59658783
   0.50000000  0.00000000  0.59658783
   0.00000000  0.50000000  0.59658783
   0.50000000  0.50000000  0.59658783
Direct configuration=     2
   0.16666667  0.16666667  0.40353121
   0.66666667  0.16666667  0.40353121
   0.16666667  0.66666667  0.40353121
   0.66666667  0.66666667  0.40353121
   0.83333333  0.33333333  0.50000000
   0.33333333  0.33333333  0.50000000
   0.83333333  0.83333333  0.50000000
   0.33333333  0.83333333  0.50000000
   0.00000000  0.00000000  0.59646879
   0.50000000  0.00000000  0.59646879
  -0.00000000  0.50000000  0.59646879
   0.50000000  0.50000000  0.59646879
Direct configuration=     3
   0.16666667  0.16666667  0.40383301
   0.66666667  0.16666667  0.40383301
   0.16666667  0.66666667  0.40383301
   0.66666667  0.66666667  0.40383301
   0.83333333  0.33333333  0.50000000
   0.33333333  0.33333333  0.50000000
   0.83333333  0.83333333  0.50000000
   0.33333333  0.83333333  0.50000000
   0.00000000  0.00000000  0.59616699
   0.50000000  0.00000000  0.59616699
  -0.00000000  0.50000000  0.59616699
   0.50000000  0.50000000  0.59616699
Direct configuration=     4
   0.16666667  0.16666667  0.40387185
   0.66666667  0.16666667  0.40387185
   0.16666667  0.66666667  0.40387185
   0.66666667  0.66666667  0.40387185
   0.83333333  0.33333333  0.50000000
   0.33333333  0.33333333  0.50000000
   0.83333333  0.83333333  0.50000000
   0.33333333  0.83333333  0.50000000
   0.00000000  0.00000000  0.59612815
   0.50000000  0.00000000  0.59612815
  -0.00000000  0.50000000  0.59612815
   0.50000000  0.50000000  0.59612815
Direct configuration=     5
   0.16666667  0.16666667  0.40398834
   0.66666667  0.16666667  0.40398834
   0.16666667  0.66666667  0.40398834
   0.66666667  0.66666667  0.40398834
   0.83333333  0.33333333  0.50000000
   0.33333333  0.33333333  0.50000000
   0.83333333  0.83333333  0.50000000
   0.33333333  0.83333333  0.50000000
   0.00000000  0.00000000  0.59601166
   0.50000000  0.00000000  0.59601166
   0.00000000  0.50000000  0.59601166
   0.50000000  0.50000000  0.59601166
