----- GAMESS execution script 'rungms' -----
This job is running on host crcfe02.crc.nd.edu
under operating system Linux at Sun Sep 29 10:49:19 EDT 2019
Available scratch disk space (Kbyte units) at beginning of the job is
Filesystem      1K-blocks  Used  Available Use% Mounted on
AFS            2147483647     0 2147483647   0% /afs
GAMESS temporary binary files will be written to /afs/crc.nd.edu/user/c/cdrisko
GAMESS supplementary output files will be written to /afs/crc.nd.edu/user/c/cdrisko/scr
Copying input file SO2.inp to your run's scratch directory...

 Distributed Data Interface kickoff program.
 Initiating 1 compute processes on 1 nodes to run the following command:
 /afs/crc.nd.edu/x86_64_linux/g/gamess/nov-2017/gamess/gamess.00.x SO2 

          ******************************************************
          *         GAMESS VERSION = 11 NOV 2017 (R3)         *
          *             FROM IOWA STATE UNIVERSITY             *
          * M.W.SCHMIDT, K.K.BALDRIDGE, J.A.BOATZ, S.T.ELBERT, *
          *   M.S.GORDON, J.H.JENSEN, S.KOSEKI, N.MATSUNAGA,   *
          *          K.A.NGUYEN, S.J.SU, T.L.WINDUS,           *
          *       TOGETHER WITH M.DUPUIS, J.A.MONTGOMERY       *
          *         J.COMPUT.CHEM.  14, 1347-1363(1993)        *
          **************** 64 BIT INTEL VERSION ****************

  SINCE 1993, STUDENTS AND POSTDOCS WORKING AT IOWA STATE UNIVERSITY
  AND ALSO IN THEIR VARIOUS JOBS AFTER LEAVING ISU HAVE MADE IMPORTANT
  CONTRIBUTIONS TO THE CODE:
     IVANA ADAMOVIC, CHRISTINE AIKENS, YURI ALEXEEV, POOJA ARORA,
     ANDREY ASADCHEV, ROB BELL, PRADIPTA BANDYOPADHYAY, JONATHAN BENTZ,
     BRETT BODE, KURT BRORSEN, CALEB CARLIN, GALINA CHABAN, WEI CHEN,
     CHEOL HO CHOI, PAUL DAY, ALBERT DEFUSCO, NUWAN DESILVA, TIM DUDLEY,
     DMITRI FEDOROV, ALEX FINDLATER, GRAHAM FLETCHER, MARK FREITAG,
     KURT GLAESEMANN, ANASTASIA GUININA,
     DAN KEMP, GRANT MERRILL, NORIYUKI MINEZAWA, JONATHAN MULLIN,
     TAKESHI NAGATA, SEAN NEDD, HEATHER NETZLOFF, BOSILJKA NJEGIC, RYAN OLSON,
     MIKE PAK, BUU PHAM,
     SPENCER PRUITT, LUKE ROSKOP, JIM SHOEMAKER, LYUDMILA SLIPCHENKO,
     TONY SMITH, SAROM SOK LEANG, JIE SONG, TETSUYA TAKETSUGU, SIMON WEBB,
     PENG XU, SOOHAENG YOO, FEDERICO ZAHARIEV

  ADDITIONAL CODE HAS BEEN PROVIDED BY COLLABORATORS IN OTHER GROUPS:
     IOWA STATE UNIVERSITY:
          JOE IVANIC, AARON WEST, LAIMUTIS BYTAUTAS, KLAUS RUEDENBERG
     UNIVERSITY OF TOKYO: KIMIHIKO HIRAO, TAKAHITO NAKAJIMA,
          TAKAO TSUNEDA, MUNEAKI KAMIYA, SUSUMU YANAGISAWA,
          KIYOSHI YAGI, MAHITO CHIBA, SEIKEN TOKURA, NAOAKI KAWAKAMI
     UNIVERSITY OF AARHUS: FRANK JENSEN
     UNIVERSITY OF IOWA: VISVALDAS KAIRYS, HUI LI
     NATIONAL INST. OF STANDARDS AND TECHNOLOGY: WALT STEVENS, DAVID GARMER
     UNIVERSITY OF PISA: BENEDETTA MENNUCCI, JACOPO TOMASI
     UNIVERSITY OF MEMPHIS: HENRY KURTZ, PRAKASHAN KORAMBATH
     UNIVERSITY OF ALBERTA: TOBY ZENG, MARIUSZ KLOBUKOWSKI
     UNIVERSITY OF NEW ENGLAND: MARK SPACKMAN
     MIE UNIVERSITY: HIROAKI UMEDA
     NAT. INST. OF ADVANCED INDUSTRIAL SCIENCE AND TECHNOLOGY: KAZUO KITAURA
     MICHIGAN STATE UNIVERSITY:
          KAROL KOWALSKI, MARTA WLOCH, JEFFREY GOUR, JESSE LUTZ,
          WEI LI, PIOTR PIECUCH
     UNIVERSITY OF SILESIA: MONIKA MUSIAL, STANISLAW KUCHARSKI
     FACULTES UNIVERSITAIRES NOTRE-DAME DE LA PAIX:
          OLIVIER QUINET, BENOIT CHAMPAGNE
     UNIVERSITY OF CALIFORNIA - SANTA BARBARA: BERNARD KIRTMAN
     INSTITUTE FOR MOLECULAR SCIENCE:
          KAZUYA ISHIMURA, MICHIO KATOUDA, AND SHIGERU NAGASE
     UNIVERSITY OF NOTRE DAME: ANNA POMOGAEVA, DAN CHIPMAN
     KYUSHU UNIVERSITY:
          HARUYUKI NAKANO,
          FENG LONG GU, JACEK KORCHOWIEC, MARCIN MAKOWSKI, AND YURIKO AOKI,
          HIROTOSHI MORI AND EISAKU MIYOSHI
     PENNSYLVANIA STATE UNIVERSITY:
          TZVETELIN IORDANOV, CHET SWALINA, JONATHAN SKONE,
          SHARON HAMMES-SCHIFFER
     WASEDA UNIVERSITY:
          MASATO KOBAYASHI, TOMOKO AKAMA, TSUGUKI TOUMA,
          TAKESHI YOSHIKAWA, YASUHIRO IKABATA, JUNJI SEINO,
          YUYA NAKAJIMA, HIROMI NAKAI
     NANJING UNIVERSITY: SHUHUA LI
     UNIVERSITY OF NEBRASKA:
          PEIFENG SU, DEJUN SI, NANDUN THELLAMUREGE, YALI WANG, HUI LI
     UNIVERSITY OF ZURICH: ROBERTO PEVERATI, KIM BALDRIDGE
     N. COPERNICUS UNIVERSITY AND JACKSON STATE UNIVERSITY:
          MARIA BARYSZ
     UNIVERSITY OF COPENHAGEN: Jimmy Kromann, CASPER STEINMANN
     TOKYO INSTITUTE OF TECHNOLOGY: HIROYA NAKATA
     NAGOYA UNIVERSITY: YOSHIO NISHIMOTO, STEPHAN IRLE
     MOSCOW STATE UNIVERSITY: VLADIMIR MIRONOV

 EXECUTION OF GAMESS BEGUN Sun Sep 29 10:49:19 2019

            ECHO OF THE FIRST FEW INPUT CARDS -
 INPUT CARD> $BASIS GBASIS=PCSEG-1 $END                                                     
 INPUT CARD> $CONTRL COORD=ZMT ISPHER=1 RUNTYP=ENERGY DFTTYP=PBE MULT=1 $END                
 INPUT CARD>                                                                                
 INPUT CARD> $DATA                                                                          
 INPUT CARD>Title SO2 single-point calculation template with Z-Matrix                       
 INPUT CARD>C1                                                                              
 INPUT CARD>S                                                                               
 INPUT CARD>O 1 1.50                                                                        
 INPUT CARD>O 1 1.50 2 150                                                                  
 INPUT CARD> $END                                                                           
    1000000 WORDS OF MEMORY AVAILABLE

     BASIS OPTIONS
     -------------
     GBASIS=PCSEG-1      IGAUSS=       0      POLAR=NONE    
     NDFUNC=       0     NFFUNC=       0     DIFFSP=       F
     NPFUNC=       0      DIFFS=       F     BASNAM=        


     RUN TITLE
     ---------
 Title SO2 single-point calculation template with Z-Matrix                       

 THE POINT GROUP OF THE MOLECULE IS C1      
 THE ORDER OF THE PRINCIPAL AXIS IS     0

 YOUR FULLY SUBSTITUTED Z-MATRIX IS
 S   
 O      1   1.5000000
 O      1   1.5000000  2  150.0000

 THE MOMENTS OF INERTIA ARE (AMU-ANGSTROM**2)
 IXX=     2.410   IYY=    67.156   IZZ=    69.566

 ATOM      ATOMIC                      COORDINATES (BOHR)
           CHARGE         X                   Y                   Z
 S          16.0     0.0000000000       -0.3669246034        0.0000000000
 O           8.0     2.7380027042        0.3667210101        0.0000000000
 O           8.0    -2.7380027042        0.3667210101        0.0000000000

          INTERNUCLEAR DISTANCES (ANGS.)
          ------------------------------

                1 S          2 O          3 O     

   1 S       0.0000000    1.5000000 *  1.5000000 *
   2 O       1.5000000 *  0.0000000    2.8977775 *
   3 O       1.5000000 *  2.8977775 *  0.0000000  

  * ... LESS THAN  3.000


     ATOMIC BASIS SET
     ----------------
 THE CONTRACTED PRIMITIVE FUNCTIONS HAVE BEEN UNNORMALIZED
 THE CONTRACTED BASIS FUNCTIONS ARE NOW NORMALIZED TO UNITY

  SHELL TYPE  PRIMITIVE        EXPONENT          CONTRACTION COEFFICIENT(S)

 S         

      1   S       1         49299.4000000    0.000677492991
      1   S       2          7395.8400000    0.005232317766
      1   S       3          1683.3000000    0.026769459077
      1   S       4           476.1440000    0.102869580705
      1   S       5           154.3290000    0.286438127414
      1   S       6            55.0288000    0.454278639081
      1   S       7            20.5029000    0.271743121997

      2   S       8            45.9596000   -0.088421914560
      2   S       9             4.9274000    0.564350486135
      2   S      10             1.9179900    0.505415953466

      3   S      11             0.3684980    1.000000000000

      4   S      12             0.1291650    1.000000000000

      5   P      13           451.6620000    0.003707705453
      5   P      14           106.0980000    0.029219352245
      5   P      15            33.6996000    0.124444551509
      5   P      16            12.3054000    0.321808587656
      5   P      17             4.7141200    0.462822172957
      5   P      18             1.7810500    0.266513371364

      6   P      19             0.8722350    0.349265132972
      6   P      20             0.3102780    0.717115018770

      7   P      21             0.1001940    1.000000000000

      8   D      22             0.5500000    1.000000000000

 O         

      9   S      23          2288.6400000    0.005451138222
      9   S      24           344.4160000    0.040718922842
      9   S      25            78.2538000    0.181369420873
      9   S      26            21.7195000    0.465536820246
      9   S      27             6.5590700    0.451211321214

     10   S      28            10.4656000   -0.150211201174
     10   S      29             0.9643510    1.052867983385

     11   S      30             0.2851270    1.000000000000

     12   P      31            17.0590000    0.068749256972
     12   P      32             3.6899900    0.351671941499
     12   P      33             0.9929960    0.724532099722

     13   P      34             0.2449240    1.000000000000

     14   D      35             1.0000000    1.000000000000

 O         

     15   S      36          2288.6400000    0.005451138222
     15   S      37           344.4160000    0.040718922842
     15   S      38            78.2538000    0.181369420873
     15   S      39            21.7195000    0.465536820246
     15   S      40             6.5590700    0.451211321214

     16   S      41            10.4656000   -0.150211201174
     16   S      42             0.9643510    1.052867983385

     17   S      43             0.2851270    1.000000000000

     18   P      44            17.0590000    0.068749256972
     18   P      45             3.6899900    0.351671941499
     18   P      46             0.9929960    0.724532099722

     19   P      47             0.2449240    1.000000000000

     20   D      48             1.0000000    1.000000000000

 TOTAL NUMBER OF BASIS SET SHELLS             =   20
 NUMBER OF CARTESIAN GAUSSIAN BASIS FUNCTIONS =   49
 NOTE: THIS RUN WILL RESTRICT THE MO VARIATION SPACE TO SPHERICAL HARMONICS.
 THE NUMBER OF ORBITALS KEPT IN THE VARIATIONAL SPACE WILL BE PRINTED LATER.
 NUMBER OF ELECTRONS                          =   32
 CHARGE OF MOLECULE                           =    0
 SPIN MULTIPLICITY                            =    1
 NUMBER OF OCCUPIED ORBITALS (ALPHA)          =   16
 NUMBER OF OCCUPIED ORBITALS (BETA )          =   16
 TOTAL NUMBER OF ATOMS                        =    3
 THE NUCLEAR REPULSION ENERGY IS      102.0002686992

     LEBEDEV GRID-BASED DFT OPTIONS
     ------------------------------
     DFTTYP=PBE     
     NRAD  =      96     NLEB  =     302
     NRAD0 =      24     NLEB0 =     110
     SWOFF =    5.00E-03 (PURE SCF -> DFT)
     SWITCH=    3.00E-04 (COARSE -> TIGHT GRID)
     THRESH=    0.00E+00 GTHRE=    1.00E+00

 GRIMME'S EMPIRICAL DISPERSION CORRECTION= F

     $CONTRL OPTIONS
     ---------------
 SCFTYP=RHF          RUNTYP=ENERGY       EXETYP=RUN     
 MPLEVL=       0     CITYP =NONE         CCTYP =NONE         VBTYP =NONE    
 DFTTYP=PBE          TDDFT =NONE    
 MULT  =       1     ICHARG=       0     NZVAR =       0     COORD =ZMT     
 PP    =NONE         RELWFN=NONE         LOCAL =NONE         NUMGRD=       F
 ISPHER=       1     NOSYM =       0     MAXIT =      30     UNITS =ANGS    
 PLTORB=       F     MOLPLT=       F     AIMPAC=       F     FRIEND=        
 NPRINT=       7     IREST =       0     GEOM  =INPUT   
 NORMF =       0     NORMP =       0     ITOL  =      20     ICUT  =       9
 INTTYP=BEST         GRDTYP=BEST         QMTTOL= 1.0E-06

     $SYSTEM OPTIONS
     ---------------
  REPLICATED MEMORY=     1000000 WORDS (ON EVERY NODE).
 DISTRIBUTED MEMDDI=           0 MILLION WORDS IN AGGREGATE,
 MEMDDI DISTRIBUTED OVER   1 PROCESSORS IS           0 WORDS/PROCESSOR.
 TOTAL MEMORY REQUESTED ON EACH PROCESSOR=     1000000 WORDS.
 TIMLIM=      525600.00 MINUTES, OR     365.0 DAYS.
 PARALL= F  BALTYP=  DLB     KDIAG=    0  COREFL= F
 MXSEQ2=     300 MXSEQ3=     150  mem10=         0

          ----------------
          PROPERTIES INPUT
          ----------------

     MOMENTS            FIELD           POTENTIAL          DENSITY
 IEMOM =       1   IEFLD =       0   IEPOT =       0   IEDEN =       0
 WHERE =COMASS     WHERE =NUCLEI     WHERE =NUCLEI     WHERE =NUCLEI  
 OUTPUT=BOTH       OUTPUT=BOTH       OUTPUT=BOTH       OUTPUT=BOTH    
 IEMINT=       0   IEFINT=       0                     IEDINT=       0
                                                       MORB  =       0
          EXTRAPOLATION IN EFFECT
          DIIS IN EFFECT
 ORBITAL PRINTING OPTION: NPREO=     1    49     2     1

     -------------------------------
     INTEGRAL TRANSFORMATION OPTIONS
     -------------------------------
     NWORD  =            0
     CUTOFF = 1.0E-09     MPTRAN =       0
     DIRTRF =       F     AOINTS =DUP     

          ----------------------
          INTEGRAL INPUT OPTIONS
          ----------------------
 NOPK  =       1 NORDER=       0 SCHWRZ=       F

   --- ENCODED Z MATRIX ---
 COORD  TYPE   I   J   K   L   M   N
    1      1    2   1
    2      1    3   1
    3      2    3   1   2

 THE DETERMINANT OF THE G MATRIX IS 10**(    -4)

 THE DETERMINANT OF THE G MATRIX IS 10**(    -4)
 * * * WARNING * * *
 YOUR B MATRIX HAS A SMALL DETERMINANT.
 THIS SUGGESTS YOU MAY HAVE BADLY CHOSEN COORDINATES.

     ------------------------------------------
     THE POINT GROUP IS C1 , NAXIS= 0, ORDER= 1
     ------------------------------------------

 -- VARIATIONAL SPACE WILL BE RESTRICTED TO PURE SPHERICAL HARMONICS ONLY --
 AFTER EXCLUDING CONTAMINANT COMBINATIONS FROM THE CARTESIAN GAUSSIAN BASIS
 SET, THE NUMBER OF SPHERICAL HARMONICS KEPT IN THE VARIATION SPACE IS   46

     DIMENSIONS OF THE SYMMETRY SUBSPACES ARE
 A   =   46

 ..... DONE SETTING UP THE RUN .....
 STEP CPU TIME =     0.04 TOTAL CPU TIME =          0.0 (      0.0 MIN)
 TOTAL WALL CLOCK TIME=          0.0 SECONDS, CPU UTILIZATION IS    80.00%

          ********************
          1 ELECTRON INTEGRALS
          ********************
 ...... END OF ONE-ELECTRON INTEGRALS ......
 STEP CPU TIME =     0.00 TOTAL CPU TIME =          0.0 (      0.0 MIN)
 TOTAL WALL CLOCK TIME=          0.0 SECONDS, CPU UTILIZATION IS    80.00%

          -------------
          GUESS OPTIONS
          -------------
          GUESS =HUCKEL            NORB  =       0          NORDER=       0
          MIX   =       F          PRTMO =       F          PUNMO =       F
          TOLZ  = 1.0E-08          TOLE  = 1.0E-05
          SYMDEN=       F          PURIFY=       F

 INITIAL GUESS ORBITALS GENERATED BY HUCKEL   ROUTINE.
 HUCKEL GUESS REQUIRES     21634 WORDS.

 STATISTICS FOR GENERATION OF SYMMETRY ORBITAL -Q- MATRIX
 NUMBER OF CARTESIAN ATOMIC ORBITALS=         49
 NUMBER OF SPHERICAL CONTAMINANTS DROPPED=     3
 NUMBER OF LINEARLY DEPENDENT MOS DROPPED=     0
 TOTAL NUMBER OF MOS IN VARIATION SPACE=      46

 SYMMETRIES FOR INITIAL GUESS ORBITALS FOLLOW.   BOTH SET(S).
    16 ORBITALS ARE OCCUPIED (    7 CORE ORBITALS).
     8=A        9=A       10=A       11=A       12=A       13=A       14=A   
    15=A       16=A       17=A       18=A       19=A       20=A       21=A   
    22=A       23=A       24=A       25=A       26=A   
 ...... END OF INITIAL ORBITAL SELECTION ......
 STEP CPU TIME =     0.01 TOTAL CPU TIME =          0.0 (      0.0 MIN)
 TOTAL WALL CLOCK TIME=          0.1 SECONDS, CPU UTILIZATION IS    83.33%

                    ----------------------
                    AO INTEGRAL TECHNOLOGY
                    ----------------------
     S,P,L SHELL ROTATED AXIS INTEGRALS, REPROGRAMMED BY
        KAZUYA ISHIMURA (IMS) AND JOSE SIERRA (SYNSTAR).
     S,P,D,L SHELL ROTATED AXIS INTEGRALS PROGRAMMED BY
        KAZUYA ISHIMURA (INSTITUTE FOR MOLECULAR SCIENCE).
     S,P,D,F,G SHELL TO TOTAL QUARTET ANGULAR MOMENTUM SUM 5,
        ERIC PROGRAM BY GRAHAM FLETCHER (ELORET AND NASA ADVANCED
        SUPERCOMPUTING DIVISION, AMES RESEARCH CENTER).
     S,P,D,F,G,L SHELL GENERAL RYS QUADRATURE PROGRAMMED BY
        MICHEL DUPUIS (PACIFIC NORTHWEST NATIONAL LABORATORY).

          --------------------
          2 ELECTRON INTEGRALS
          --------------------

 THE -PK- OPTION IS OFF, THE INTEGRALS ARE NOT IN SUPERMATRIX FORM.
 STORING   15000 INTEGRALS/RECORD ON DISK, USING 12 BYTES/INTEGRAL.
 TWO ELECTRON INTEGRAL EVALUATION REQUIRES   90606 WORDS OF MEMORY.
 II,JST,KST,LST =  1  1  1  1 NREC =         1 INTLOC =    1
 II,JST,KST,LST =  2  1  1  1 NREC =         1 INTLOC =    2
 II,JST,KST,LST =  3  1  1  1 NREC =         1 INTLOC =    7
 II,JST,KST,LST =  4  1  1  1 NREC =         1 INTLOC =   22
 II,JST,KST,LST =  5  1  1  1 NREC =         1 INTLOC =   56
 II,JST,KST,LST =  6  1  1  1 NREC =         1 INTLOC =  125
 II,JST,KST,LST =  7  1  1  1 NREC =         1 INTLOC =  329
 II,JST,KST,LST =  8  1  1  1 NREC =         1 INTLOC =  776
 II,JST,KST,LST =  9  1  1  1 NREC =         1 INTLOC = 2864
 II,JST,KST,LST = 10  1  1  1 NREC =         1 INTLOC = 4966
 II,JST,KST,LST = 11  1  1  1 NREC =         1 INTLOC = 7632
 II,JST,KST,LST = 12  1  1  1 NREC =         1 INTLOC =10749
 II,JST,KST,LST = 13  1  1  1 NREC =         2 INTLOC = 6657
 II,JST,KST,LST = 14  1  1  1 NREC =         3 INTLOC = 6927
 II,JST,KST,LST = 15  1  1  1 NREC =         6 INTLOC = 8901
 II,JST,KST,LST = 16  1  1  1 NREC =         7 INTLOC = 1093
 II,JST,KST,LST = 17  1  1  1 NREC =         7 INTLOC =12200
 II,JST,KST,LST = 18  1  1  1 NREC =         8 INTLOC =10552
 II,JST,KST,LST = 19  1  1  1 NREC =        11 INTLOC = 3364
 II,JST,KST,LST = 20  1  1  1 NREC =        14 INTLOC =10017
 TOTAL NUMBER OF NONZERO TWO-ELECTRON INTEGRALS =              330917
         23 INTEGRAL RECORDS WERE STORED ON DISK FILE  8.
  ...... END OF TWO-ELECTRON INTEGRALS .....
 STEP CPU TIME =     0.10 TOTAL CPU TIME =          0.2 (      0.0 MIN)
 TOTAL WALL CLOCK TIME=          0.2 SECONDS, CPU UTILIZATION IS    93.75%

          --------------------------
               R-PBE SCF CALCULATION
          --------------------------

     NUCLEAR ENERGY =       102.0002686992
     MAXIT =   30     NPUNCH=    2
     EXTRAP=T  DAMP=F  SHIFT=F  RSTRCT=F  DIIS=T  DEM=F  SOSCF=F
         DENSITY MATRIX CONVERGENCE THRESHOLD=  1.00E-05
     COARSE -> FINE DFT GRID SWITCH THRESHOLD=  3.00E-04 (SWITCH IN $DFT)
                   HF -> DFT SWITCH THRESHOLD=  5.00E-03 (SWOFF IN $DFT)
     MEMORY REQUIRED FOR RHF ITERS=    183108 WORDS.

 DFT CODE IS SWITCHING FROM THE FINE GRID NRAD= 96,  NLEB=  302
                      TO THE COARSE GRID NRAD0= 24, NLEB0=  110

     EXCHANGE FUNCTIONAL   =PBE       
     CORRELATION FUNCTIONAL=PBE       
     DFT THRESHOLD         =.460E-07
     GRID CHANGE THRESHOLD =.300E-03
 FOR AN EULER-MACLAURIN QUADRATURE USING  96 RADIAL POINTS:
 SMALLEST GAUSSIAN PRIMITIVE EXPONENT=        0.1001940000 OF TYPE -P-
 ON ATOM NUMBER   1 HAS RADIAL NORMALIZATION=  1.000000
  LARGEST GAUSSIAN PRIMITIVE EXPONENT=    49299.4000000000 OF TYPE -S-
 ON ATOM NUMBER   1 HAS RADIAL NORMALIZATION=  1.000000
 DFT IS SWITCHED OFF, PERFORMING PURE SCF UNTIL SWOFF THRESHOLD IS REACHED.

 ITER EX DEM     TOTAL ENERGY        E CHANGE  DENSITY CHANGE    DIIS ERROR
   1  0  0     -545.9874510473  -545.9874510473   0.723587374   1.110097119
          * * *   INITIATING DIIS PROCEDURE   * * *
   2  1  0     -546.7195663950    -0.7321153477   0.623455202   0.279527372
   3  2  0     -546.8264056184    -0.1068392234   0.215589411   0.247681444
   4  3  0     -547.0228608098    -0.1964551914   0.052994590   0.022194509
   5  4  0     -547.0282996408    -0.0054388310   0.047031423   0.014177802
   6  5  0     -547.0305487987    -0.0022491579   0.034716454   0.008299992
   7  6  0     -547.0314223393    -0.0008735406   0.011835345   0.002473428
   8  7  0     -547.0315008956    -0.0000785562   0.000839439   0.000481140
 CONVERGED TO SWOFF, SO DFT CALCULATION IS NOW SWITCHED ON.
          * * *   INITIATING DIIS PROCEDURE   * * *
   9  8  0     -548.1966391669    -1.1651382714   0.335143668   0.102554615
  10  9  0     -548.2033930947    -0.0067539277   0.287629853   0.094230838
  11 10  0     -548.2027171119     0.0006759827   0.113423807   0.104574762
  12 11  0     -548.2354637747    -0.0327466628   0.027244298   0.016276537
  13 12  0     -548.2363972451    -0.0009334704   0.002492617   0.001170925
  14 13  0     -548.2364024082    -0.0000051631   0.001129942   0.000238981
  15 14  0     -548.2364028016    -0.0000003934   0.000108190   0.000044620
 DFT CODE IS SWITCHING BACK TO THE FINE GRID
          * * *   INITIATING DIIS PROCEDURE   * * *
  16 15  0     -548.2076804228     0.0287223788   0.013127772   0.009365557
  17 16  0     -548.2079881863    -0.0003077634   0.005241858   0.002775179
  18 17  0     -548.2080094858    -0.0000212995   0.002704554   0.001737476
  19 18  0     -548.2080123144    -0.0000028286   0.001867951   0.001915644
  20 19  0     -548.2080208393    -0.0000085249   0.000806806   0.000761695
  21 20  0     -548.2080218790    -0.0000010397   0.000382232   0.000264748
  22 21  0     -548.2080222036    -0.0000003246   0.000015016   0.000009054
  23 22  0     -548.2080222040    -0.0000000004   0.000001286   0.000000611
  24 23  0     -548.2080222040     0.0000000000   0.000000231   0.000000095

          -----------------
          DENSITY CONVERGED
          -----------------
     TIME TO FORM FOCK OPERATORS=       2.5 SECONDS (       0.1 SEC/ITER)
     TIME TO SOLVE SCF EQUATIONS=       0.0 SECONDS (       0.0 SEC/ITER)

 FINAL R-PBE ENERGY IS     -548.2080222040 AFTER  24 ITERATIONS
 DFT EXCHANGE + CORRELATION ENERGY =       -42.4491666033
 TOTAL ELECTRON NUMBER             =        32.0000024991

          ------------
          EIGENVECTORS
          ------------

                      1          2          3          4          5
                  -88.2280   -18.8181   -18.8181    -7.8382    -5.8652
                     A          A          A          A          A   
    1  S  1  S    0.997752  -0.000000  -0.000023  -0.308368  -0.000000
    2  S  1  S    0.008315   0.000000   0.000068   1.031688   0.000000
    3  S  1  S   -0.003249   0.000002   0.000572   0.027893   0.000000
    4  S  1  S    0.000551   0.000016   0.006296  -0.005138  -0.000000
    5  S  1  X   -0.000000  -0.000076   0.000000  -0.000000   0.994529
    6  S  1  Y    0.000127  -0.000000  -0.000040   0.012988  -0.000000
    7  S  1  Z    0.000000   0.000000   0.000000   0.000000   0.000000
    8  S  1  X    0.000000   0.002200  -0.000006   0.000000   0.017382
    9  S  1  Y   -0.000292   0.000002   0.000701   0.001226  -0.000000
   10  S  1  Z    0.000000   0.000000   0.000000   0.000000   0.000000
   11  S  1  X    0.000000   0.005748  -0.000015   0.000000  -0.002289
   12  S  1  Y   -0.000017   0.000004   0.001518  -0.000256  -0.000000
   13  S  1  Z    0.000000   0.000000   0.000000   0.000000   0.000000
   14  S  1 XX   -0.000514   0.000000   0.000026   0.001273  -0.000000
   15  S  1 YY    0.000231   0.000000   0.000079  -0.000654   0.000000
   16  S  1 ZZ    0.000283  -0.000000  -0.000105  -0.000619   0.000000
   17  S  1 XY    0.000000   0.000053  -0.000000   0.000000   0.001343
   18  S  1 XZ    0.000000   0.000000   0.000000   0.000000   0.000000
   19  S  1 YZ    0.000000   0.000000   0.000000   0.000000   0.000000
   20  O  2  S   -0.000023   0.704105   0.700494  -0.000077  -0.000434
   21  O  2  S   -0.000197   0.024296   0.023655  -0.000101   0.000089
   22  O  2  S    0.000667  -0.012833  -0.010851  -0.000725  -0.000914
   23  O  2  X   -0.000097  -0.000794  -0.001062   0.000224  -0.000669
   24  O  2  Y   -0.000031  -0.000264  -0.000044   0.000062  -0.000192
   25  O  2  Z    0.000000   0.000000   0.000000   0.000000   0.000000
   26  O  2  X   -0.000604   0.002090   0.002853   0.001120   0.001075
   27  O  2  Y   -0.000166   0.001214   0.000037   0.000347   0.000226
   28  O  2  Z    0.000000   0.000000   0.000000   0.000000   0.000000
   29  O  2 XX    0.000300  -0.000179  -0.000279   0.000038   0.001023
   30  O  2 YY   -0.000126   0.000040   0.000141  -0.000027  -0.000416
   31  O  2 ZZ   -0.000174   0.000139   0.000138  -0.000011  -0.000607
   32  O  2 XY    0.000167  -0.000214  -0.000018  -0.000021   0.000632
   33  O  2 XZ    0.000000   0.000000   0.000000   0.000000   0.000000
   34  O  2 YZ    0.000000   0.000000   0.000000   0.000000   0.000000
   35  O  3  S   -0.000023  -0.700505   0.704094  -0.000077   0.000434
   36  O  3  S   -0.000197  -0.024174   0.023780  -0.000101  -0.000089
   37  O  3  S    0.000667   0.012777  -0.010918  -0.000725   0.000914
   38  O  3  X    0.000097  -0.000789   0.001066  -0.000224  -0.000669
   39  O  3  Y   -0.000031   0.000264  -0.000045   0.000062   0.000192
   40  O  3  Z    0.000000   0.000000   0.000000   0.000000   0.000000
   41  O  3  X    0.000604   0.002075  -0.002864  -0.001120   0.001075
   42  O  3  Y   -0.000166  -0.001214   0.000043   0.000347  -0.000226
   43  O  3  Z    0.000000   0.000000   0.000000   0.000000   0.000000
   44  O  3 XX    0.000300   0.000178  -0.000280   0.000038  -0.001023
   45  O  3 YY   -0.000126  -0.000039   0.000141  -0.000027   0.000416
   46  O  3 ZZ   -0.000174  -0.000139   0.000139  -0.000011   0.000607
   47  O  3 XY   -0.000167  -0.000214   0.000019   0.000021   0.000632
   48  O  3 XZ    0.000000   0.000000   0.000000   0.000000   0.000000
   49  O  3 YZ    0.000000   0.000000   0.000000   0.000000   0.000000

                      6          7          8          9         10
                   -5.8628    -5.8588    -1.0318    -0.9718    -0.5916
                     A          A          A          A          A   
    1  S  1  S    0.000000   0.004099   0.050796   0.000000   0.064258
    2  S  1  S    0.000000  -0.014141  -0.311832  -0.000001  -0.411692
    3  S  1  S    0.000000   0.000471   0.432586   0.000000   0.636020
    4  S  1  S    0.000000  -0.000169   0.069955   0.000005   0.220307
    5  S  1  X    0.000000   0.000000  -0.000000   0.135460   0.000000
    6  S  1  Y    0.000000   0.994998  -0.037230  -0.000000   0.000533
    7  S  1  Z    0.995049   0.000000   0.000000   0.000000   0.000000
    8  S  1  X    0.000000   0.000000   0.000002  -0.298603  -0.000000
    9  S  1  Y    0.000000   0.015498   0.084221   0.000001   0.008171
   10  S  1  Z    0.015648   0.000000   0.000000   0.000000   0.000000
   11  S  1  X    0.000000   0.000000   0.000003   0.017969  -0.000002
   12  S  1  Y    0.000000  -0.002871  -0.009619   0.000001  -0.017010
   13  S  1  Z   -0.002970   0.000000   0.000000   0.000000   0.000000
   14  S  1 XX    0.000000  -0.000594   0.071042   0.000001  -0.020336
   15  S  1 YY    0.000000   0.001063  -0.031564  -0.000001   0.006193
   16  S  1 ZZ    0.000000  -0.000468  -0.039478  -0.000001   0.014143
   17  S  1 XY    0.000000   0.000000   0.000001  -0.048322  -0.000000
   18  S  1 XZ    0.000000   0.000000   0.000000   0.000000   0.000000
   19  S  1 YZ    0.000871   0.000000   0.000000   0.000000   0.000000
   20  O  2  S    0.000000  -0.000124  -0.137954   0.160320   0.116781
   21  O  2  S    0.000000  -0.000012   0.282659  -0.331497  -0.249392
   22  O  2  S    0.000000   0.000163   0.244302  -0.292992  -0.333250
   23  O  2  X    0.000000  -0.000269  -0.107254   0.104558  -0.182399
   24  O  2  Y    0.000000  -0.000102  -0.022538   0.024308  -0.046656
   25  O  2  Z   -0.000034   0.000000   0.000000   0.000000   0.000000
   26  O  2  X    0.000000   0.000172  -0.034637   0.020115  -0.086629
   27  O  2  Y    0.000000  -0.000170  -0.003020   0.005301  -0.017502
   28  O  2  Z   -0.000154   0.000000   0.000000   0.000000   0.000000
   29  O  2 XX    0.000000   0.000341   0.010213  -0.010002   0.009475
   30  O  2 YY    0.000000  -0.000160  -0.006230   0.005289  -0.003391
   31  O  2 ZZ    0.000000  -0.000182  -0.003983   0.004713  -0.006084
   32  O  2 XY    0.000000   0.000221   0.000931  -0.004933   0.005157
   33  O  2 XZ    0.000025   0.000000   0.000000   0.000000   0.000000
   34  O  2 YZ   -0.000018   0.000000   0.000000   0.000000   0.000000
   35  O  3  S    0.000000  -0.000124  -0.137954  -0.160320   0.116782
   36  O  3  S    0.000000  -0.000012   0.282657   0.331499  -0.249393
   37  O  3  S    0.000000   0.000163   0.244309   0.292986  -0.333253
   38  O  3  X    0.000000   0.000269   0.107254   0.104559   0.182399
   39  O  3  Y    0.000000  -0.000102  -0.022538  -0.024308  -0.046656
   40  O  3  Z   -0.000034   0.000000   0.000000   0.000000   0.000000
   41  O  3  X    0.000000  -0.000172   0.034639   0.020111   0.086629
   42  O  3  Y    0.000000  -0.000170  -0.003021  -0.005301  -0.017502
   43  O  3  Z   -0.000154   0.000000   0.000000   0.000000   0.000000
   44  O  3 XX    0.000000   0.000341   0.010214   0.010002   0.009475
   45  O  3 YY    0.000000  -0.000160  -0.006230  -0.005289  -0.003391
   46  O  3 ZZ    0.000000  -0.000182  -0.003983  -0.004713  -0.006084
   47  O  3 XY    0.000000  -0.000221  -0.000931  -0.004933  -0.005157
   48  O  3 XZ   -0.000025   0.000000   0.000000   0.000000   0.000000
   49  O  3 YZ   -0.000018   0.000000   0.000000   0.000000   0.000000

                     11         12         13         14         15
                   -0.4527    -0.4369    -0.4301    -0.3457    -0.3371
                     A          A          A          A          A   
    1  S  1  S   -0.000000   0.000000  -0.009405   0.000000   0.000000
    2  S  1  S    0.000000   0.000000   0.060215   0.000000  -0.000000
    3  S  1  S   -0.000001   0.000000  -0.086649   0.000000   0.000000
    4  S  1  S   -0.000001   0.000000  -0.084188   0.000000  -0.000001
    5  S  1  X   -0.172760   0.000000   0.000000   0.000000   0.016747
    6  S  1  Y   -0.000000   0.000000  -0.205386   0.000000   0.000000
    7  S  1  Z    0.000000  -0.210015   0.000000   0.000000   0.000000
    8  S  1  X    0.465826   0.000000  -0.000000   0.000000  -0.041915
    9  S  1  Y    0.000000   0.000000   0.546459   0.000000  -0.000000
   10  S  1  Z    0.000000   0.561434   0.000000  -0.000000   0.000000
   11  S  1  X   -0.044496   0.000000   0.000001   0.000000  -0.050132
   12  S  1  Y    0.000000   0.000000   0.126109   0.000000  -0.000000
   13  S  1  Z    0.000000   0.133517   0.000000  -0.000000   0.000000
   14  S  1 XX   -0.000000   0.000000  -0.036798   0.000000  -0.000000
   15  S  1 YY    0.000000   0.000000   0.050542   0.000000   0.000000
   16  S  1 ZZ    0.000000   0.000000  -0.013744   0.000000   0.000000
   17  S  1 XY    0.037201   0.000000   0.000000   0.000000   0.124812
   18  S  1 XZ    0.000000   0.000000   0.000000   0.129595   0.000000
   19  S  1 YZ    0.000000   0.037208   0.000000  -0.000000   0.000000
   20  O  2  S    0.072880   0.000000   0.009390   0.000000  -0.000230
   21  O  2  S   -0.155690   0.000000  -0.020689   0.000000  -0.000749
   22  O  2  S   -0.240276   0.000000  -0.032341   0.000000   0.017366
   23  O  2  X   -0.365357   0.000000  -0.141613   0.000000  -0.159951
   24  O  2  Y   -0.116406   0.000000   0.282893   0.000000   0.433910
   25  O  2  Z    0.000000   0.314208   0.000000   0.462059   0.000000
   26  O  2  X   -0.172814   0.000000  -0.087304   0.000000  -0.106219
   27  O  2  Y   -0.063412   0.000000   0.171192   0.000000   0.303014
   28  O  2  Z    0.000000   0.188124   0.000000   0.323142   0.000000
   29  O  2 XX    0.013546   0.000000   0.013924   0.000000   0.005491
   30  O  2 YY   -0.004870   0.000000  -0.010211   0.000000  -0.006542
   31  O  2 ZZ   -0.008676   0.000000  -0.003713   0.000000   0.001050
   32  O  2 XY    0.009909   0.000000  -0.015938   0.000000  -0.018340
   33  O  2 XZ    0.000000  -0.021214   0.000000  -0.018518   0.000000
   34  O  2 YZ    0.000000  -0.004555   0.000000  -0.004239   0.000000
   35  O  3  S   -0.072879   0.000000   0.009390   0.000000   0.000230
   36  O  3  S    0.155688   0.000000  -0.020690   0.000000   0.000749
   37  O  3  S    0.240277   0.000000  -0.032341   0.000000  -0.017366
   38  O  3  X   -0.365357   0.000000   0.141614   0.000000  -0.159951
   39  O  3  Y    0.116407   0.000000   0.282892   0.000000  -0.433910
   40  O  3  Z    0.000000   0.314208   0.000000  -0.462059   0.000000
   41  O  3  X   -0.172813   0.000000   0.087304   0.000000  -0.106219
   42  O  3  Y    0.063412   0.000000   0.171192   0.000000  -0.303014
   43  O  3  Z    0.000000   0.188124   0.000000  -0.323142   0.000000
   44  O  3 XX   -0.013546   0.000000   0.013924   0.000000  -0.005491
   45  O  3 YY    0.004870   0.000000  -0.010211   0.000000   0.006542
   46  O  3 ZZ    0.008676   0.000000  -0.003713   0.000000  -0.001050
   47  O  3 XY    0.009909   0.000000   0.015938   0.000000  -0.018340
   48  O  3 XZ    0.000000   0.021214   0.000000  -0.018518   0.000000
   49  O  3 YZ    0.000000  -0.004555   0.000000   0.004239   0.000000

                     16         17         18         19         20
                   -0.2522    -0.1686    -0.1138     0.1162     0.2136
                     A          A          A          A          A   
    1  S  1  S    0.029528   0.000000   0.018923  -0.000000   0.000000
    2  S  1  S   -0.191848   0.000000  -0.126001   0.000001   0.000000
    3  S  1  S    0.236969   0.000000   0.164411  -0.000006   0.000000
    4  S  1  S    0.593983   0.000000   0.493979  -0.000009   0.000000
    5  S  1  X   -0.000000   0.000000  -0.000000  -0.120896   0.000000
    6  S  1  Y    0.104316   0.000000  -0.205242   0.000000   0.000000
    7  S  1  Z    0.000000  -0.231035   0.000000   0.000000   0.245637
    8  S  1  X    0.000001   0.000000   0.000001   0.383914   0.000000
    9  S  1  Y   -0.290452   0.000000   0.629552  -0.000002   0.000000
   10  S  1  Z    0.000000   0.688267   0.000000   0.000000  -0.971617
   11  S  1  X   -0.000002   0.000000  -0.000005   1.493602   0.000000
   12  S  1  Y   -0.046786   0.000000   0.388121  -0.000001   0.000000
   13  S  1  Z    0.000000   0.317039   0.000000   0.000000   1.315566
   14  S  1 XX   -0.186569   0.000000  -0.138057  -0.000006   0.000000
   15  S  1 YY    0.091220   0.000000   0.043246   0.000002   0.000000
   16  S  1 ZZ    0.095349   0.000000   0.094812   0.000003   0.000000
   17  S  1 XY   -0.000000   0.000000   0.000000  -0.136411   0.000000
   18  S  1 XZ    0.000000   0.000000   0.000000   0.000000   0.000000
   19  S  1 YZ    0.000000  -0.018640   0.000000   0.000000  -0.071858
   20  O  2  S    0.014813   0.000000   0.031938   0.075255   0.000000
   21  O  2  S   -0.037346   0.000000  -0.074892  -0.140675   0.000000
   22  O  2  S   -0.101117   0.000000  -0.214030  -0.806140   0.000000
   23  O  2  X    0.276923   0.000000   0.312326   0.096223   0.000000
   24  O  2  Y    0.314666   0.000000  -0.248166   0.161301   0.000000
   25  O  2  Z    0.000000  -0.394416   0.000000   0.000000  -0.053270
   26  O  2  X    0.193158   0.000000   0.268383   0.207002   0.000000
   27  O  2  Y    0.228908   0.000000  -0.212192   0.172028   0.000000
   28  O  2  Z    0.000000  -0.322834   0.000000   0.000000  -0.122421
   29  O  2 XX   -0.002443   0.000000   0.000620  -0.009442   0.000000
   30  O  2 YY    0.000672   0.000000  -0.001593   0.006825   0.000000
   31  O  2 ZZ    0.001771   0.000000   0.000974   0.002617   0.000000
   32  O  2 XY   -0.004456   0.000000  -0.001817   0.002550   0.000000
   33  O  2 XZ    0.000000   0.000604   0.000000   0.000000   0.019942
   34  O  2 YZ    0.000000  -0.000760   0.000000   0.000000   0.003468
   35  O  3  S    0.014814   0.000000   0.031939  -0.075253   0.000000
   36  O  3  S   -0.037347   0.000000  -0.074894   0.140661   0.000000
   37  O  3  S   -0.101119   0.000000  -0.214033   0.806163   0.000000
   38  O  3  X   -0.276923   0.000000  -0.312327   0.096218   0.000000
   39  O  3  Y    0.314666   0.000000  -0.248166  -0.161302   0.000000
   40  O  3  Z    0.000000  -0.394416   0.000000   0.000000  -0.053270
   41  O  3  X   -0.193157   0.000000  -0.268383   0.207018   0.000000
   42  O  3  Y    0.228908   0.000000  -0.212192  -0.172031   0.000000
   43  O  3  Z    0.000000  -0.322834   0.000000   0.000000  -0.122421
   44  O  3 XX   -0.002443   0.000000   0.000620   0.009443   0.000000
   45  O  3 YY    0.000672   0.000000  -0.001593  -0.006826   0.000000
   46  O  3 ZZ    0.001771   0.000000   0.000974  -0.002617   0.000000
   47  O  3 XY    0.004456   0.000000   0.001817   0.002550   0.000000
   48  O  3 XZ    0.000000  -0.000604   0.000000   0.000000  -0.019942
   49  O  3 YZ    0.000000  -0.000760   0.000000   0.000000   0.003468

                     21         22         23         24         25
                    0.2203     0.2491     0.3454     0.5097     0.5108
                     A          A          A          A          A   
    1  S  1  S   -0.004286  -0.069917   0.000000   0.000000   0.001152
    2  S  1  S    0.031727   0.510720  -0.000003   0.000000  -0.008215
    3  S  1  S   -0.160407  -1.894126   0.000012   0.000000   0.015041
    4  S  1  S    0.299456   2.167728  -0.000002   0.000000   0.044143
    5  S  1  X   -0.000001  -0.000002  -0.326977   0.000000  -0.000000
    6  S  1  Y    0.244120  -0.028670  -0.000001   0.000000   0.021353
    7  S  1  Z    0.000000   0.000000   0.000000   0.022977   0.000000
    8  S  1  X    0.000005   0.000011   1.253014   0.000000   0.000000
    9  S  1  Y   -0.959721   0.128063   0.000003   0.000000  -0.085549
   10  S  1  Z    0.000000   0.000000   0.000000  -0.093447   0.000000
   11  S  1  X   -0.000001  -0.000003  -1.074049   0.000000   0.000000
   12  S  1  Y    1.333316  -0.024114  -0.000001   0.000000   0.091726
   13  S  1  Z    0.000000   0.000000   0.000000   0.084503   0.000000
   14  S  1 XX    0.102242   0.073141   0.000004   0.000000  -0.019754
   15  S  1 YY   -0.110633  -0.032112  -0.000002   0.000000   0.856962
   16  S  1 ZZ    0.008390  -0.041029  -0.000003   0.000000  -0.837208
   17  S  1 XY    0.000000   0.000001  -0.288905   0.000000   0.000000
   18  S  1 XZ    0.000000   0.000000   0.000000  -0.000000   0.000000
   19  S  1 YZ    0.000000   0.000000   0.000000   0.979628   0.000000
   20  O  2  S    0.007581   0.014477   0.016621   0.000000   0.003590
   21  O  2  S    0.006273  -0.000847  -0.099890   0.000000  -0.012260
   22  O  2  S   -0.197400  -0.407407   0.221944   0.000000  -0.023605
   23  O  2  X   -0.059601  -0.165924   0.308506   0.000000   0.034608
   24  O  2  Y   -0.062732  -0.064378   0.164823   0.000000  -0.128832
   25  O  2  Z    0.000000   0.000000   0.000000  -0.127180   0.000000
   26  O  2  X    0.044473   0.113492   0.195015   0.000000   0.015016
   27  O  2  Y   -0.106378   0.034788   0.067237   0.000000   0.042773
   28  O  2  Z    0.000000   0.000000   0.000000   0.035077   0.000000
   29  O  2 XX   -0.023249  -0.037358   0.032551   0.000000   0.006301
   30  O  2 YY    0.013674   0.015649  -0.007710   0.000000   0.021650
   31  O  2 ZZ    0.009575   0.021709  -0.024842   0.000000  -0.027951
   32  O  2 XY    0.010807  -0.021584   0.036661   0.000000  -0.023286
   33  O  2 XZ    0.000000   0.000000   0.000000  -0.023406   0.000000
   34  O  2 YZ    0.000000   0.000000   0.000000   0.028810   0.000000
   35  O  3  S    0.007581   0.014478  -0.016622   0.000000   0.003590
   36  O  3  S    0.006270  -0.000854   0.099897   0.000000  -0.012261
   37  O  3  S   -0.197395  -0.407396  -0.221956   0.000000  -0.023604
   38  O  3  X    0.059601   0.165924   0.308508   0.000000  -0.034609
   39  O  3  Y   -0.062733  -0.064379  -0.164822   0.000000  -0.128832
   40  O  3  Z    0.000000   0.000000   0.000000  -0.127180   0.000000
   41  O  3  X   -0.044468  -0.113481   0.195004   0.000000  -0.015015
   42  O  3  Y   -0.106378   0.034786  -0.067235   0.000000   0.042773
   43  O  3  Z    0.000000   0.000000   0.000000   0.035077   0.000000
   44  O  3 XX   -0.023249  -0.037358  -0.032552   0.000000   0.006301
   45  O  3 YY    0.013674   0.015649   0.007710   0.000000   0.021650
   46  O  3 ZZ    0.009575   0.021709   0.024842   0.000000  -0.027951
   47  O  3 XY   -0.010807   0.021585   0.036661   0.000000   0.023286
   48  O  3 XZ    0.000000   0.000000   0.000000   0.023406   0.000000
   49  O  3 YZ    0.000000   0.000000   0.000000   0.028810   0.000000

                     26         27         28         29         30
                    0.5446     0.6202     0.6556     0.7588     0.7648
                     A          A          A          A          A   
    1  S  1  S    0.000000  -0.000000   0.020869  -0.000000   0.000000
    2  S  1  S    0.000000   0.000000  -0.168950   0.000000   0.000000
    3  S  1  S    0.000000  -0.000001   0.702958  -0.000003   0.000000
    4  S  1  S    0.000000  -0.000011   0.805949  -0.000006   0.000000
    5  S  1  X    0.000000  -0.174815  -0.000001  -0.037720   0.000000
    6  S  1  Y    0.000000   0.000000  -0.055032   0.000000   0.000000
    7  S  1  Z    0.000000   0.000000   0.000000   0.000000   0.000000
    8  S  1  X    0.000000   0.891096   0.000007   0.364388   0.000000
    9  S  1  Y    0.000000  -0.000002   0.311134  -0.000001   0.000000
   10  S  1  Z   -0.000000   0.000000   0.000000   0.000000  -0.000000
   11  S  1  X    0.000000   0.110184   0.000008  -0.200119   0.000000
   12  S  1  Y    0.000000  -0.000001   0.035993  -0.000000   0.000000
   13  S  1  Z    0.000000   0.000000   0.000000   0.000000  -0.000000
   14  S  1 XX    0.000000  -0.000003   0.635241  -0.000002   0.000000
   15  S  1 YY    0.000000   0.000001  -0.288754   0.000001   0.000000
   16  S  1 ZZ    0.000000   0.000002  -0.346487   0.000001   0.000000
   17  S  1 XY    0.000000   0.727768   0.000004   0.200590   0.000000
   18  S  1 XZ    0.850979   0.000000   0.000000   0.000000  -0.551425
   19  S  1 YZ    0.000000   0.000000   0.000000   0.000000  -0.000000
   20  O  2  S    0.000000   0.059291   0.070338   0.000629   0.000000
   21  O  2  S    0.000000  -0.193710  -0.220221   0.082090   0.000000
   22  O  2  S    0.000000  -0.325178  -0.405842  -0.156097   0.000000
   23  O  2  X    0.000000  -0.004330  -0.336665  -0.407775   0.000000
   24  O  2  Y    0.000000  -0.312326  -0.009948   0.448121   0.000000
   25  O  2  Z   -0.395583   0.000000   0.000000   0.000000  -0.524169
   26  O  2  X    0.000000   0.667789   1.063123   0.717553   0.000000
   27  O  2  Y    0.000000   0.342487   0.231862  -0.518233   0.000000
   28  O  2  Z    0.125999   0.000000   0.000000   0.000000   0.786712
   29  O  2 XX    0.000000   0.047715   0.003519   0.033334   0.000000
   30  O  2 YY    0.000000  -0.037143   0.002322  -0.018894   0.000000
   31  O  2 ZZ    0.000000  -0.010572  -0.005842  -0.014440   0.000000
   32  O  2 XY    0.000000  -0.024304   0.010287  -0.003212   0.000000
   33  O  2 XZ   -0.061546   0.000000   0.000000   0.000000   0.062385
   34  O  2 YZ   -0.024685   0.000000   0.000000   0.000000   0.022281
   35  O  3  S    0.000000  -0.059292   0.070337  -0.000630   0.000000
   36  O  3  S    0.000000   0.193708  -0.220221  -0.082079   0.000000
   37  O  3  S    0.000000   0.325190  -0.405827   0.156093   0.000000
   38  O  3  X    0.000000  -0.004337   0.336651  -0.407785   0.000000
   39  O  3  Y    0.000000   0.312327  -0.009950  -0.448117   0.000000
   40  O  3  Z    0.395583   0.000000   0.000000   0.000000   0.524168
   41  O  3  X    0.000000   0.667805  -1.063098   0.717570   0.000000
   42  O  3  Y    0.000000  -0.342491   0.231862   0.518227   0.000000
   43  O  3  Z   -0.125999   0.000000   0.000000   0.000000  -0.786711
   44  O  3 XX    0.000000  -0.047715   0.003519  -0.033334   0.000000
   45  O  3 YY    0.000000   0.037143   0.002323   0.018894   0.000000
   46  O  3 ZZ    0.000000   0.010572  -0.005842   0.014440   0.000000
   47  O  3 XY    0.000000  -0.024305  -0.010287  -0.003212   0.000000
   48  O  3 XZ   -0.061546   0.000000   0.000000   0.000000   0.062385
   49  O  3 YZ    0.024685   0.000000   0.000000   0.000000  -0.022281

                     31         32         33         34         35
                    0.8374     0.8443     0.8594     1.0800     1.4023
                     A          A          A          A          A   
    1  S  1  S   -0.000000   0.003583   0.000000   0.004777  -0.004504
    2  S  1  S    0.000000  -0.031748   0.000000  -0.021121   0.049789
    3  S  1  S   -0.000001   0.176236   0.000000  -0.324788  -0.127812
    4  S  1  S   -0.000002   0.024235   0.000000   0.783043  -1.572742
    5  S  1  X   -0.033732  -0.000001   0.000000  -0.000000  -0.000002
    6  S  1  Y    0.000000   0.000200   0.000000  -0.046697   0.023824
    7  S  1  Z    0.000000   0.000000   0.004416   0.000000   0.000000
    8  S  1  X   -0.108162  -0.000001   0.000000   0.000002   0.000016
    9  S  1  Y    0.000000  -0.009638   0.000000   0.156659  -0.201792
   10  S  1  Z    0.000000   0.000000  -0.049133   0.000000   0.000000
   11  S  1  X    0.146613   0.000002   0.000000   0.000010   0.000019
   12  S  1  Y    0.000007  -0.587099   0.000000   0.038347  -0.401524
   13  S  1  Z    0.000000   0.000000  -0.618052   0.000000   0.000000
   14  S  1 XX   -0.000002   0.127742   0.000000   1.048477  -0.230598
   15  S  1 YY    0.000003  -0.220866   0.000000  -0.473749   0.071830
   16  S  1 ZZ   -0.000001   0.093123   0.000000  -0.574728   0.158767
   17  S  1 XY    0.664410   0.000009   0.000000   0.000001   0.000001
   18  S  1 XZ    0.000000   0.000000   0.000000   0.000000   0.000000
   19  S  1 YZ    0.000000   0.000000  -0.181552   0.000000   0.000000
   20  O  2  S    0.005270  -0.012598   0.000000   0.032022   0.076550
   21  O  2  S   -0.003897   0.140440   0.000000  -0.011353  -1.226649
   22  O  2  S   -0.115230  -0.130300   0.000000  -0.518765   1.894192
   23  O  2  X    0.483649   0.111827   0.000000   0.536361   0.118079
   24  O  2  Y    0.297264  -0.603615   0.000000   0.178872  -0.069768
   25  O  2  Z    0.000000   0.000000  -0.626478   0.000000   0.000000
   26  O  2  X   -0.449120  -0.084661   0.000000  -0.138946  -0.730555
   27  O  2  Y   -0.505023   0.923985   0.000000   0.023206   0.048591
   28  O  2  Z    0.000000   0.000000   0.943775   0.000000   0.000000
   29  O  2 XX    0.017857  -0.005392   0.000000  -0.018418  -0.143069
   30  O  2 YY   -0.035522   0.003795   0.000000   0.035308   0.071040
   31  O  2 ZZ    0.017665   0.001597   0.000000  -0.016890   0.072029
   32  O  2 XY   -0.079102   0.037474   0.000000   0.072432  -0.012375
   33  O  2 XZ    0.000000   0.000000   0.037641   0.000000   0.000000
   34  O  2 YZ    0.000000   0.000000   0.000592   0.000000   0.000000
   35  O  3  S   -0.005269  -0.012599   0.000000   0.032023   0.076554
   36  O  3  S    0.003884   0.140443   0.000000  -0.011370  -1.226713
   37  O  3  S    0.115244  -0.130298   0.000000  -0.518737   1.894288
   38  O  3  X    0.483657  -0.111815   0.000000  -0.536356  -0.118081
   39  O  3  Y   -0.297250  -0.603624   0.000000   0.178874  -0.069765
   40  O  3  Z    0.000000   0.000000  -0.626479   0.000000   0.000000
   41  O  3  X   -0.449126   0.084651   0.000000   0.138943   0.730577
   42  O  3  Y    0.505001   0.924000   0.000000   0.023201   0.048578
   43  O  3  Z    0.000000   0.000000   0.943776   0.000000   0.000000
   44  O  3 XX   -0.017857  -0.005392   0.000000  -0.018418  -0.143075
   45  O  3 YY    0.035522   0.003796   0.000000   0.035308   0.071042
   46  O  3 ZZ   -0.017665   0.001596   0.000000  -0.016891   0.072033
   47  O  3 XY   -0.079101  -0.037476   0.000000  -0.072432   0.012381
   48  O  3 XZ    0.000000   0.000000  -0.037641   0.000000   0.000000
   49  O  3 YZ    0.000000   0.000000   0.000592   0.000000   0.000000

                     36         37         38         39         40
                    1.5266     2.0510     2.0511     2.0667     2.0724
                     A          A          A          A          A   
    1  S  1  S   -0.000000  -0.000000   0.000000   0.000000   0.000916
    2  S  1  S    0.000002   0.000000   0.000000   0.000000  -0.008393
    3  S  1  S   -0.000009  -0.000000   0.000000   0.000000   0.040535
    4  S  1  S   -0.000026   0.000000   0.000000   0.000000  -0.013411
    5  S  1  X    0.072580  -0.000105   0.000000   0.000000   0.000000
    6  S  1  Y    0.000000   0.000000   0.000000   0.000000  -0.008756
    7  S  1  Z    0.000000   0.000000  -0.000000  -0.025607   0.000000
    8  S  1  X   -0.576537   0.003443   0.000000   0.000000  -0.000000
    9  S  1  Y   -0.000004  -0.000000   0.000000   0.000000   0.036845
   10  S  1  Z    0.000000   0.000000   0.000000   0.094670   0.000000
   11  S  1  X   -1.297774  -0.011558   0.000000   0.000000   0.000001
   12  S  1  Y   -0.000007   0.000000   0.000000   0.000000  -0.007308
   13  S  1  Z    0.000000   0.000000   0.000000   0.003712   0.000000
   14  S  1 XX    0.000001   0.000000   0.000000   0.000000  -0.036022
   15  S  1 YY   -0.000001   0.000000   0.000000   0.000000  -0.069911
   16  S  1 ZZ   -0.000000  -0.000000   0.000000   0.000000   0.105933
   17  S  1 XY   -0.142829   0.022846   0.000000   0.000000   0.000000
   18  S  1 XZ    0.000000   0.000000  -0.021153   0.000000   0.000000
   19  S  1 YZ    0.000000   0.000000  -0.000000  -0.060884   0.000000
   20  O  2  S    0.073178   0.000787   0.000000   0.000000  -0.002499
   21  O  2  S   -1.284915  -0.006968   0.000000   0.000000   0.022511
   22  O  2  S    2.186405   0.007638   0.000000   0.000000  -0.013730
   23  O  2  X   -0.030387  -0.000820   0.000000   0.000000  -0.019389
   24  O  2  Y    0.084579   0.005973   0.000000   0.000000  -0.001000
   25  O  2  Z    0.000000   0.000000  -0.004440   0.019550   0.000000
   26  O  2  X   -0.381677   0.006075   0.000000   0.000000   0.020158
   27  O  2  Y   -0.307415  -0.008956   0.000000   0.000000  -0.000034
   28  O  2  Z    0.000000   0.000000   0.007599  -0.032098   0.000000
   29  O  2 XX   -0.135771  -0.085939   0.000000   0.000000  -0.021821
   30  O  2 YY    0.054542  -0.527219   0.000000   0.000000   0.615605
   31  O  2 ZZ    0.081229   0.613158   0.000000   0.000000  -0.593784
   32  O  2 XY   -0.097696   0.243575   0.000000   0.000000  -0.112289
   33  O  2 XZ    0.000000   0.000000  -0.257524   0.088910   0.000000
   34  O  2 YZ    0.000000   0.000000   0.658678   0.703064   0.000000
   35  O  3  S   -0.073175  -0.000787   0.000000   0.000000  -0.002499
   36  O  3  S    1.284858   0.006968   0.000000   0.000000   0.022510
   37  O  3  S   -2.186325  -0.007638   0.000000   0.000000  -0.013728
   38  O  3  X   -0.030397  -0.000820   0.000000   0.000000   0.019389
   39  O  3  Y   -0.084579  -0.005973   0.000000   0.000000  -0.001000
   40  O  3  Z    0.000000   0.000000   0.004440   0.019550   0.000000
   41  O  3  X   -0.381644   0.006075   0.000000   0.000000  -0.020158
   42  O  3  Y    0.307417   0.008956   0.000000   0.000000  -0.000035
   43  O  3  Z    0.000000   0.000000  -0.007599  -0.032097   0.000000
   44  O  3 XX    0.135762   0.085939   0.000000   0.000000  -0.021821
   45  O  3 YY   -0.054536   0.527218   0.000000   0.000000   0.615606
   46  O  3 ZZ   -0.081225  -0.613157   0.000000   0.000000  -0.593786
   47  O  3 XY   -0.097697   0.243575   0.000000   0.000000   0.112289
   48  O  3 XZ    0.000000   0.000000  -0.257524  -0.088909   0.000000
   49  O  3 YZ    0.000000   0.000000  -0.658676   0.703066   0.000000

                     41         42         43         44         45
                    2.1199     2.1948     2.2834     2.3436     2.7522
                     A          A          A          A          A   
    1  S  1  S    0.000000   0.005284  -0.000000   0.000000   0.000000
    2  S  1  S    0.000000  -0.047694   0.000000   0.000000  -0.000001
    3  S  1  S    0.000000   0.194317  -0.000001   0.000000   0.000004
    4  S  1  S    0.000000   0.126332   0.000001   0.000000  -0.000000
    5  S  1  X    0.000000   0.000000   0.046498   0.000000  -0.239618
    6  S  1  Y    0.000000  -0.072020   0.000000   0.000000  -0.000000
    7  S  1  Z   -0.063595   0.000000   0.000000   0.000000   0.000000
    8  S  1  X    0.000000  -0.000000  -0.279920   0.000000   1.411118
    9  S  1  Y    0.000000   0.297081  -0.000000   0.000000   0.000001
   10  S  1  Z    0.234991   0.000000   0.000000  -0.000000   0.000000
   11  S  1  X    0.000000   0.000003  -0.037350   0.000000   0.198813
   12  S  1  Y    0.000000   0.088143   0.000000   0.000000  -0.000000
   13  S  1  Z    0.048430   0.000000   0.000000  -0.000000   0.000000
   14  S  1 XX    0.000000  -0.178042  -0.000000   0.000000   0.000000
   15  S  1 YY    0.000000   0.217445   0.000000   0.000000  -0.000000
   16  S  1 ZZ    0.000000  -0.039403   0.000000   0.000000  -0.000000
   17  S  1 XY    0.000000   0.000000   0.430360   0.000000   0.447894
   18  S  1 XZ    0.000000   0.000000   0.000000   0.527851   0.000000
   19  S  1 YZ    0.166718   0.000000   0.000000  -0.000000   0.000000
   20  O  2  S    0.000000  -0.012529   0.009948   0.000000  -0.001342
   21  O  2  S    0.000000   0.190710  -0.163577   0.000000   0.486629
   22  O  2  S    0.000000  -0.254788   0.227993   0.000000  -1.154645
   23  O  2  X    0.000000  -0.096984   0.061280   0.000000   0.010865
   24  O  2  Y    0.000000   0.040193   0.056003   0.000000  -0.009809
   25  O  2  Z    0.059020   0.000000   0.000000   0.033303   0.000000
   26  O  2  X    0.000000   0.198187  -0.105642   0.000000   0.697663
   27  O  2  Y    0.000000  -0.121212  -0.182093   0.000000   0.168603
   28  O  2  Z   -0.125325   0.000000   0.000000  -0.165690   0.000000
   29  O  2 XX    0.000000  -0.424842  -0.194019   0.000000  -0.784574
   30  O  2 YY    0.000000   0.281047   0.325264   0.000000   0.406648
   31  O  2 ZZ    0.000000   0.143795  -0.131245   0.000000   0.377926
   32  O  2 XY    0.000000   0.577640   0.654760   0.000000  -0.216497
   33  O  2 XZ    0.716379   0.000000   0.000000   0.697732   0.000000
   34  O  2 YZ   -0.083221   0.000000   0.000000   0.267624   0.000000
   35  O  3  S    0.000000  -0.012529  -0.009948   0.000000   0.001342
   36  O  3  S    0.000000   0.190707   0.163577   0.000000  -0.486625
   37  O  3  S    0.000000  -0.254783  -0.227993   0.000000   1.154639
   38  O  3  X    0.000000   0.096984   0.061279   0.000000   0.010865
   39  O  3  Y    0.000000   0.040194  -0.056003   0.000000   0.009809
   40  O  3  Z    0.059020   0.000000   0.000000  -0.033303   0.000000
   41  O  3  X    0.000000  -0.198187  -0.105641   0.000000   0.697659
   42  O  3  Y    0.000000  -0.121212   0.182093   0.000000  -0.168603
   43  O  3  Z   -0.125325   0.000000   0.000000   0.165690   0.000000
   44  O  3 XX    0.000000  -0.424844   0.194021   0.000000   0.784572
   45  O  3 YY    0.000000   0.281048  -0.325265   0.000000  -0.406647
   46  O  3 ZZ    0.000000   0.143796   0.131244   0.000000  -0.377925
   47  O  3 XY    0.000000  -0.577639   0.654760   0.000000  -0.216496
   48  O  3 XZ   -0.716379   0.000000   0.000000   0.697732   0.000000
   49  O  3 YZ   -0.083221   0.000000   0.000000  -0.267624   0.000000

                     46
                    2.7915
                     A   
    1  S  1  S   -0.040098
    2  S  1  S    0.333837
    3  S  1  S   -1.009781
    4  S  1  S   -0.901543
    5  S  1  X   -0.000000
    6  S  1  Y    0.058930
    7  S  1  Z    0.000000
    8  S  1  X    0.000003
    9  S  1  Y   -0.366456
   10  S  1  Z    0.000000
   11  S  1  X   -0.000004
   12  S  1  Y   -0.049769
   13  S  1  Z    0.000000
   14  S  1 XX   -0.895328
   15  S  1 YY    0.422008
   16  S  1 ZZ    0.473320
   17  S  1 XY   -0.000000
   18  S  1 XZ    0.000000
   19  S  1 YZ    0.000000
   20  O  2  S   -0.007247
   21  O  2  S   -0.473604
   22  O  2  S    1.226806
   23  O  2  X   -0.068428
   24  O  2  Y   -0.028004
   25  O  2  Z    0.000000
   26  O  2  X   -0.725919
   27  O  2  Y   -0.217527
   28  O  2  Z    0.000000
   29  O  2 XX    0.693831
   30  O  2 YY   -0.260252
   31  O  2 ZZ   -0.433579
   32  O  2 XY    0.500703
   33  O  2 XZ    0.000000
   34  O  2 YZ    0.000000
   35  O  3  S   -0.007247
   36  O  3  S   -0.473604
   37  O  3  S    1.226805
   38  O  3  X    0.068427
   39  O  3  Y   -0.028005
   40  O  3  Z    0.000000
   41  O  3  X    0.725922
   42  O  3  Y   -0.217527
   43  O  3  Z    0.000000
   44  O  3 XX    0.693833
   45  O  3 YY   -0.260253
   46  O  3 ZZ   -0.433580
   47  O  3 XY   -0.500705
   48  O  3 XZ    0.000000
   49  O  3 YZ    0.000000
 ...... END OF RHF CALCULATION ......
 STEP CPU TIME =     2.60 TOTAL CPU TIME =          2.8 (      0.0 MIN)
 TOTAL WALL CLOCK TIME=          2.9 SECONDS, CPU UTILIZATION IS    96.15%

     ---------------------------------------------------------------------
     PROPERTIES FOR THE PBE      DFT FUNCTIONAL (RHF  TYPE) DENSITY MATRIX
     ---------------------------------------------------------------------

          -----------------
          ENERGY COMPONENTS
          -----------------

         WAVEFUNCTION NORMALIZATION =       1.0000000000

                ONE ELECTRON ENERGY =    -957.9939796048
                TWO ELECTRON ENERGY =     307.7856887017
           NUCLEAR REPULSION ENERGY =     102.0002686992
                                      ------------------
                       TOTAL ENERGY =    -548.2080222040

 ELECTRON-ELECTRON POTENTIAL ENERGY =     307.7856887017
  NUCLEUS-ELECTRON POTENTIAL ENERGY =   -1505.3139252682
   NUCLEUS-NUCLEUS POTENTIAL ENERGY =     102.0002686992
                                      ------------------
             TOTAL POTENTIAL ENERGY =   -1095.5279678674
               TOTAL KINETIC ENERGY =     547.3199456635
                 VIRIAL RATIO (V/T) =       2.0016225912

          ---------------------------------------
          MULLIKEN AND LOWDIN POPULATION ANALYSES
          ---------------------------------------

     ATOMIC MULLIKEN POPULATION IN EACH MOLECULAR ORBITAL

                      1          2          3          4          5

                  2.000000   2.000000   2.000000   2.000000   2.000000

    1             1.999922   0.001358   0.000809   2.001042   2.000232
    2             0.000039   1.004444   0.994472  -0.000521  -0.000116
    3             0.000039   0.994198   1.004718  -0.000521  -0.000116

                      6          7          8          9         10

                  2.000000   2.000000   2.000000   2.000000   2.000000

    1             2.000019   2.000007   0.687559   0.395930   0.836408
    2            -0.000010  -0.000004   0.656217   0.802037   0.581795
    3            -0.000010  -0.000004   0.656223   0.802032   0.581798

                     11         12         13         14         15

                  2.000000   2.000000   2.000000   2.000000   2.000000

    1             0.416339   1.005255   0.989119   0.105932   0.118351
    2             0.791832   0.497373   0.505441   0.947034   0.940825
    3             0.791829   0.497372   0.505441   0.947034   0.940824

                     16

                  2.000000

    1             0.873277
    2             0.563361
    3             0.563362

               ----- POPULATIONS IN EACH AO -----
                             MULLIKEN      LOWDIN
              1  S  1  S      1.99981     1.99926
              2  S  1  S      1.99235     1.88678
              3  S  1  S      1.31599     0.65934
              4  S  1  S      0.68115     0.52057
              5  S  1  X      1.99418     1.95736
              6  S  1  Y      1.99468     1.96449
              7  S  1  Z      1.99379     1.95926
              8  S  1  X      0.81965     0.66701
              9  S  1  Y      0.96859     0.88458
             10  S  1  Z      0.82300     0.73292
             11  S  1  X     -0.00165     0.18738
             12  S  1  Y      0.17184     0.29596
             13  S  1  Z      0.18217     0.29157
             14  S  1 XX      0.06537     0.37496
             15  S  1 YY      0.19835     0.33202
             16  S  1 ZZ      0.12003     0.33364
             17  S  1 XY      0.10593     0.14166
             18  S  1 XZ      0.00631     0.12812
             19  S  1 YZ      0.00000     0.00601
             20  O  2  S      1.99559     1.97277
             21  O  2  S      0.96039     0.70239
             22  O  2  S      0.91229     0.52218
             23  O  2  X      0.89787     0.85968
             24  O  2  Y      1.04663     1.01272
             25  O  2  Z      0.86423     0.82552
             26  O  2  X      0.37873     0.53224
             27  O  2  Y      0.63467     0.67204
             28  O  2  Z      0.57416     0.60764
             29  O  2 XX      0.00197     0.21308
             30  O  2 YY      0.00618     0.19903
             31  O  2 ZZ      0.00549     0.20252
             32  O  2 XY      0.00570     0.00886
             33  O  2 XZ      0.00032     0.00748
             34  O  2 YZ      0.00000     0.00043
             35  O  3  S      1.99559     1.97277
             36  O  3  S      0.96039     0.70239
             37  O  3  S      0.91229     0.52218
             38  O  3  X      0.89787     0.85968
             39  O  3  Y      1.04663     1.01272
             40  O  3  Z      0.86423     0.82552
             41  O  3  X      0.37873     0.53224
             42  O  3  Y      0.63467     0.67204
             43  O  3  Z      0.57416     0.60764
             44  O  3 XX      0.00197     0.21308
             45  O  3 YY      0.00618     0.19903
             46  O  3 ZZ      0.00549     0.20252
             47  O  3 XY      0.00570     0.00886
             48  O  3 XZ      0.00032     0.00748
             49  O  3 YZ      0.00000     0.00043

          ----- MULLIKEN ATOMIC OVERLAP POPULATIONS -----
          (OFF-DIAGONAL ELEMENTS NEED TO BE MULTIPLIED BY 2)

             1           2           3

    1   14.9795755
    2    0.2259944   8.0502860
    3    0.2259910   0.0079387   8.0502904

          TOTAL MULLIKEN AND LOWDIN ATOMIC POPULATIONS
       ATOM         MULL.POP.    CHARGE          LOW.POP.     CHARGE
    1 S            15.431561    0.568439        15.322882    0.677118
    2 O             8.284219   -0.284219         8.338559   -0.338559
    3 O             8.284220   -0.284220         8.338559   -0.338559

          MULLIKEN SPHERICAL HARMONIC POPULATIONS
       ATOM           S       P       D      F      G      H      I    TOTAL
    1 S             5.99    8.95    0.50   0.00   0.00   0.00   0.00   15.43
    2 O             3.87    4.40    0.02   0.00   0.00   0.00   0.00    8.28
    3 O             3.87    4.40    0.02   0.00   0.00   0.00   0.00    8.28

          -------------------------------
          BOND ORDER AND VALENCE ANALYSIS     BOND ORDER THRESHOLD=0.050
          -------------------------------

                   BOND                       BOND                       BOND
  ATOM PAIR DIST  ORDER      ATOM PAIR DIST  ORDER      ATOM PAIR DIST  ORDER
    1   2  1.500  1.862        1   3  1.500  1.862        2   3  2.898  0.320

                       TOTAL       BONDED        FREE
      ATOM            VALENCE     VALENCE     VALENCE
    1 S                 3.724       3.724      -0.000
    2 O                 2.181       2.181      -0.000
    3 O                 2.181       2.181       0.000

          ---------------------
          ELECTROSTATIC MOMENTS
          ---------------------

 POINT   1           X           Y           Z (BOHR)    CHARGE
                 0.000000    0.000000    0.000000        0.00 (A.U.)
         DX          DY          DZ         /D/  (DEBYE)
     0.000001   -0.340041    0.000000    0.340041
 ...... END OF PROPERTY EVALUATION ......
 STEP CPU TIME =     0.00 TOTAL CPU TIME =          2.8 (      0.0 MIN)
 TOTAL WALL CLOCK TIME=          2.9 SECONDS, CPU UTILIZATION IS    95.82%
                580000  WORDS OF DYNAMIC MEMORY USED
 EXECUTION OF GAMESS TERMINATED NORMALLY Sun Sep 29 10:49:22 2019
 DDI: 263640 bytes (0.3 MB / 0 MWords) used by master data server.

 ----------------------------------------
 CPU timing information for all processes
 ========================================
 0: 2.665 + 0.93 = 2.759
 ----------------------------------------
 ddikick.x: exited gracefully.
----- accounting info -----
Files used on the master node crcfe02.crc.nd.edu were:
-rw-r--r-- 1 cdrisko campus     208 Sep 29 10:49 /afs/crc.nd.edu/user/c/cdrisko/SO2.F05
-rw-r--r-- 1 cdrisko campus   37566 Sep 29 10:49 /afs/crc.nd.edu/user/c/cdrisko/SO2.F07
-rw-r--r-- 1 cdrisko campus 4140368 Sep 29 10:49 /afs/crc.nd.edu/user/c/cdrisko/SO2.F08
-rw-r--r-- 1 cdrisko campus 1766880 Sep 29 10:49 /afs/crc.nd.edu/user/c/cdrisko/SO2.F10
Sun Sep 29 10:49:25 EDT 2019
0.444u 0.253s 0:06.57 10.5%	0+0k 0+24io 0pf+0w
