----- GAMESS execution script 'rungms' -----
This job is running on host crcfe02.crc.nd.edu
under operating system Linux at Sun Sep 29 10:51:40 EDT 2019
Available scratch disk space (Kbyte units) at beginning of the job is
Filesystem      1K-blocks  Used  Available Use% Mounted on
AFS            2147483647     0 2147483647   0% /afs
GAMESS temporary binary files will be written to /afs/crc.nd.edu/user/c/cdrisko
GAMESS supplementary output files will be written to /afs/crc.nd.edu/user/c/cdrisko/scr
Copying input file SO2.inp to your run's scratch directory...

 Distributed Data Interface kickoff program.
 Initiating 1 compute processes on 1 nodes to run the following command:
 /afs/crc.nd.edu/x86_64_linux/g/gamess/nov-2017/gamess/gamess.00.x SO2 

          ******************************************************
          *         GAMESS VERSION = 11 NOV 2017 (R3)         *
          *             FROM IOWA STATE UNIVERSITY             *
          * M.W.SCHMIDT, K.K.BALDRIDGE, J.A.BOATZ, S.T.ELBERT, *
          *   M.S.GORDON, J.H.JENSEN, S.KOSEKI, N.MATSUNAGA,   *
          *          K.A.NGUYEN, S.J.SU, T.L.WINDUS,           *
          *       TOGETHER WITH M.DUPUIS, J.A.MONTGOMERY       *
          *         J.COMPUT.CHEM.  14, 1347-1363(1993)        *
          **************** 64 BIT INTEL VERSION ****************

  SINCE 1993, STUDENTS AND POSTDOCS WORKING AT IOWA STATE UNIVERSITY
  AND ALSO IN THEIR VARIOUS JOBS AFTER LEAVING ISU HAVE MADE IMPORTANT
  CONTRIBUTIONS TO THE CODE:
     IVANA ADAMOVIC, CHRISTINE AIKENS, YURI ALEXEEV, POOJA ARORA,
     ANDREY ASADCHEV, ROB BELL, PRADIPTA BANDYOPADHYAY, JONATHAN BENTZ,
     BRETT BODE, KURT BRORSEN, CALEB CARLIN, GALINA CHABAN, WEI CHEN,
     CHEOL HO CHOI, PAUL DAY, ALBERT DEFUSCO, NUWAN DESILVA, TIM DUDLEY,
     DMITRI FEDOROV, ALEX FINDLATER, GRAHAM FLETCHER, MARK FREITAG,
     KURT GLAESEMANN, ANASTASIA GUININA,
     DAN KEMP, GRANT MERRILL, NORIYUKI MINEZAWA, JONATHAN MULLIN,
     TAKESHI NAGATA, SEAN NEDD, HEATHER NETZLOFF, BOSILJKA NJEGIC, RYAN OLSON,
     MIKE PAK, BUU PHAM,
     SPENCER PRUITT, LUKE ROSKOP, JIM SHOEMAKER, LYUDMILA SLIPCHENKO,
     TONY SMITH, SAROM SOK LEANG, JIE SONG, TETSUYA TAKETSUGU, SIMON WEBB,
     PENG XU, SOOHAENG YOO, FEDERICO ZAHARIEV

  ADDITIONAL CODE HAS BEEN PROVIDED BY COLLABORATORS IN OTHER GROUPS:
     IOWA STATE UNIVERSITY:
          JOE IVANIC, AARON WEST, LAIMUTIS BYTAUTAS, KLAUS RUEDENBERG
     UNIVERSITY OF TOKYO: KIMIHIKO HIRAO, TAKAHITO NAKAJIMA,
          TAKAO TSUNEDA, MUNEAKI KAMIYA, SUSUMU YANAGISAWA,
          KIYOSHI YAGI, MAHITO CHIBA, SEIKEN TOKURA, NAOAKI KAWAKAMI
     UNIVERSITY OF AARHUS: FRANK JENSEN
     UNIVERSITY OF IOWA: VISVALDAS KAIRYS, HUI LI
     NATIONAL INST. OF STANDARDS AND TECHNOLOGY: WALT STEVENS, DAVID GARMER
     UNIVERSITY OF PISA: BENEDETTA MENNUCCI, JACOPO TOMASI
     UNIVERSITY OF MEMPHIS: HENRY KURTZ, PRAKASHAN KORAMBATH
     UNIVERSITY OF ALBERTA: TOBY ZENG, MARIUSZ KLOBUKOWSKI
     UNIVERSITY OF NEW ENGLAND: MARK SPACKMAN
     MIE UNIVERSITY: HIROAKI UMEDA
     NAT. INST. OF ADVANCED INDUSTRIAL SCIENCE AND TECHNOLOGY: KAZUO KITAURA
     MICHIGAN STATE UNIVERSITY:
          KAROL KOWALSKI, MARTA WLOCH, JEFFREY GOUR, JESSE LUTZ,
          WEI LI, PIOTR PIECUCH
     UNIVERSITY OF SILESIA: MONIKA MUSIAL, STANISLAW KUCHARSKI
     FACULTES UNIVERSITAIRES NOTRE-DAME DE LA PAIX:
          OLIVIER QUINET, BENOIT CHAMPAGNE
     UNIVERSITY OF CALIFORNIA - SANTA BARBARA: BERNARD KIRTMAN
     INSTITUTE FOR MOLECULAR SCIENCE:
          KAZUYA ISHIMURA, MICHIO KATOUDA, AND SHIGERU NAGASE
     UNIVERSITY OF NOTRE DAME: ANNA POMOGAEVA, DAN CHIPMAN
     KYUSHU UNIVERSITY:
          HARUYUKI NAKANO,
          FENG LONG GU, JACEK KORCHOWIEC, MARCIN MAKOWSKI, AND YURIKO AOKI,
          HIROTOSHI MORI AND EISAKU MIYOSHI
     PENNSYLVANIA STATE UNIVERSITY:
          TZVETELIN IORDANOV, CHET SWALINA, JONATHAN SKONE,
          SHARON HAMMES-SCHIFFER
     WASEDA UNIVERSITY:
          MASATO KOBAYASHI, TOMOKO AKAMA, TSUGUKI TOUMA,
          TAKESHI YOSHIKAWA, YASUHIRO IKABATA, JUNJI SEINO,
          YUYA NAKAJIMA, HIROMI NAKAI
     NANJING UNIVERSITY: SHUHUA LI
     UNIVERSITY OF NEBRASKA:
          PEIFENG SU, DEJUN SI, NANDUN THELLAMUREGE, YALI WANG, HUI LI
     UNIVERSITY OF ZURICH: ROBERTO PEVERATI, KIM BALDRIDGE
     N. COPERNICUS UNIVERSITY AND JACKSON STATE UNIVERSITY:
          MARIA BARYSZ
     UNIVERSITY OF COPENHAGEN: Jimmy Kromann, CASPER STEINMANN
     TOKYO INSTITUTE OF TECHNOLOGY: HIROYA NAKATA
     NAGOYA UNIVERSITY: YOSHIO NISHIMOTO, STEPHAN IRLE
     MOSCOW STATE UNIVERSITY: VLADIMIR MIRONOV

 EXECUTION OF GAMESS BEGUN Sun Sep 29 10:51:40 2019

            ECHO OF THE FIRST FEW INPUT CARDS -
 INPUT CARD> $BASIS GBASIS=PCSEG-1 $END                                                     
 INPUT CARD> $CONTRL COORD=ZMT ISPHER=1 RUNTYP=ENERGY DFTTYP=PBE MULT=1 $END                
 INPUT CARD>                                                                                
 INPUT CARD> $DATA                                                                          
 INPUT CARD>Title SO2 single-point calculation template with Z-Matrix                       
 INPUT CARD>C1                                                                              
 INPUT CARD>S                                                                               
 INPUT CARD>O 1 1.60                                                                        
 INPUT CARD>O 1 1.60 2 130                                                                  
 INPUT CARD> $END                                                                           
    1000000 WORDS OF MEMORY AVAILABLE

     BASIS OPTIONS
     -------------
     GBASIS=PCSEG-1      IGAUSS=       0      POLAR=NONE    
     NDFUNC=       0     NFFUNC=       0     DIFFSP=       F
     NPFUNC=       0      DIFFS=       F     BASNAM=        


     RUN TITLE
     ---------
 Title SO2 single-point calculation template with Z-Matrix                       

 THE POINT GROUP OF THE MOLECULE IS C1      
 THE ORDER OF THE PRINCIPAL AXIS IS     0

 YOUR FULLY SUBSTITUTED Z-MATRIX IS
 S   
 O      1   1.6000000
 O      1   1.6000000  2  130.0000

 THE MOMENTS OF INERTIA ARE (AMU-ANGSTROM**2)
 IXX=     7.311   IYY=    67.267   IZZ=    74.579

 ATOM      ATOMIC                      COORDINATES (BOHR)
           CHARGE         X                   Y                   Z
 S          16.0     0.0000000000       -0.6390834719        0.0000000000
 O           8.0     2.7402774049        0.6387288675        0.0000000000
 O           8.0    -2.7402774049        0.6387288675        0.0000000000

          INTERNUCLEAR DISTANCES (ANGS.)
          ------------------------------

                1 S          2 O          3 O     

   1 S       0.0000000    1.6000000 *  1.6000000 *
   2 O       1.6000000 *  0.0000000    2.9001849 *
   3 O       1.6000000 *  2.9001849 *  0.0000000  

  * ... LESS THAN  3.000


     ATOMIC BASIS SET
     ----------------
 THE CONTRACTED PRIMITIVE FUNCTIONS HAVE BEEN UNNORMALIZED
 THE CONTRACTED BASIS FUNCTIONS ARE NOW NORMALIZED TO UNITY

  SHELL TYPE  PRIMITIVE        EXPONENT          CONTRACTION COEFFICIENT(S)

 S         

      1   S       1         49299.4000000    0.000677492991
      1   S       2          7395.8400000    0.005232317766
      1   S       3          1683.3000000    0.026769459077
      1   S       4           476.1440000    0.102869580705
      1   S       5           154.3290000    0.286438127414
      1   S       6            55.0288000    0.454278639081
      1   S       7            20.5029000    0.271743121997

      2   S       8            45.9596000   -0.088421914560
      2   S       9             4.9274000    0.564350486135
      2   S      10             1.9179900    0.505415953466

      3   S      11             0.3684980    1.000000000000

      4   S      12             0.1291650    1.000000000000

      5   P      13           451.6620000    0.003707705453
      5   P      14           106.0980000    0.029219352245
      5   P      15            33.6996000    0.124444551509
      5   P      16            12.3054000    0.321808587656
      5   P      17             4.7141200    0.462822172957
      5   P      18             1.7810500    0.266513371364

      6   P      19             0.8722350    0.349265132972
      6   P      20             0.3102780    0.717115018770

      7   P      21             0.1001940    1.000000000000

      8   D      22             0.5500000    1.000000000000

 O         

      9   S      23          2288.6400000    0.005451138222
      9   S      24           344.4160000    0.040718922842
      9   S      25            78.2538000    0.181369420873
      9   S      26            21.7195000    0.465536820246
      9   S      27             6.5590700    0.451211321214

     10   S      28            10.4656000   -0.150211201174
     10   S      29             0.9643510    1.052867983385

     11   S      30             0.2851270    1.000000000000

     12   P      31            17.0590000    0.068749256972
     12   P      32             3.6899900    0.351671941499
     12   P      33             0.9929960    0.724532099722

     13   P      34             0.2449240    1.000000000000

     14   D      35             1.0000000    1.000000000000

 O         

     15   S      36          2288.6400000    0.005451138222
     15   S      37           344.4160000    0.040718922842
     15   S      38            78.2538000    0.181369420873
     15   S      39            21.7195000    0.465536820246
     15   S      40             6.5590700    0.451211321214

     16   S      41            10.4656000   -0.150211201174
     16   S      42             0.9643510    1.052867983385

     17   S      43             0.2851270    1.000000000000

     18   P      44            17.0590000    0.068749256972
     18   P      45             3.6899900    0.351671941499
     18   P      46             0.9929960    0.724532099722

     19   P      47             0.2449240    1.000000000000

     20   D      48             1.0000000    1.000000000000

 TOTAL NUMBER OF BASIS SET SHELLS             =   20
 NUMBER OF CARTESIAN GAUSSIAN BASIS FUNCTIONS =   49
 NOTE: THIS RUN WILL RESTRICT THE MO VARIATION SPACE TO SPHERICAL HARMONICS.
 THE NUMBER OF ORBITALS KEPT IN THE VARIATIONAL SPACE WILL BE PRINTED LATER.
 NUMBER OF ELECTRONS                          =   32
 CHARGE OF MOLECULE                           =    0
 SPIN MULTIPLICITY                            =    1
 NUMBER OF OCCUPIED ORBITALS (ALPHA)          =   16
 NUMBER OF OCCUPIED ORBITALS (BETA )          =   16
 TOTAL NUMBER OF ATOMS                        =    3
 THE NUCLEAR REPULSION ENERGY IS       96.3460097190

     LEBEDEV GRID-BASED DFT OPTIONS
     ------------------------------
     DFTTYP=PBE     
     NRAD  =      96     NLEB  =     302
     NRAD0 =      24     NLEB0 =     110
     SWOFF =    5.00E-03 (PURE SCF -> DFT)
     SWITCH=    3.00E-04 (COARSE -> TIGHT GRID)
     THRESH=    0.00E+00 GTHRE=    1.00E+00

 GRIMME'S EMPIRICAL DISPERSION CORRECTION= F

     $CONTRL OPTIONS
     ---------------
 SCFTYP=RHF          RUNTYP=ENERGY       EXETYP=RUN     
 MPLEVL=       0     CITYP =NONE         CCTYP =NONE         VBTYP =NONE    
 DFTTYP=PBE          TDDFT =NONE    
 MULT  =       1     ICHARG=       0     NZVAR =       0     COORD =ZMT     
 PP    =NONE         RELWFN=NONE         LOCAL =NONE         NUMGRD=       F
 ISPHER=       1     NOSYM =       0     MAXIT =      30     UNITS =ANGS    
 PLTORB=       F     MOLPLT=       F     AIMPAC=       F     FRIEND=        
 NPRINT=       7     IREST =       0     GEOM  =INPUT   
 NORMF =       0     NORMP =       0     ITOL  =      20     ICUT  =       9
 INTTYP=BEST         GRDTYP=BEST         QMTTOL= 1.0E-06

     $SYSTEM OPTIONS
     ---------------
  REPLICATED MEMORY=     1000000 WORDS (ON EVERY NODE).
 DISTRIBUTED MEMDDI=           0 MILLION WORDS IN AGGREGATE,
 MEMDDI DISTRIBUTED OVER   1 PROCESSORS IS           0 WORDS/PROCESSOR.
 TOTAL MEMORY REQUESTED ON EACH PROCESSOR=     1000000 WORDS.
 TIMLIM=      525600.00 MINUTES, OR     365.0 DAYS.
 PARALL= F  BALTYP=  DLB     KDIAG=    0  COREFL= F
 MXSEQ2=     300 MXSEQ3=     150  mem10=         0

          ----------------
          PROPERTIES INPUT
          ----------------

     MOMENTS            FIELD           POTENTIAL          DENSITY
 IEMOM =       1   IEFLD =       0   IEPOT =       0   IEDEN =       0
 WHERE =COMASS     WHERE =NUCLEI     WHERE =NUCLEI     WHERE =NUCLEI  
 OUTPUT=BOTH       OUTPUT=BOTH       OUTPUT=BOTH       OUTPUT=BOTH    
 IEMINT=       0   IEFINT=       0                     IEDINT=       0
                                                       MORB  =       0
          EXTRAPOLATION IN EFFECT
          DIIS IN EFFECT
 ORBITAL PRINTING OPTION: NPREO=     1    49     2     1

     -------------------------------
     INTEGRAL TRANSFORMATION OPTIONS
     -------------------------------
     NWORD  =            0
     CUTOFF = 1.0E-09     MPTRAN =       0
     DIRTRF =       F     AOINTS =DUP     

          ----------------------
          INTEGRAL INPUT OPTIONS
          ----------------------
 NOPK  =       1 NORDER=       0 SCHWRZ=       F

   --- ENCODED Z MATRIX ---
 COORD  TYPE   I   J   K   L   M   N
    1      1    2   1
    2      1    3   1
    3      2    3   1   2

 THE DETERMINANT OF THE G MATRIX IS 10**(    -4)

 THE DETERMINANT OF THE G MATRIX IS 10**(    -4)
 * * * WARNING * * *
 YOUR B MATRIX HAS A SMALL DETERMINANT.
 THIS SUGGESTS YOU MAY HAVE BADLY CHOSEN COORDINATES.

     ------------------------------------------
     THE POINT GROUP IS C1 , NAXIS= 0, ORDER= 1
     ------------------------------------------

 -- VARIATIONAL SPACE WILL BE RESTRICTED TO PURE SPHERICAL HARMONICS ONLY --
 AFTER EXCLUDING CONTAMINANT COMBINATIONS FROM THE CARTESIAN GAUSSIAN BASIS
 SET, THE NUMBER OF SPHERICAL HARMONICS KEPT IN THE VARIATION SPACE IS   46

     DIMENSIONS OF THE SYMMETRY SUBSPACES ARE
 A   =   46

 ..... DONE SETTING UP THE RUN .....
 STEP CPU TIME =     0.03 TOTAL CPU TIME =          0.0 (      0.0 MIN)
 TOTAL WALL CLOCK TIME=          0.0 SECONDS, CPU UTILIZATION IS   100.00%

          ********************
          1 ELECTRON INTEGRALS
          ********************
 ...... END OF ONE-ELECTRON INTEGRALS ......
 STEP CPU TIME =     0.01 TOTAL CPU TIME =          0.0 (      0.0 MIN)
 TOTAL WALL CLOCK TIME=          0.0 SECONDS, CPU UTILIZATION IS   125.00%

          -------------
          GUESS OPTIONS
          -------------
          GUESS =HUCKEL            NORB  =       0          NORDER=       0
          MIX   =       F          PRTMO =       F          PUNMO =       F
          TOLZ  = 1.0E-08          TOLE  = 1.0E-05
          SYMDEN=       F          PURIFY=       F

 INITIAL GUESS ORBITALS GENERATED BY HUCKEL   ROUTINE.
 HUCKEL GUESS REQUIRES     21634 WORDS.

 STATISTICS FOR GENERATION OF SYMMETRY ORBITAL -Q- MATRIX
 NUMBER OF CARTESIAN ATOMIC ORBITALS=         49
 NUMBER OF SPHERICAL CONTAMINANTS DROPPED=     3
 NUMBER OF LINEARLY DEPENDENT MOS DROPPED=     0
 TOTAL NUMBER OF MOS IN VARIATION SPACE=      46

 SYMMETRIES FOR INITIAL GUESS ORBITALS FOLLOW.   BOTH SET(S).
    16 ORBITALS ARE OCCUPIED (    7 CORE ORBITALS).
     8=A        9=A       10=A       11=A       12=A       13=A       14=A   
    15=A       16=A       17=A       18=A       19=A       20=A       21=A   
    22=A       23=A       24=A       25=A       26=A   
 ...... END OF INITIAL ORBITAL SELECTION ......
 STEP CPU TIME =     0.00 TOTAL CPU TIME =          0.0 (      0.0 MIN)
 TOTAL WALL CLOCK TIME=          0.0 SECONDS, CPU UTILIZATION IS   100.00%

                    ----------------------
                    AO INTEGRAL TECHNOLOGY
                    ----------------------
     S,P,L SHELL ROTATED AXIS INTEGRALS, REPROGRAMMED BY
        KAZUYA ISHIMURA (IMS) AND JOSE SIERRA (SYNSTAR).
     S,P,D,L SHELL ROTATED AXIS INTEGRALS PROGRAMMED BY
        KAZUYA ISHIMURA (INSTITUTE FOR MOLECULAR SCIENCE).
     S,P,D,F,G SHELL TO TOTAL QUARTET ANGULAR MOMENTUM SUM 5,
        ERIC PROGRAM BY GRAHAM FLETCHER (ELORET AND NASA ADVANCED
        SUPERCOMPUTING DIVISION, AMES RESEARCH CENTER).
     S,P,D,F,G,L SHELL GENERAL RYS QUADRATURE PROGRAMMED BY
        MICHEL DUPUIS (PACIFIC NORTHWEST NATIONAL LABORATORY).

          --------------------
          2 ELECTRON INTEGRALS
          --------------------

 THE -PK- OPTION IS OFF, THE INTEGRALS ARE NOT IN SUPERMATRIX FORM.
 STORING   15000 INTEGRALS/RECORD ON DISK, USING 12 BYTES/INTEGRAL.
 TWO ELECTRON INTEGRAL EVALUATION REQUIRES   90606 WORDS OF MEMORY.
 II,JST,KST,LST =  1  1  1  1 NREC =         1 INTLOC =    1
 II,JST,KST,LST =  2  1  1  1 NREC =         1 INTLOC =    2
 II,JST,KST,LST =  3  1  1  1 NREC =         1 INTLOC =    7
 II,JST,KST,LST =  4  1  1  1 NREC =         1 INTLOC =   22
 II,JST,KST,LST =  5  1  1  1 NREC =         1 INTLOC =   56
 II,JST,KST,LST =  6  1  1  1 NREC =         1 INTLOC =  125
 II,JST,KST,LST =  7  1  1  1 NREC =         1 INTLOC =  329
 II,JST,KST,LST =  8  1  1  1 NREC =         1 INTLOC =  776
 II,JST,KST,LST =  9  1  1  1 NREC =         1 INTLOC = 2864
 II,JST,KST,LST = 10  1  1  1 NREC =         1 INTLOC = 4919
 II,JST,KST,LST = 11  1  1  1 NREC =         1 INTLOC = 7579
 II,JST,KST,LST = 12  1  1  1 NREC =         1 INTLOC =10695
 II,JST,KST,LST = 13  1  1  1 NREC =         2 INTLOC = 6591
 II,JST,KST,LST = 14  1  1  1 NREC =         3 INTLOC = 6851
 II,JST,KST,LST = 15  1  1  1 NREC =         6 INTLOC = 8789
 II,JST,KST,LST = 16  1  1  1 NREC =         7 INTLOC =  829
 II,JST,KST,LST = 17  1  1  1 NREC =         7 INTLOC =11828
 II,JST,KST,LST = 18  1  1  1 NREC =         8 INTLOC =10148
 II,JST,KST,LST = 19  1  1  1 NREC =        11 INTLOC = 2621
 II,JST,KST,LST = 20  1  1  1 NREC =        14 INTLOC = 9143
 TOTAL NUMBER OF NONZERO TWO-ELECTRON INTEGRALS =              329112
         22 INTEGRAL RECORDS WERE STORED ON DISK FILE  8.
  ...... END OF TWO-ELECTRON INTEGRALS .....
 STEP CPU TIME =     0.10 TOTAL CPU TIME =          0.2 (      0.0 MIN)
 TOTAL WALL CLOCK TIME=          0.2 SECONDS, CPU UTILIZATION IS   100.00%

          --------------------------
               R-PBE SCF CALCULATION
          --------------------------

     NUCLEAR ENERGY =        96.3460097190
     MAXIT =   30     NPUNCH=    2
     EXTRAP=T  DAMP=F  SHIFT=F  RSTRCT=F  DIIS=T  DEM=F  SOSCF=F
         DENSITY MATRIX CONVERGENCE THRESHOLD=  1.00E-05
     COARSE -> FINE DFT GRID SWITCH THRESHOLD=  3.00E-04 (SWITCH IN $DFT)
                   HF -> DFT SWITCH THRESHOLD=  5.00E-03 (SWOFF IN $DFT)
     MEMORY REQUIRED FOR RHF ITERS=    183108 WORDS.

 DFT CODE IS SWITCHING FROM THE FINE GRID NRAD= 96,  NLEB=  302
                      TO THE COARSE GRID NRAD0= 24, NLEB0=  110

     EXCHANGE FUNCTIONAL   =PBE       
     CORRELATION FUNCTIONAL=PBE       
     DFT THRESHOLD         =.460E-07
     GRID CHANGE THRESHOLD =.300E-03
 FOR AN EULER-MACLAURIN QUADRATURE USING  96 RADIAL POINTS:
 SMALLEST GAUSSIAN PRIMITIVE EXPONENT=        0.1001940000 OF TYPE -P-
 ON ATOM NUMBER   1 HAS RADIAL NORMALIZATION=  1.000000
  LARGEST GAUSSIAN PRIMITIVE EXPONENT=    49299.4000000000 OF TYPE -S-
 ON ATOM NUMBER   1 HAS RADIAL NORMALIZATION=  1.000000
 DFT IS SWITCHED OFF, PERFORMING PURE SCF UNTIL SWOFF THRESHOLD IS REACHED.

 ITER EX DEM     TOTAL ENERGY        E CHANGE  DENSITY CHANGE    DIIS ERROR
   1  0  0     -546.0319601319  -546.0319601319   0.664473957   0.831772227
          * * *   INITIATING DIIS PROCEDURE   * * *
   2  1  0     -546.6413132410    -0.6093531091   0.649305056   0.315941713
   3  2  0     -546.6948411445    -0.0535279034   0.242882339   0.290496678
   4  3  0     -547.0286009284    -0.3337597839   0.038248456   0.009574634
   5  4  0     -547.0295332346    -0.0009323062   0.009570134   0.003522373
   6  5  0     -547.0296732794    -0.0001400448   0.003232853   0.001281932
 CONVERGED TO SWOFF, SO DFT CALCULATION IS NOW SWITCHED ON.
          * * *   INITIATING DIIS PROCEDURE   * * *
   7  6  0     -548.1804330035    -1.1507597242   0.432896536   0.105313701
   8  7  0     -548.1721815165     0.0082514870   0.374157439   0.127345225
   9  8  0     -548.1820164679    -0.0098349514   0.121371992   0.121539288
  10  9  0     -548.2236077157    -0.0415912478   0.030219926   0.013292429
  11 10  0     -548.2242866998    -0.0006789841   0.001842962   0.001084657
  12 11  0     -548.2242907793    -0.0000040795   0.000575748   0.000324231
  13 12  0     -548.2242911331    -0.0000003537   0.000180711   0.000058706
 DFT CODE IS SWITCHING BACK TO THE FINE GRID
          * * *   INITIATING DIIS PROCEDURE   * * *
  14 13  0     -548.2249832396    -0.0006921066   0.011627785   0.009651309
  15 14  0     -548.2250242390    -0.0000409994   0.022553052   0.007061243
  16 15  0     -548.2248123346     0.0002119045   0.013290446   0.010377877
  17 16  0     -548.2250396447    -0.0002273102   0.005880070   0.008597996
  18 17  0     -548.2251725443    -0.0001328996   0.000274132   0.000412097
  19 18  0     -548.2251730177    -0.0000004734   0.000092724   0.000040396
  20 19  0     -548.2251730235    -0.0000000059   0.000020091   0.000007995
  21 20  0     -548.2251730239    -0.0000000004   0.000001979   0.000001288
  22 21  0     -548.2251730239    -0.0000000000   0.000000163   0.000000160

          -----------------
          DENSITY CONVERGED
          -----------------
     TIME TO FORM FOCK OPERATORS=       2.5 SECONDS (       0.1 SEC/ITER)
     TIME TO SOLVE SCF EQUATIONS=       0.0 SECONDS (       0.0 SEC/ITER)

 FINAL R-PBE ENERGY IS     -548.2251730239 AFTER  22 ITERATIONS
 DFT EXCHANGE + CORRELATION ENERGY =       -42.3409242240
 TOTAL ELECTRON NUMBER             =        32.0000385208

          ------------
          EIGENVECTORS
          ------------

                      1          2          3          4          5
                  -88.2315   -18.8219   -18.8219    -7.8442    -5.8707
                     A          A          A          A          A   
    1  S  1  S    0.997760  -0.000004   0.000000  -0.308385  -0.000000
    2  S  1  S    0.008245  -0.000068  -0.000000   1.031752   0.000000
    3  S  1  S   -0.002968  -0.000165  -0.000000   0.027734   0.000000
    4  S  1  S    0.000828   0.007231   0.000003  -0.005517  -0.000000
    5  S  1  X   -0.000000   0.000000  -0.000100  -0.000000   0.994630
    6  S  1  Y    0.000128  -0.000123  -0.000000   0.011185  -0.000001
    7  S  1  Z    0.000000   0.000000   0.000000   0.000000   0.000000
    8  S  1  X    0.000000  -0.000001   0.001795   0.000000   0.017286
    9  S  1  Y   -0.000292   0.001239   0.000000   0.001123  -0.000000
   10  S  1  Z    0.000000   0.000000   0.000000   0.000000   0.000000
   11  S  1  X    0.000000  -0.000002   0.004396  -0.000000  -0.002431
   12  S  1  Y   -0.000006   0.002504   0.000001  -0.000183   0.000000
   13  S  1  Z    0.000000   0.000000   0.000000   0.000000   0.000000
   14  S  1 XX   -0.000260   0.000695   0.000000   0.000862  -0.000000
   15  S  1 YY    0.000085  -0.000049  -0.000000  -0.000386  -0.000000
   16  S  1 ZZ    0.000175  -0.000647  -0.000000  -0.000475   0.000000
   17  S  1 XY    0.000000  -0.000000   0.000408  -0.000000   0.001336
   18  S  1 XZ    0.000000   0.000000   0.000000   0.000000   0.000000
   19  S  1 YZ    0.000000   0.000000   0.000000   0.000000   0.000000
   20  O  2  S   -0.000013   0.702100   0.702550  -0.000003  -0.000189
   21  O  2  S   -0.000159   0.023812   0.023650  -0.000019  -0.000077
   22  O  2  S    0.000358  -0.011517  -0.011153  -0.000475  -0.000847
   23  O  2  X   -0.000020  -0.000958  -0.000759   0.000223  -0.000118
   24  O  2  Y   -0.000009  -0.000219  -0.000466   0.000096  -0.000039
   25  O  2  Z    0.000000   0.000000   0.000000   0.000000   0.000000
   26  O  2  X   -0.000389   0.003063   0.001713   0.000906   0.001047
   27  O  2  Y   -0.000186   0.000542   0.001512   0.000482   0.000524
   28  O  2  Z    0.000000   0.000000   0.000000   0.000000   0.000000
   29  O  2 XX    0.000180  -0.000345  -0.000126  -0.000171   0.000403
   30  O  2 YY   -0.000052   0.000140  -0.000017   0.000038  -0.000117
   31  O  2 ZZ   -0.000129   0.000205   0.000143   0.000134  -0.000286
   32  O  2 XY    0.000173  -0.000185  -0.000221  -0.000192   0.000375
   33  O  2 XZ    0.000000   0.000000   0.000000   0.000000   0.000000
   34  O  2 YZ    0.000000   0.000000   0.000000   0.000000   0.000000
   35  O  3  S   -0.000013   0.702557  -0.702092  -0.000003   0.000189
   36  O  3  S   -0.000159   0.023828  -0.023634  -0.000019   0.000077
   37  O  3  S    0.000358  -0.011525   0.011145  -0.000475   0.000847
   38  O  3  X    0.000020   0.000958  -0.000758  -0.000223  -0.000118
   39  O  3  Y   -0.000009  -0.000219   0.000466   0.000096   0.000039
   40  O  3  Z    0.000000   0.000000   0.000000   0.000000   0.000000
   41  O  3  X    0.000389  -0.003064   0.001711  -0.000906   0.001047
   42  O  3  Y   -0.000186   0.000544  -0.001512   0.000482  -0.000524
   43  O  3  Z    0.000000   0.000000   0.000000   0.000000   0.000000
   44  O  3 XX    0.000180  -0.000345   0.000126  -0.000171  -0.000403
   45  O  3 YY   -0.000052   0.000140   0.000017   0.000038   0.000117
   46  O  3 ZZ   -0.000129   0.000205  -0.000143   0.000134   0.000286
   47  O  3 XY   -0.000173   0.000185  -0.000221   0.000192   0.000375
   48  O  3 XZ    0.000000   0.000000   0.000000   0.000000   0.000000
   49  O  3 YZ    0.000000   0.000000   0.000000   0.000000   0.000000

                      6          7          8          9         10
                   -5.8689    -5.8648    -0.9925    -0.9333    -0.6149
                     A          A          A          A          A   
    1  S  1  S    0.000000   0.003502   0.047932  -0.000000   0.069270
    2  S  1  S    0.000000  -0.012051  -0.295683   0.000000  -0.443083
    3  S  1  S    0.000000   0.000043   0.416572  -0.000001   0.680480
    4  S  1  S    0.000000   0.000618   0.073763   0.000005   0.247009
    5  S  1  X    0.000000   0.000001  -0.000000   0.111456   0.000000
    6  S  1  Y    0.000000   0.994943  -0.045995  -0.000000   0.021207
    7  S  1  Z    0.995007   0.000000   0.000000   0.000000   0.000000
    8  S  1  X    0.000000   0.000000   0.000001  -0.250920   0.000000
    9  S  1  Y    0.000000   0.015807   0.102472   0.000001  -0.045385
   10  S  1  Z    0.015782   0.000000   0.000000   0.000000   0.000000
   11  S  1  X    0.000000  -0.000000   0.000003   0.008787  -0.000002
   12  S  1  Y    0.000000  -0.002812  -0.012226   0.000002  -0.030147
   13  S  1  Z   -0.003057   0.000000   0.000000   0.000000   0.000000
   14  S  1 XX    0.000000  -0.000243   0.047017   0.000001  -0.014850
   15  S  1 YY    0.000000   0.000768  -0.015204  -0.000000   0.000039
   16  S  1 ZZ    0.000000  -0.000525  -0.031813  -0.000001   0.014810
   17  S  1 XY    0.000000   0.000000   0.000001  -0.057899  -0.000000
   18  S  1 XZ   -0.000000   0.000000   0.000000   0.000000   0.000000
   19  S  1 YZ    0.000677   0.000000   0.000000   0.000000   0.000000
   20  O  2  S    0.000000  -0.000096  -0.139053   0.163447   0.113313
   21  O  2  S    0.000000  -0.000050   0.284475  -0.339435  -0.242088
   22  O  2  S    0.000000  -0.000209   0.267436  -0.318760  -0.307811
   23  O  2  X    0.000000  -0.000102  -0.093159   0.084017  -0.128862
   24  O  2  Y    0.000000  -0.000091  -0.039361   0.039938  -0.065558
   25  O  2  Z   -0.000061   0.000000   0.000000   0.000000   0.000000
   26  O  2  X    0.000000   0.000475  -0.038421   0.024121  -0.061175
   27  O  2  Y    0.000000  -0.000006  -0.013507   0.013121  -0.025752
   28  O  2  Z   -0.000117   0.000000   0.000000   0.000000   0.000000
   29  O  2 XX    0.000000   0.000151   0.009640  -0.006290   0.005149
   30  O  2 YY    0.000000   0.000019  -0.005152   0.003318  -0.000235
   31  O  2 ZZ    0.000000  -0.000169  -0.004489   0.002972  -0.004914
   32  O  2 XY    0.000000   0.000352   0.006644  -0.006618   0.005517
   33  O  2 XZ    0.000145   0.000000   0.000000   0.000000   0.000000
   34  O  2 YZ    0.000054   0.000000   0.000000   0.000000   0.000000
   35  O  3  S    0.000000  -0.000096  -0.139053  -0.163447   0.113314
   36  O  3  S    0.000000  -0.000050   0.284474   0.339437  -0.242089
   37  O  3  S    0.000000  -0.000209   0.267442   0.318754  -0.307813
   38  O  3  X    0.000000   0.000102   0.093159   0.084018   0.128862
   39  O  3  Y    0.000000  -0.000091  -0.039361  -0.039938  -0.065558
   40  O  3  Z   -0.000061   0.000000   0.000000   0.000000   0.000000
   41  O  3  X    0.000000  -0.000475   0.038423   0.024118   0.061175
   42  O  3  Y    0.000000  -0.000006  -0.013508  -0.013121  -0.025751
   43  O  3  Z   -0.000117   0.000000   0.000000   0.000000   0.000000
   44  O  3 XX    0.000000   0.000151   0.009641   0.006290   0.005149
   45  O  3 YY    0.000000   0.000019  -0.005152  -0.003318  -0.000235
   46  O  3 ZZ    0.000000  -0.000169  -0.004489  -0.002972  -0.004914
   47  O  3 XY    0.000000  -0.000352  -0.006644  -0.006618  -0.005517
   48  O  3 XZ   -0.000145   0.000000   0.000000   0.000000   0.000000
   49  O  3 YZ    0.000054   0.000000   0.000000   0.000000   0.000000

                     11         12         13         14         15
                   -0.4433    -0.4178    -0.4149    -0.3261    -0.3113
                     A          A          A          A          A   
    1  S  1  S    0.000000   0.000000  -0.010911   0.000000   0.000000
    2  S  1  S   -0.000000   0.000000   0.069440   0.000000  -0.000000
    3  S  1  S   -0.000000   0.000000  -0.087518   0.000000  -0.000001
    4  S  1  S   -0.000000   0.000000  -0.155082   0.000000   0.000002
    5  S  1  X   -0.181526   0.000000   0.000000   0.000000  -0.018503
    6  S  1  Y   -0.000000   0.000000  -0.213109   0.000000   0.000000
    7  S  1  Z    0.000000  -0.216183   0.000000  -0.000000   0.000000
    8  S  1  X    0.490352   0.000000   0.000000   0.000000   0.048638
    9  S  1  Y   -0.000000   0.000000   0.572719   0.000000  -0.000001
   10  S  1  Z    0.000000   0.584750   0.000000   0.000000   0.000000
   11  S  1  X   -0.004175   0.000000   0.000001   0.000000   0.095011
   12  S  1  Y   -0.000000   0.000000   0.128887   0.000000   0.000001
   13  S  1  Z    0.000000   0.159781   0.000000  -0.000000   0.000000
   14  S  1 XX   -0.000000   0.000000  -0.024841   0.000000  -0.000000
   15  S  1 YY    0.000000   0.000000   0.045328   0.000000   0.000000
   16  S  1 ZZ    0.000000   0.000000  -0.020487   0.000000   0.000000
   17  S  1 XY    0.044298   0.000000   0.000000   0.000000  -0.100841
   18  S  1 XZ    0.000000  -0.000000   0.000000   0.108115   0.000000
   19  S  1 YZ    0.000000   0.039419   0.000000   0.000000   0.000000
   20  O  2  S    0.069067   0.000000   0.021877   0.000000   0.001091
   21  O  2  S   -0.146765   0.000000  -0.047150   0.000000  -0.001086
   22  O  2  S   -0.224484   0.000000  -0.072855   0.000000  -0.033238
   23  O  2  X   -0.313657   0.000000  -0.252613   0.000000   0.277043
   24  O  2  Y   -0.193972   0.000000   0.170160   0.000000  -0.378051
   25  O  2  Z    0.000000   0.299502   0.000000   0.466981   0.000000
   26  O  2  X   -0.157711   0.000000  -0.155356   0.000000   0.186602
   27  O  2  Y   -0.108825   0.000000   0.109653   0.000000  -0.264734
   28  O  2  Z    0.000000   0.183364   0.000000   0.331538   0.000000
   29  O  2 XX    0.007546   0.000000   0.017186   0.000000  -0.011168
   30  O  2 YY    0.000293   0.000000  -0.012361   0.000000   0.011916
   31  O  2 ZZ   -0.007839   0.000000  -0.004825   0.000000  -0.000748
   32  O  2 XY    0.012364   0.000000  -0.005586   0.000000   0.011704
   33  O  2 XZ    0.000000  -0.017339   0.000000  -0.016316   0.000000
   34  O  2 YZ    0.000000  -0.007476   0.000000  -0.007970   0.000000
   35  O  3  S   -0.069067   0.000000   0.021877   0.000000  -0.001091
   36  O  3  S    0.146764   0.000000  -0.047151   0.000000   0.001086
   37  O  3  S    0.224485   0.000000  -0.072854   0.000000   0.033237
   38  O  3  X   -0.313657   0.000000   0.252613   0.000000   0.277042
   39  O  3  Y    0.193973   0.000000   0.170160   0.000000   0.378052
   40  O  3  Z    0.000000   0.299502   0.000000  -0.466981   0.000000
   41  O  3  X   -0.157710   0.000000   0.155357   0.000000   0.186601
   42  O  3  Y    0.108825   0.000000   0.109653   0.000000   0.264735
   43  O  3  Z    0.000000   0.183364   0.000000  -0.331538   0.000000
   44  O  3 XX   -0.007546   0.000000   0.017186   0.000000   0.011168
   45  O  3 YY   -0.000293   0.000000  -0.012361   0.000000  -0.011916
   46  O  3 ZZ    0.007839   0.000000  -0.004825   0.000000   0.000748
   47  O  3 XY    0.012364   0.000000   0.005586   0.000000   0.011704
   48  O  3 XZ    0.000000   0.017339   0.000000  -0.016316   0.000000
   49  O  3 YZ    0.000000  -0.007476   0.000000   0.007970   0.000000

                     16         17         18         19         20
                   -0.2827    -0.1981    -0.0907     0.0195     0.2136
                     A          A          A          A          A   
    1  S  1  S    0.022166   0.000000   0.026288   0.000000   0.000000
    2  S  1  S   -0.143626   0.000000  -0.176081  -0.000000   0.000000
    3  S  1  S    0.179213   0.000000   0.268557  -0.000001   0.000000
    4  S  1  S    0.409510   0.000000   0.494648  -0.000002   0.000000
    5  S  1  X   -0.000000   0.000000   0.000000  -0.198982   0.000000
    6  S  1  Y    0.092506   0.000000  -0.198356  -0.000000   0.000000
    7  S  1  Z    0.000000  -0.223670   0.000000   0.000000   0.247739
    8  S  1  X    0.000000   0.000000   0.000000   0.622347   0.000000
    9  S  1  Y   -0.255659   0.000000   0.612578   0.000000   0.000000
   10  S  1  Z    0.000000   0.658279   0.000000   0.000000  -0.981568
   11  S  1  X   -0.000001   0.000000  -0.000008   0.955955   0.000000
   12  S  1  Y   -0.014461   0.000000   0.442580   0.000001   0.000000
   13  S  1  Z    0.000000   0.274870   0.000000   0.000000   1.311424
   14  S  1 XX   -0.139510   0.000000  -0.131490  -0.000003   0.000000
   15  S  1 YY    0.078424   0.000000   0.005200   0.000001   0.000000
   16  S  1 ZZ    0.061087   0.000000   0.126290   0.000002   0.000000
   17  S  1 XY    0.000000   0.000000   0.000001  -0.191002   0.000000
   18  S  1 XZ    0.000000  -0.000000   0.000000   0.000000   0.000000
   19  S  1 YZ    0.000000  -0.039901   0.000000   0.000000  -0.088564
   20  O  2  S    0.001775   0.000000   0.040591   0.059222   0.000000
   21  O  2  S   -0.003475   0.000000  -0.090650  -0.117151   0.000000
   22  O  2  S   -0.050093   0.000000  -0.274065  -0.529158   0.000000
   23  O  2  X    0.134531   0.000000   0.384860   0.146675   0.000000
   24  O  2  Y    0.424182   0.000000  -0.095867   0.258752   0.000000
   25  O  2  Z    0.000000  -0.394421   0.000000   0.000000  -0.055933
   26  O  2  X    0.094078   0.000000   0.343562   0.181704   0.000000
   27  O  2  Y    0.303683   0.000000  -0.079977   0.242672   0.000000
   28  O  2  Z    0.000000  -0.310154   0.000000   0.000000  -0.128577
   29  O  2 XX    0.000938   0.000000   0.002149  -0.003476   0.000000
   30  O  2 YY   -0.004386   0.000000  -0.004032   0.006076   0.000000
   31  O  2 ZZ    0.003448   0.000000   0.001883  -0.002600   0.000000
   32  O  2 XY   -0.010557   0.000000  -0.003713   0.005822   0.000000
   33  O  2 XZ    0.000000   0.001877   0.000000   0.000000   0.015789
   34  O  2 YZ    0.000000   0.000092   0.000000   0.000000   0.005446
   35  O  3  S    0.001776   0.000000   0.040592  -0.059221   0.000000
   36  O  3  S   -0.003476   0.000000  -0.090653   0.117142   0.000000
   37  O  3  S   -0.050093   0.000000  -0.274070   0.529168   0.000000
   38  O  3  X   -0.134532   0.000000  -0.384862   0.146669   0.000000
   39  O  3  Y    0.424181   0.000000  -0.095865  -0.258753   0.000000
   40  O  3  Z    0.000000  -0.394421   0.000000   0.000000  -0.055933
   41  O  3  X   -0.094078   0.000000  -0.343562   0.181708   0.000000
   42  O  3  Y    0.303683   0.000000  -0.079975  -0.242675   0.000000
   43  O  3  Z    0.000000  -0.310154   0.000000   0.000000  -0.128577
   44  O  3 XX    0.000938   0.000000   0.002149   0.003476   0.000000
   45  O  3 YY   -0.004386   0.000000  -0.004032  -0.006076   0.000000
   46  O  3 ZZ    0.003448   0.000000   0.001883   0.002599   0.000000
   47  O  3 XY    0.010557   0.000000   0.003713   0.005822   0.000000
   48  O  3 XZ    0.000000  -0.001877   0.000000   0.000000  -0.015789
   49  O  3 YZ    0.000000   0.000091   0.000000   0.000000   0.005446

                     21         22         23         24         25
                    0.2216     0.2417     0.2646     0.5015     0.5019
                     A          A          A          A          A   
    1  S  1  S    0.021043  -0.064621  -0.000001   0.000000   0.000000
    2  S  1  S   -0.153871   0.475288   0.000009   0.000000   0.000000
    3  S  1  S    0.531764  -1.837215  -0.000035   0.000000   0.000000
    4  S  1  S   -0.483626   2.150344   0.000031   0.000000   0.000000
    5  S  1  X   -0.000001  -0.000006   0.283104   0.000000   0.000000
    6  S  1  Y    0.243417   0.055196   0.000002   0.000000   0.000000
    7  S  1  Z    0.000000   0.000000   0.000000  -0.000001   0.025759
    8  S  1  X    0.000004   0.000026  -1.088337   0.000000   0.000000
    9  S  1  Y   -0.959744  -0.207719  -0.000009   0.000000   0.000000
   10  S  1  Z    0.000000   0.000000   0.000000   0.000006  -0.106806
   11  S  1  X   -0.000003  -0.000026   1.440384   0.000000   0.000000
   12  S  1  Y    1.252898   0.557741   0.000012   0.000000   0.000000
   13  S  1  Z    0.000000   0.000000   0.000000  -0.000004   0.084767
   14  S  1 XX    0.110522   0.001803  -0.000004   0.000000   0.000000
   15  S  1 YY   -0.112673  -0.047634  -0.000000   0.000000   0.000000
   16  S  1 ZZ    0.002151   0.045831   0.000004   0.000000   0.000000
   17  S  1 XY    0.000000   0.000000   0.142151   0.000000   0.000000
   18  S  1 XZ    0.000000   0.000000   0.000000   0.863327   0.000046
   19  S  1 YZ    0.000000   0.000000   0.000000  -0.000050   0.953713
   20  O  2  S    0.002544   0.022049   0.007012   0.000000   0.000000
   21  O  2  S    0.016060  -0.021062   0.044100   0.000000   0.000000
   22  O  2  S   -0.113214  -0.452101  -0.430679   0.000000   0.000000
   23  O  2  X   -0.040694  -0.131352  -0.247066   0.000000   0.000000
   24  O  2  Y   -0.039803  -0.117907  -0.101545   0.000000   0.000000
   25  O  2  Z    0.000000   0.000000   0.000000  -0.353005  -0.198601
   26  O  2  X    0.013652   0.147527  -0.082718   0.000000   0.000000
   27  O  2  Y   -0.113310   0.008209   0.011111   0.000000   0.000000
   28  O  2  Z    0.000000   0.000000   0.000000   0.140120   0.083389
   29  O  2 XX   -0.015660  -0.031312  -0.021003   0.000000   0.000000
   30  O  2 YY    0.012099   0.009395   0.000700   0.000000   0.000000
   31  O  2 ZZ    0.003561   0.021917   0.020303   0.000000   0.000000
   32  O  2 XY    0.008479  -0.025094  -0.032022   0.000000   0.000000
   33  O  2 XZ    0.000000   0.000000   0.000000  -0.051084  -0.036042
   34  O  2 YZ    0.000000   0.000000   0.000000  -0.035043   0.009947
   35  O  3  S    0.002544   0.022050  -0.007010   0.000000   0.000000
   36  O  3  S    0.016058  -0.021069  -0.044112   0.000000   0.000000
   37  O  3  S   -0.113214  -0.452105   0.430679   0.000000   0.000000
   38  O  3  X    0.040694   0.131358  -0.247066   0.000000   0.000000
   39  O  3  Y   -0.039803  -0.117911   0.101540   0.000000   0.000000
   40  O  3  Z    0.000000   0.000000   0.000000   0.353026  -0.198564
   41  O  3  X   -0.013650  -0.147515  -0.082711   0.000000   0.000000
   42  O  3  Y   -0.113310   0.008207  -0.011114   0.000000   0.000000
   43  O  3  Z    0.000000   0.000000   0.000000  -0.140129   0.083374
   44  O  3 XX   -0.015660  -0.031313   0.021002   0.000000   0.000000
   45  O  3 YY    0.012099   0.009395  -0.000700   0.000000   0.000000
   46  O  3 ZZ    0.003561   0.021918  -0.020302   0.000000   0.000000
   47  O  3 XY   -0.008479   0.025095  -0.032022   0.000000   0.000000
   48  O  3 XZ    0.000000   0.000000   0.000000  -0.051088   0.036036
   49  O  3 YZ    0.000000   0.000000   0.000000   0.035042   0.009951

                     26         27         28         29         30
                    0.5051     0.6423     0.6592     0.7867     0.8105
                     A          A          A          A          A   
    1  S  1  S   -0.000111  -0.000000   0.011506   0.000000  -0.000000
    2  S  1  S    0.001457   0.000000  -0.090577   0.000000   0.000001
    3  S  1  S   -0.020115  -0.000000   0.240492   0.000000  -0.000004
    4  S  1  S    0.040544  -0.000012   0.851896   0.000000  -0.000003
    5  S  1  X   -0.000000  -0.137640  -0.000001   0.000000  -0.036061
    6  S  1  Y    0.027672   0.000001  -0.075286   0.000000   0.000000
    7  S  1  Z    0.000000   0.000000   0.000000   0.000000   0.000000
    8  S  1  X    0.000001   0.688361   0.000006   0.000000   0.256425
    9  S  1  Y   -0.116305  -0.000003   0.382852   0.000000  -0.000002
   10  S  1  Z    0.000000   0.000000   0.000000  -0.000000   0.000000
   11  S  1  X   -0.000000   0.255653   0.000007   0.000000  -0.287875
   12  S  1  Y    0.106578  -0.000003   0.155764   0.000000   0.000004
   13  S  1  Z    0.000000   0.000000   0.000000   0.000000   0.000000
   14  S  1 XX   -0.159326  -0.000005   0.734288   0.000000  -0.000002
   15  S  1 YY    0.877296   0.000001  -0.159214   0.000000   0.000003
   16  S  1 ZZ   -0.717970   0.000004  -0.575075   0.000000  -0.000002
   17  S  1 XY    0.000000   0.800212   0.000006   0.000000   0.244373
   18  S  1 XZ    0.000000   0.000000   0.000000  -0.521986   0.000000
   19  S  1 YZ    0.000000   0.000000   0.000000  -0.000000   0.000000
   20  O  2  S    0.002922   0.068853   0.074564   0.000000  -0.001479
   21  O  2  S   -0.014306  -0.253757  -0.289115   0.000000   0.068696
   22  O  2  S   -0.012228  -0.250484  -0.255804   0.000000  -0.067849
   23  O  2  X    0.098769  -0.027278  -0.279557   0.000000  -0.391774
   24  O  2  Y   -0.216030  -0.252841   0.067439   0.000000   0.470629
   25  O  2  Z    0.000000   0.000000   0.000000  -0.550300   0.000000
   26  O  2  X   -0.040414   0.603718   0.841927   0.000000   0.651401
   27  O  2  Y    0.092039   0.460429   0.212594   0.000000  -0.544011
   28  O  2  Z    0.000000   0.000000   0.000000   0.768001   0.000000
   29  O  2 XX    0.022981   0.046593  -0.000044   0.000000   0.038523
   30  O  2 YY   -0.004857  -0.036783   0.017669   0.000000  -0.022762
   31  O  2 ZZ   -0.018124  -0.009811  -0.017625   0.000000  -0.015761
   32  O  2 XY   -0.032741   0.001262   0.024109   0.000000   0.002291
   33  O  2 XZ    0.000000   0.000000   0.000000   0.052688   0.000000
   34  O  2 YZ    0.000000   0.000000   0.000000   0.031710   0.000000
   35  O  3  S    0.002922  -0.068853   0.074564   0.000000   0.001477
   36  O  3  S   -0.014307   0.253756  -0.289116   0.000000  -0.068685
   37  O  3  S   -0.012227   0.250496  -0.255791   0.000000   0.067840
   38  O  3  X   -0.098769  -0.027286   0.279546   0.000000  -0.391781
   39  O  3  Y   -0.216030   0.252842   0.067439   0.000000  -0.470613
   40  O  3  Z    0.000000   0.000000   0.000000   0.550300   0.000000
   41  O  3  X    0.040415   0.603737  -0.841905   0.000000   0.651412
   42  O  3  Y    0.092038  -0.460435   0.212589   0.000000   0.543988
   43  O  3  Z    0.000000   0.000000   0.000000  -0.768001   0.000000
   44  O  3 XX    0.022981  -0.046594  -0.000045   0.000000  -0.038524
   45  O  3 YY   -0.004857   0.036783   0.017669   0.000000   0.022762
   46  O  3 ZZ   -0.018124   0.009811  -0.017624   0.000000   0.015762
   47  O  3 XY    0.032741   0.001263  -0.024109   0.000000   0.002293
   48  O  3 XZ    0.000000   0.000000   0.000000   0.052688   0.000000
   49  O  3 YZ    0.000000   0.000000   0.000000  -0.031710   0.000000

                     31         32         33         34         35
                    0.8260     0.8496     0.8731     0.8773     1.4302
                     A          A          A          A          A   
    1  S  1  S    0.008220   0.000000   0.000000  -0.006755   0.000000
    2  S  1  S   -0.071489   0.000000  -0.000001   0.065367  -0.000000
    3  S  1  S    0.378259   0.000000   0.000006  -0.488656   0.000011
    4  S  1  S   -0.029233   0.000000  -0.000006   0.367514  -0.000056
    5  S  1  X   -0.000001   0.000000   0.000654   0.000000  -0.072090
    6  S  1  Y   -0.011044   0.000000   0.000000  -0.022441   0.000001
    7  S  1  Z    0.000000   0.000600   0.000000   0.000000   0.000000
    8  S  1  X    0.000003   0.000000  -0.229884  -0.000003   0.497713
    9  S  1  Y    0.104618   0.000000  -0.000000   0.008160  -0.000008
   10  S  1  Z    0.000000  -0.010219   0.000000   0.000000   0.000000
   11  S  1  X   -0.000004   0.000000   0.258673   0.000005   1.060999
   12  S  1  Y   -0.497714   0.000000  -0.000000  -0.097207  -0.000020
   13  S  1  Z    0.000000  -0.566228   0.000000   0.000000   0.000000
   14  S  1 XX    0.113414   0.000000  -0.000009   0.780816  -0.000012
   15  S  1 YY   -0.317263   0.000000   0.000004  -0.349720   0.000002
   16  S  1 ZZ    0.203849   0.000000   0.000005  -0.431096   0.000010
   17  S  1 XY    0.000003   0.000000   0.639415   0.000006   0.265906
   18  S  1 XZ    0.000000   0.000000   0.000000   0.000000   0.000000
   19  S  1 YZ    0.000000  -0.298937   0.000000   0.000000   0.000000
   20  O  2  S   -0.006428   0.000000   0.008108   0.013412  -0.076873
   21  O  2  S    0.084974   0.000000   0.014664   0.005728   1.234476
   22  O  2  S   -0.045436   0.000000  -0.175502  -0.193863  -1.927238
   23  O  2  X   -0.008054   0.000000   0.506785   0.542777   0.000968
   24  O  2  Y   -0.600441   0.000000   0.316821   0.079008  -0.109885
   25  O  2  Z    0.000000  -0.611049   0.000000   0.000000   0.000000
   26  O  2  X    0.041379   0.000000  -0.473282  -0.488917   0.358318
   27  O  2  Y    0.880919   0.000000  -0.408299   0.132232   0.414887
   28  O  2  Z    0.000000   0.902391   0.000000   0.000000   0.000000
   29  O  2 XX   -0.001608   0.000000   0.026643  -0.051072   0.094723
   30  O  2 YY    0.008505   0.000000  -0.045070   0.056115  -0.022847
   31  O  2 ZZ   -0.006897   0.000000   0.018427  -0.005043  -0.071876
   32  O  2 XY    0.044707   0.000000  -0.044582   0.036892   0.111225
   33  O  2 XZ    0.000000   0.040491   0.000000   0.000000   0.000000
   34  O  2 YZ    0.000000   0.007844   0.000000   0.000000   0.000000
   35  O  3  S   -0.006429   0.000000  -0.008107   0.013412   0.076877
   36  O  3  S    0.084977   0.000000  -0.014675   0.005718  -1.234541
   37  O  3  S   -0.045439   0.000000   0.175519  -0.193849   1.927348
   38  O  3  X    0.008043   0.000000   0.506800  -0.542761   0.000965
   39  O  3  Y   -0.600452   0.000000  -0.316824   0.079003   0.109880
   40  O  3  Z    0.000000  -0.611050   0.000000   0.000000   0.000000
   41  O  3  X   -0.041361   0.000000  -0.473294   0.488900   0.358357
   42  O  3  Y    0.880932   0.000000   0.408298   0.132238  -0.414889
   43  O  3  Z    0.000000   0.902391   0.000000   0.000000   0.000000
   44  O  3 XX   -0.001609   0.000000  -0.026642  -0.051072  -0.094730
   45  O  3 YY    0.008506   0.000000   0.045069   0.056116   0.022849
   46  O  3 ZZ   -0.006897   0.000000  -0.018427  -0.005044   0.071880
   47  O  3 XY   -0.044707   0.000000  -0.044581  -0.036893   0.111229
   48  O  3 XZ    0.000000  -0.040491   0.000000   0.000000   0.000000
   49  O  3 YZ    0.000000   0.007844   0.000000   0.000000   0.000000

                     36         37         38         39         40
                    1.4747     2.0691     2.0691     2.0742     2.0810
                     A          A          A          A          A   
    1  S  1  S   -0.001992  -0.000000   0.000000   0.000000  -0.001094
    2  S  1  S    0.023373   0.000000   0.000000   0.000000   0.008969
    3  S  1  S    0.178079  -0.000000   0.000000   0.000000  -0.035351
    4  S  1  S   -1.732633   0.000000   0.000000   0.000000   0.018101
    5  S  1  X    0.000002  -0.002252   0.000000   0.000000  -0.000000
    6  S  1  Y    0.044169   0.000000   0.000000   0.000000   0.005222
    7  S  1  Z    0.000000   0.000000  -0.000000  -0.018084   0.000000
    8  S  1  X   -0.000011   0.004197   0.000000   0.000000   0.000000
    9  S  1  Y   -0.292717  -0.000000   0.000000   0.000000  -0.022777
   10  S  1  Z    0.000000   0.000000   0.000000   0.061381   0.000000
   11  S  1  X   -0.000040   0.020761   0.000000   0.000000  -0.000000
   12  S  1  Y   -0.612299   0.000000   0.000000   0.000000   0.008290
   13  S  1  Z    0.000000   0.000000   0.000000   0.013508   0.000000
   14  S  1 XX   -0.322391   0.000000   0.000000   0.000000   0.030227
   15  S  1 YY    0.040089   0.000000   0.000000   0.000000   0.043462
   16  S  1 ZZ    0.282302  -0.000000   0.000000   0.000000  -0.073689
   17  S  1 XY   -0.000010  -0.032822   0.000000   0.000000   0.000000
   18  S  1 XZ    0.000000   0.000000   0.025725  -0.000000   0.000000
   19  S  1 YZ    0.000000   0.000000  -0.000000  -0.013706   0.000000
   20  O  2  S    0.071040  -0.001223   0.000000   0.000000   0.002044
   21  O  2  S   -1.213065   0.010696   0.000000   0.000000  -0.012656
   22  O  2  S    1.925058  -0.013935   0.000000   0.000000   0.002259
   23  O  2  X    0.110426   0.005169   0.000000   0.000000   0.014860
   24  O  2  Y   -0.057474  -0.011597   0.000000   0.000000   0.003740
   25  O  2  Z    0.000000   0.000000   0.006319   0.016117   0.000000
   26  O  2  X   -0.713926  -0.013091   0.000000   0.000000  -0.013582
   27  O  2  Y   -0.055721   0.016220   0.000000   0.000000  -0.003434
   28  O  2  Z    0.000000   0.000000  -0.009964  -0.025990   0.000000
   29  O  2 XX   -0.155280   0.224375   0.000000   0.000000  -0.053629
   30  O  2 YY    0.059927   0.378534   0.000000   0.000000  -0.541662
   31  O  2 ZZ    0.095353  -0.602909   0.000000   0.000000   0.595290
   32  O  2 XY   -0.083113  -0.359094   0.000000   0.000000   0.257304
   33  O  2 XZ    0.000000   0.000000   0.402134  -0.059351   0.000000
   34  O  2 YZ    0.000000   0.000000  -0.581805   0.705407   0.000000
   35  O  3  S    0.071036   0.001223   0.000000   0.000000   0.002044
   36  O  3  S   -1.213000  -0.010695   0.000000   0.000000  -0.012655
   37  O  3  S    1.924946   0.013935   0.000000   0.000000   0.002258
   38  O  3  X   -0.110431   0.005169   0.000000   0.000000  -0.014860
   39  O  3  Y   -0.057482   0.011597   0.000000   0.000000   0.003740
   40  O  3  Z    0.000000   0.000000  -0.006319   0.016117   0.000000
   41  O  3  X    0.713912  -0.013091   0.000000   0.000000   0.013582
   42  O  3  Y   -0.055694  -0.016220   0.000000   0.000000  -0.003434
   43  O  3  Z    0.000000   0.000000   0.009964  -0.025990   0.000000
   44  O  3 XX   -0.155275  -0.224376   0.000000   0.000000  -0.053627
   45  O  3 YY    0.059925  -0.378538   0.000000   0.000000  -0.541659
   46  O  3 ZZ    0.095350   0.602913   0.000000   0.000000   0.595286
   47  O  3 XY    0.083108  -0.359096   0.000000   0.000000  -0.257302
   48  O  3 XZ    0.000000   0.000000   0.402135   0.059345   0.000000
   49  O  3 YZ    0.000000   0.000000   0.581815   0.705399   0.000000

                     41         42         43         44         45
                    2.1336     2.1376     2.2260     2.2406     2.6205
                     A          A          A          A          A   
    1  S  1  S    0.000000   0.000000   0.000000  -0.005229  -0.032133
    2  S  1  S    0.000000  -0.000000   0.000000   0.042760   0.253181
    3  S  1  S    0.000000   0.000001   0.000000  -0.104427  -0.617186
    4  S  1  S    0.000000  -0.000001   0.000000  -0.225382  -0.809182
    5  S  1  X    0.000000  -0.043600   0.000000  -0.000000  -0.000000
    6  S  1  Y    0.000000  -0.000000   0.000000   0.063364   0.091493
    7  S  1  Z    0.049373   0.000000  -0.000000   0.000000   0.000000
    8  S  1  X    0.000000   0.205659   0.000000   0.000000   0.000001
    9  S  1  Y    0.000000   0.000000   0.000000  -0.253512  -0.486995
   10  S  1  Z   -0.166437   0.000000   0.000000   0.000000   0.000000
   11  S  1  X    0.000000   0.034034   0.000000  -0.000002  -0.000004
   12  S  1  Y    0.000000  -0.000000   0.000000  -0.152099  -0.105233
   13  S  1  Z   -0.072710   0.000000  -0.000000   0.000000   0.000000
   14  S  1 XX    0.000000  -0.000000   0.000000   0.201705  -0.644246
   15  S  1 YY    0.000000   0.000000   0.000000  -0.275557   0.236140
   16  S  1 ZZ    0.000000   0.000000   0.000000   0.073852   0.408105
   17  S  1 XY    0.000000  -0.228365   0.000000  -0.000000  -0.000000
   18  S  1 XZ    0.000000   0.000000   0.393830   0.000000   0.000000
   19  S  1 YZ   -0.201177   0.000000   0.000000   0.000000   0.000000
   20  O  2  S    0.000000  -0.007997   0.000000   0.011032   0.006391
   21  O  2  S    0.000000   0.112033   0.000000  -0.193622  -0.505670
   22  O  2  S    0.000000  -0.148600   0.000000   0.305483   1.033498
   23  O  2  X    0.000000  -0.032971   0.000000   0.080183   0.036710
   24  O  2  Y    0.000000  -0.060241   0.000000  -0.030532   0.013999
   25  O  2  Z   -0.054040   0.000000   0.040464   0.000000   0.000000
   26  O  2  X    0.000000   0.052040   0.000000  -0.213800  -0.581450
   27  O  2  Y    0.000000   0.115667   0.000000   0.089436  -0.278122
   28  O  2  Z    0.114918   0.000000  -0.113977   0.000000   0.000000
   29  O  2 XX    0.000000   0.364191   0.000000   0.566250   0.472840
   30  O  2 YY    0.000000  -0.547953   0.000000  -0.458218  -0.068195
   31  O  2 ZZ    0.000000   0.183761   0.000000  -0.108033  -0.404644
   32  O  2 XY    0.000000  -0.444173   0.000000  -0.397768   0.598044
   33  O  2 XZ   -0.714829   0.000000   0.598134   0.000000   0.000000
   34  O  2 YZ   -0.065685   0.000000   0.409127   0.000000   0.000000
   35  O  3  S    0.000000   0.007997   0.000000   0.011032   0.006391
   36  O  3  S    0.000000  -0.112033   0.000000  -0.193621  -0.505670
   37  O  3  S    0.000000   0.148601   0.000000   0.305481   1.033495
   38  O  3  X    0.000000  -0.032971   0.000000  -0.080184  -0.036710
   39  O  3  Y    0.000000   0.060241   0.000000  -0.030532   0.013999
   40  O  3  Z   -0.054040   0.000000  -0.040464   0.000000   0.000000
   41  O  3  X    0.000000   0.052040   0.000000   0.213800   0.581451
   42  O  3  Y    0.000000  -0.115667   0.000000   0.089437  -0.278121
   43  O  3  Z    0.114918   0.000000   0.113976   0.000000   0.000000
   44  O  3 XX    0.000000  -0.364192   0.000000   0.566250   0.472841
   45  O  3 YY    0.000000   0.547953   0.000000  -0.458217  -0.068196
   46  O  3 ZZ    0.000000  -0.183761   0.000000  -0.108033  -0.404645
   47  O  3 XY    0.000000  -0.444173   0.000000   0.397767  -0.598045
   48  O  3 XZ    0.714829   0.000000   0.598133   0.000000   0.000000
   49  O  3 YZ   -0.065685   0.000000  -0.409126   0.000000   0.000000

                     46
                    2.6671
                     A   
    1  S  1  S    0.000000
    2  S  1  S   -0.000001
    3  S  1  S    0.000002
    4  S  1  S   -0.000002
    5  S  1  X   -0.208282
    6  S  1  Y   -0.000000
    7  S  1  Z    0.000000
    8  S  1  X    1.066356
    9  S  1  Y    0.000001
   10  S  1  Z    0.000000
   11  S  1  X    0.168268
   12  S  1  Y   -0.000001
   13  S  1  Z    0.000000
   14  S  1 XX   -0.000000
   15  S  1 YY   -0.000000
   16  S  1 ZZ    0.000000
   17  S  1 XY    0.556662
   18  S  1 XZ    0.000000
   19  S  1 YZ    0.000000
   20  O  2  S   -0.003306
   21  O  2  S    0.431840
   22  O  2  S   -0.914791
   23  O  2  X   -0.017377
   24  O  2  Y   -0.011793
   25  O  2  Z    0.000000
   26  O  2  X    0.548560
   27  O  2  Y    0.251383
   28  O  2  Z    0.000000
   29  O  2 XX   -0.641431
   30  O  2 YY    0.278183
   31  O  2 ZZ    0.363248
   32  O  2 XY   -0.467007
   33  O  2 XZ    0.000000
   34  O  2 YZ    0.000000
   35  O  3  S    0.003306
   36  O  3  S   -0.431839
   37  O  3  S    0.914790
   38  O  3  X   -0.017376
   39  O  3  Y    0.011792
   40  O  3  Z    0.000000
   41  O  3  X    0.548560
   42  O  3  Y   -0.251383
   43  O  3  Z    0.000000
   44  O  3 XX    0.641430
   45  O  3 YY   -0.278182
   46  O  3 ZZ   -0.363247
   47  O  3 XY   -0.467006
   48  O  3 XZ    0.000000
   49  O  3 YZ    0.000000
 ...... END OF RHF CALCULATION ......
 STEP CPU TIME =     2.50 TOTAL CPU TIME =          2.6 (      0.0 MIN)
 TOTAL WALL CLOCK TIME=          2.7 SECONDS, CPU UTILIZATION IS    98.51%

     ---------------------------------------------------------------------
     PROPERTIES FOR THE PBE      DFT FUNCTIONAL (RHF  TYPE) DENSITY MATRIX
     ---------------------------------------------------------------------

          -----------------
          ENERGY COMPONENTS
          -----------------

         WAVEFUNCTION NORMALIZATION =       1.0000000000

                ONE ELECTRON ENERGY =    -946.9477228887
                TWO ELECTRON ENERGY =     302.3765401458
           NUCLEAR REPULSION ENERGY =      96.3460097190
                                      ------------------
                       TOTAL ENERGY =    -548.2251730239

 ELECTRON-ELECTRON POTENTIAL ENERGY =     302.3765401458
  NUCLEUS-ELECTRON POTENTIAL ENERGY =   -1493.8940389927
   NUCLEUS-NUCLEUS POTENTIAL ENERGY =      96.3460097190
                                      ------------------
             TOTAL POTENTIAL ENERGY =   -1095.1714891279
               TOTAL KINETIC ENERGY =     546.9463161040
                 VIRIAL RATIO (V/T) =       2.0023381763

          ---------------------------------------
          MULLIKEN AND LOWDIN POPULATION ANALYSES
          ---------------------------------------

     ATOMIC MULLIKEN POPULATION IN EACH MOLECULAR ORBITAL

                      1          2          3          4          5

                  2.000000   2.000000   2.000000   2.000000   2.000000

    1             1.999960   0.000971   0.000925   2.000737   2.000351
    2             0.000020   0.998863   1.000189  -0.000368  -0.000176
    3             0.000020   1.000166   0.998886  -0.000368  -0.000176

                      6          7          8          9         10

                  2.000000   2.000000   2.000000   2.000000   2.000000

    1             2.000014   2.000064   0.633677   0.308828   1.044897
    2            -0.000007  -0.000032   0.683158   0.845590   0.477550
    3            -0.000007  -0.000032   0.683166   0.845582   0.477553

                     11         12         13         14         15

                  2.000000   2.000000   2.000000   2.000000   2.000000

    1             0.505594   1.087857   1.044091   0.070655   0.108989
    2             0.747205   0.456071   0.477954   0.964673   0.945505
    3             0.747202   0.456072   0.477956   0.964672   0.945506

                     16

                  2.000000

    1             0.485617
    2             0.757193
    3             0.757190

               ----- POPULATIONS IN EACH AO -----
                             MULLIKEN      LOWDIN
              1  S  1  S      1.99983     1.99927
              2  S  1  S      1.99243     1.88763
              3  S  1  S      1.34460     0.68356
              4  S  1  S      0.56259     0.47379
              5  S  1  X      1.99366     1.95662
              6  S  1  Y      1.99475     1.96528
              7  S  1  Z      1.99386     1.96046
              8  S  1  X      0.80546     0.67575
              9  S  1  Y      0.99938     0.91833
             10  S  1  Z      0.86353     0.77617
             11  S  1  X      0.02782     0.19530
             12  S  1  Y      0.16068     0.29835
             13  S  1  Z      0.22260     0.32985
             14  S  1 XX      0.03635     0.32045
             15  S  1 YY      0.11941     0.30671
             16  S  1 ZZ      0.09774     0.30380
             17  S  1 XY      0.07066     0.11386
             18  S  1 XZ      0.00789     0.08371
             19  S  1 YZ      0.00000     0.00760
             20  O  2  S      1.99564     1.97285
             21  O  2  S      0.96241     0.70590
             22  O  2  S      0.95966     0.54134
             23  O  2  X      0.83227     0.79080
             24  O  2  Y      1.07936     1.04850
             25  O  2  Z      0.84553     0.81102
             26  O  2  X      0.43743     0.55974
             27  O  2  Y      0.65494     0.70322
             28  O  2  Z      0.57071     0.60416
             29  O  2 XX      0.00173     0.21151
             30  O  2 YY      0.00487     0.20212
             31  O  2 ZZ      0.00435     0.20681
             32  O  2 XY      0.00372     0.00787
             33  O  2 XZ      0.00078     0.00492
             34  O  2 YZ      0.00000     0.00101
             35  O  3  S      1.99564     1.97285
             36  O  3  S      0.96241     0.70590
             37  O  3  S      0.95966     0.54134
             38  O  3  X      0.83227     0.79079
             39  O  3  Y      1.07936     1.04850
             40  O  3  Z      0.84553     0.81102
             41  O  3  X      0.43743     0.55974
             42  O  3  Y      0.65494     0.70322
             43  O  3  Z      0.57071     0.60416
             44  O  3 XX      0.00173     0.21151
             45  O  3 YY      0.00487     0.20212
             46  O  3 ZZ      0.00435     0.20681
             47  O  3 XY      0.00372     0.00787
             48  O  3 XZ      0.00078     0.00492
             49  O  3 YZ      0.00000     0.00101

          ----- MULLIKEN ATOMIC OVERLAP POPULATIONS -----
          (OFF-DIAGONAL ELEMENTS NEED TO BE MULTIPLIED BY 2)

             1           2           3

    1   14.7490452
    2    0.2720904   8.0912904
    3    0.2720900  -0.0099935   8.0912905

          TOTAL MULLIKEN AND LOWDIN ATOMIC POPULATIONS
       ATOM         MULL.POP.    CHARGE          LOW.POP.     CHARGE
    1 S            15.293226    0.706774        15.256486    0.743514
    2 O             8.353387   -0.353387         8.371757   -0.371757
    3 O             8.353387   -0.353387         8.371757   -0.371757

          MULLIKEN SPHERICAL HARMONIC POPULATIONS
       ATOM           S       P       D      F      G      H      I    TOTAL
    1 S             5.90    9.06    0.33   0.00   0.00   0.00   0.00   15.29
    2 O             3.92    4.42    0.02   0.00   0.00   0.00   0.00    8.35
    3 O             3.92    4.42    0.02   0.00   0.00   0.00   0.00    8.35

          -------------------------------
          BOND ORDER AND VALENCE ANALYSIS     BOND ORDER THRESHOLD=0.050
          -------------------------------

                   BOND                       BOND                       BOND
  ATOM PAIR DIST  ORDER      ATOM PAIR DIST  ORDER      ATOM PAIR DIST  ORDER
    1   2  1.600  1.754        1   3  1.600  1.754        2   3  2.900  0.376

                       TOTAL       BONDED        FREE
      ATOM            VALENCE     VALENCE     VALENCE
    1 S                 3.509       3.509      -0.000
    2 O                 2.130       2.130       0.000
    3 O                 2.130       2.130       0.000

          ---------------------
          ELECTROSTATIC MOMENTS
          ---------------------

 POINT   1           X           Y           Z (BOHR)    CHARGE
                 0.000000   -0.000000    0.000000        0.00 (A.U.)
         DX          DY          DZ         /D/  (DEBYE)
    -0.000001   -1.460849    0.000000    1.460849
 ...... END OF PROPERTY EVALUATION ......
 STEP CPU TIME =     0.00 TOTAL CPU TIME =          2.6 (      0.0 MIN)
 TOTAL WALL CLOCK TIME=          2.7 SECONDS, CPU UTILIZATION IS    98.15%
                580000  WORDS OF DYNAMIC MEMORY USED
 EXECUTION OF GAMESS TERMINATED NORMALLY Sun Sep 29 10:51:43 2019
 DDI: 263640 bytes (0.3 MB / 0 MWords) used by master data server.

 ----------------------------------------
 CPU timing information for all processes
 ========================================
 0: 2.590 + 0.77 = 2.667
 ----------------------------------------
 ddikick.x: exited gracefully.
----- accounting info -----
Files used on the master node crcfe02.crc.nd.edu were:
-rw-r--r-- 1 cdrisko campus     208 Sep 29 10:51 /afs/crc.nd.edu/user/c/cdrisko/SO2.F05
-rw-r--r-- 1 cdrisko campus   37566 Sep 29 10:51 /afs/crc.nd.edu/user/c/cdrisko/SO2.F07
-rw-r--r-- 1 cdrisko campus 3960352 Sep 29 10:51 /afs/crc.nd.edu/user/c/cdrisko/SO2.F08
-rw-r--r-- 1 cdrisko campus 1766880 Sep 29 10:51 /afs/crc.nd.edu/user/c/cdrisko/SO2.F10
Sun Sep 29 10:51:46 EDT 2019
0.435u 0.249s 0:06.36 10.5%	0+0k 0+24io 0pf+0w
