   1   1   0   0
  0.1728000E+04  0.1200000E-08  0.1200000E-08  0.1200000E-08  0.5000000E-15
  1.000000000000000E-004
  CAR 
 unknown system                          
      2.12963165    -25.61897491  301    -10.12600291      1.00000000
    -25.619  0.0000E+00  0.0000E+00
    -25.526  0.0000E+00  0.0000E+00
    -25.434  0.0000E+00  0.0000E+00
    -25.341  0.0000E+00  0.0000E+00
    -25.249  0.0000E+00  0.0000E+00
    -25.156  0.0000E+00  0.0000E+00
    -25.064  0.0000E+00  0.0000E+00
    -24.972  0.0000E+00  0.0000E+00
    -24.879  0.0000E+00  0.0000E+00
    -24.787  0.0000E+00  0.0000E+00
    -24.694  0.0000E+00  0.0000E+00
    -24.602  0.0000E+00  0.0000E+00
    -24.509  0.0000E+00  0.0000E+00
    -24.417  0.1200E-14  0.1110E-15
    -24.324  0.2162E+02  0.2000E+01
    -24.232  0.0000E+00  0.2000E+01
    -24.139  0.0000E+00  0.2000E+01
    -24.047  0.0000E+00  0.2000E+01
    -23.954  0.0000E+00  0.2000E+01
    -23.862  0.0000E+00  0.2000E+01
    -23.769  0.0000E+00  0.2000E+01
    -23.677  0.0000E+00  0.2000E+01
    -23.584  0.0000E+00  0.2000E+01
    -23.492  0.0000E+00  0.2000E+01
    -23.399  0.0000E+00  0.2000E+01
    -23.307  0.0000E+00  0.2000E+01
    -23.214  0.0000E+00  0.2000E+01
    -23.122  0.0000E+00  0.2000E+01
    -23.029  0.0000E+00  0.2000E+01
    -22.937  0.0000E+00  0.2000E+01
    -22.844  0.0000E+00  0.2000E+01
    -22.752  0.0000E+00  0.2000E+01
    -22.659  0.0000E+00  0.2000E+01
    -22.567  0.0000E+00  0.2000E+01
    -22.474  0.0000E+00  0.2000E+01
    -22.382  0.0000E+00  0.2000E+01
    -22.289  0.0000E+00  0.2000E+01
    -22.197  0.0000E+00  0.2000E+01
    -22.104  0.0000E+00  0.2000E+01
    -22.012  0.0000E+00  0.2000E+01
    -21.919  0.0000E+00  0.2000E+01
    -21.827  0.0000E+00  0.2000E+01
    -21.734  0.0000E+00  0.2000E+01
    -21.642  0.0000E+00  0.2000E+01
    -21.549  0.0000E+00  0.2000E+01
    -21.457  0.0000E+00  0.2000E+01
    -21.364  0.0000E+00  0.2000E+01
    -21.272  0.0000E+00  0.2000E+01
    -21.179  0.0000E+00  0.2000E+01
    -21.087  0.0000E+00  0.2000E+01
    -20.994  0.0000E+00  0.2000E+01
    -20.902  0.0000E+00  0.2000E+01
    -20.809  0.0000E+00  0.2000E+01
    -20.717  0.0000E+00  0.2000E+01
    -20.624  0.0000E+00  0.2000E+01
    -20.532  0.0000E+00  0.2000E+01
    -20.439  0.0000E+00  0.2000E+01
    -20.347  0.0000E+00  0.2000E+01
    -20.254  0.0000E+00  0.2000E+01
    -20.162  0.0000E+00  0.2000E+01
    -20.069  0.0000E+00  0.2000E+01
    -19.977  0.0000E+00  0.2000E+01
    -19.884  0.0000E+00  0.2000E+01
    -19.792  0.0000E+00  0.2000E+01
    -19.699  0.0000E+00  0.2000E+01
    -19.607  0.0000E+00  0.2000E+01
    -19.514  0.0000E+00  0.2000E+01
    -19.422  0.0000E+00  0.2000E+01
    -19.329  0.0000E+00  0.2000E+01
    -19.237  0.0000E+00  0.2000E+01
    -19.144  0.0000E+00  0.2000E+01
    -19.052  0.0000E+00  0.2000E+01
    -18.959  0.0000E+00  0.2000E+01
    -18.867  0.0000E+00  0.2000E+01
    -18.774  0.0000E+00  0.2000E+01
    -18.682  0.0000E+00  0.2000E+01
    -18.589  0.0000E+00  0.2000E+01
    -18.497  0.0000E+00  0.2000E+01
    -18.404  0.0000E+00  0.2000E+01
    -18.312  0.0000E+00  0.2000E+01
    -18.219  0.0000E+00  0.2000E+01
    -18.127  0.0000E+00  0.2000E+01
    -18.034  0.0000E+00  0.2000E+01
    -17.942  0.0000E+00  0.2000E+01
    -17.849  0.0000E+00  0.2000E+01
    -17.757  0.0000E+00  0.2000E+01
    -17.664  0.0000E+00  0.2000E+01
    -17.572  0.0000E+00  0.2000E+01
    -17.479  0.0000E+00  0.2000E+01
    -17.387  0.0000E+00  0.2000E+01
    -17.294  0.0000E+00  0.2000E+01
    -17.202  0.0000E+00  0.2000E+01
    -17.109  0.0000E+00  0.2000E+01
    -17.017  0.0000E+00  0.2000E+01
    -16.924  0.0000E+00  0.2000E+01
    -16.832  0.0000E+00  0.2000E+01
    -16.739  0.0000E+00  0.2000E+01
    -16.647  0.0000E+00  0.2000E+01
    -16.554  0.0000E+00  0.2000E+01
    -16.462  0.0000E+00  0.2000E+01
    -16.369  0.0000E+00  0.2000E+01
    -16.277  0.0000E+00  0.2000E+01
    -16.184  0.0000E+00  0.2000E+01
    -16.092  0.0000E+00  0.2000E+01
    -15.999  0.0000E+00  0.2000E+01
    -15.907  0.0000E+00  0.2000E+01
    -15.814  0.0000E+00  0.2000E+01
    -15.722  0.0000E+00  0.2000E+01
    -15.629  0.0000E+00  0.2000E+01
    -15.537  0.0000E+00  0.2000E+01
    -15.444  0.0000E+00  0.2000E+01
    -15.352  0.0000E+00  0.2000E+01
    -15.259  0.0000E+00  0.2000E+01
    -15.167  0.0000E+00  0.2000E+01
    -15.075  0.0000E+00  0.2000E+01
    -14.982  0.0000E+00  0.2000E+01
    -14.890  0.0000E+00  0.2000E+01
    -14.797  0.0000E+00  0.2000E+01
    -14.705  0.0000E+00  0.2000E+01
    -14.612  0.0000E+00  0.2000E+01
    -14.520  0.0000E+00  0.2000E+01
    -14.427  0.0000E+00  0.2000E+01
    -14.335  0.0000E+00  0.2000E+01
    -14.242  0.0000E+00  0.2000E+01
    -14.150  0.0000E+00  0.2000E+01
    -14.057  0.0000E+00  0.2000E+01
    -13.965  0.0000E+00  0.2000E+01
    -13.872  0.0000E+00  0.2000E+01
    -13.780  0.0000E+00  0.2000E+01
    -13.687  0.0000E+00  0.2000E+01
    -13.595  0.0000E+00  0.2000E+01
    -13.502  0.0000E+00  0.2000E+01
    -13.410  0.0000E+00  0.2000E+01
    -13.317  0.0000E+00  0.2000E+01
    -13.225  0.0000E+00  0.2000E+01
    -13.132  0.0000E+00  0.2000E+01
    -13.040  0.0000E+00  0.2000E+01
    -12.947  0.0000E+00  0.2000E+01
    -12.855  0.0000E+00  0.2000E+01
    -12.762  0.0000E+00  0.2000E+01
    -12.670  0.0000E+00  0.2000E+01
    -12.577  0.0000E+00  0.2000E+01
    -12.485  0.0000E+00  0.2000E+01
    -12.392  0.0000E+00  0.2000E+01
    -12.300  0.0000E+00  0.2000E+01
    -12.207  0.0000E+00  0.2000E+01
    -12.115  0.0000E+00  0.2000E+01
    -12.022  0.0000E+00  0.2000E+01
    -11.930  0.0000E+00  0.2000E+01
    -11.837  0.0000E+00  0.2000E+01
    -11.745  0.0000E+00  0.2000E+01
    -11.652  0.0000E+00  0.2000E+01
    -11.560  0.0000E+00  0.2000E+01
    -11.467  0.0000E+00  0.2000E+01
    -11.375  0.0000E+00  0.2000E+01
    -11.282  0.0000E+00  0.2000E+01
    -11.190  0.0000E+00  0.2000E+01
    -11.097  0.0000E+00  0.2000E+01
    -11.005  0.0000E+00  0.2000E+01
    -10.912  0.0000E+00  0.2000E+01
    -10.820  0.0000E+00  0.2000E+01
    -10.727  0.0000E+00  0.2000E+01
    -10.635  0.0000E+00  0.2000E+01
    -10.542  0.0000E+00  0.2000E+01
    -10.450  0.0000E+00  0.2000E+01
    -10.357  0.0000E+00  0.2000E+01
    -10.265  0.0000E+00  0.2000E+01
    -10.172  0.4587E+02  0.6243E+01
    -10.080  0.0000E+00  0.8000E+01
     -9.987  0.0000E+00  0.8000E+01
     -9.895  0.0000E+00  0.8000E+01
     -9.802  0.0000E+00  0.8000E+01
     -9.710  0.0000E+00  0.8000E+01
     -9.617  0.0000E+00  0.8000E+01
     -9.525  0.0000E+00  0.8000E+01
     -9.432  0.0000E+00  0.8000E+01
     -9.340  0.0000E+00  0.8000E+01
     -9.247  0.0000E+00  0.8000E+01
     -9.155  0.0000E+00  0.8000E+01
     -9.062  0.0000E+00  0.8000E+01
     -8.970  0.0000E+00  0.8000E+01
     -8.877  0.0000E+00  0.8000E+01
     -8.785  0.0000E+00  0.8000E+01
     -8.692  0.0000E+00  0.8000E+01
     -8.600  0.0000E+00  0.8000E+01
     -8.507  0.0000E+00  0.8000E+01
     -8.415  0.0000E+00  0.8000E+01
     -8.322  0.0000E+00  0.8000E+01
     -8.230  0.0000E+00  0.8000E+01
     -8.137  0.0000E+00  0.8000E+01
     -8.045  0.0000E+00  0.8000E+01
     -7.952  0.0000E+00  0.8000E+01
     -7.860  0.0000E+00  0.8000E+01
     -7.767  0.0000E+00  0.8000E+01
     -7.675  0.0000E+00  0.8000E+01
     -7.582  0.0000E+00  0.8000E+01
     -7.490  0.0000E+00  0.8000E+01
     -7.397  0.0000E+00  0.8000E+01
     -7.305  0.0000E+00  0.8000E+01
     -7.212  0.0000E+00  0.8000E+01
     -7.120  0.0000E+00  0.8000E+01
     -7.027  0.0000E+00  0.8000E+01
     -6.935  0.0000E+00  0.8000E+01
     -6.842  0.0000E+00  0.8000E+01
     -6.750  0.0000E+00  0.8000E+01
     -6.657  0.0000E+00  0.8000E+01
     -6.565  0.0000E+00  0.8000E+01
     -6.472  0.0000E+00  0.8000E+01
     -6.380  0.0000E+00  0.8000E+01
     -6.287  0.0000E+00  0.8000E+01
     -6.195  0.0000E+00  0.8000E+01
     -6.102  0.0000E+00  0.8000E+01
     -6.010  0.0000E+00  0.8000E+01
     -5.917  0.0000E+00  0.8000E+01
     -5.825  0.0000E+00  0.8000E+01
     -5.732  0.0000E+00  0.8000E+01
     -5.640  0.0000E+00  0.8000E+01
     -5.547  0.0000E+00  0.8000E+01
     -5.455  0.0000E+00  0.8000E+01
     -5.362  0.0000E+00  0.8000E+01
     -5.270  0.0000E+00  0.8000E+01
     -5.178  0.0000E+00  0.8000E+01
     -5.085  0.0000E+00  0.8000E+01
     -4.993  0.0000E+00  0.8000E+01
     -4.900  0.0000E+00  0.8000E+01
     -4.808  0.0000E+00  0.8000E+01
     -4.715  0.0000E+00  0.8000E+01
     -4.623  0.0000E+00  0.8000E+01
     -4.530  0.0000E+00  0.8000E+01
     -4.438  0.0000E+00  0.8000E+01
     -4.345  0.0000E+00  0.8000E+01
     -4.253  0.0000E+00  0.8000E+01
     -4.160  0.0000E+00  0.8000E+01
     -4.068  0.0000E+00  0.8000E+01
     -3.975  0.0000E+00  0.8000E+01
     -3.883  0.0000E+00  0.8000E+01
     -3.790  0.0000E+00  0.8000E+01
     -3.698  0.0000E+00  0.8000E+01
     -3.605  0.0000E+00  0.8000E+01
     -3.513  0.0000E+00  0.8000E+01
     -3.420  0.0000E+00  0.8000E+01
     -3.328  0.0000E+00  0.8000E+01
     -3.235  0.0000E+00  0.8000E+01
     -3.143  0.0000E+00  0.8000E+01
     -3.050  0.0000E+00  0.8000E+01
     -2.958  0.0000E+00  0.8000E+01
     -2.865  0.0000E+00  0.8000E+01
     -2.773  0.0000E+00  0.8000E+01
     -2.680  0.0000E+00  0.8000E+01
     -2.588  0.0000E+00  0.8000E+01
     -2.495  0.0000E+00  0.8000E+01
     -2.403  0.0000E+00  0.8000E+01
     -2.310  0.0000E+00  0.8000E+01
     -2.218  0.0000E+00  0.8000E+01
     -2.125  0.0000E+00  0.8000E+01
     -2.033  0.0000E+00  0.8000E+01
     -1.940  0.0000E+00  0.8000E+01
     -1.848  0.0000E+00  0.8000E+01
     -1.755  0.0000E+00  0.8000E+01
     -1.663  0.0000E+00  0.8000E+01
     -1.570  0.0000E+00  0.8000E+01
     -1.478  0.0000E+00  0.8000E+01
     -1.385  0.0000E+00  0.8000E+01
     -1.293  0.0000E+00  0.8000E+01
     -1.200  0.0000E+00  0.8000E+01
     -1.108  0.0000E+00  0.8000E+01
     -1.015  0.0000E+00  0.8000E+01
     -0.923  0.0000E+00  0.8000E+01
     -0.830  0.0000E+00  0.8000E+01
     -0.738  0.0000E+00  0.8000E+01
     -0.645  0.0000E+00  0.8000E+01
     -0.553  0.0000E+00  0.8000E+01
     -0.460  0.0000E+00  0.8000E+01
     -0.368  0.1747E-02  0.8000E+01
     -0.275  0.2162E+02  0.1000E+02
     -0.183  0.0000E+00  0.1000E+02
     -0.090  0.0000E+00  0.1000E+02
      0.002  0.0000E+00  0.1000E+02
      0.095  0.0000E+00  0.1000E+02
      0.187  0.0000E+00  0.1000E+02
      0.280  0.0000E+00  0.1000E+02
      0.372  0.0000E+00  0.1000E+02
      0.465  0.0000E+00  0.1000E+02
      0.557  0.1440E-13  0.1000E+02
      0.650  0.2162E+02  0.1200E+02
      0.742  0.0000E+00  0.1200E+02
      0.835  0.4258E-04  0.1200E+02
      0.927  0.4325E+02  0.1600E+02
      1.020  0.0000E+00  0.1600E+02
      1.112  0.0000E+00  0.1600E+02
      1.205  0.0000E+00  0.1600E+02
      1.297  0.0000E+00  0.1600E+02
      1.390  0.0000E+00  0.1600E+02
      1.482  0.0000E+00  0.1600E+02
      1.575  0.0000E+00  0.1600E+02
      1.667  0.0000E+00  0.1600E+02
      1.760  0.0000E+00  0.1600E+02
      1.852  0.0000E+00  0.1600E+02
      1.945  0.0000E+00  0.1600E+02
      2.037  0.0000E+00  0.1600E+02
      2.130  0.0000E+00  0.1600E+02
