       N       E                     dE             d eps       ncg     rms          rms(c)
DAV:   1     0.593586175037E+02    0.59359E+02   -0.13004E+03    24   0.243E+02
DAV:   2     0.116943514372E+02   -0.47664E+02   -0.47664E+02    24   0.900E+01
DAV:   3     0.219031648860E+00   -0.11475E+02   -0.11475E+02    16   0.510E+01
DAV:   4    -0.335299564335E-01   -0.25256E+00   -0.25256E+00    16   0.101E+01
DAV:   5    -0.364103853301E-01   -0.28804E-02   -0.28804E-02    32   0.840E-01    0.118E+00
DAV:   6    -0.389155110533E-01   -0.25051E-02   -0.56665E-02    16   0.184E+00    0.579E-01
DAV:   7    -0.466497911202E-01   -0.77343E-02   -0.11820E-02    16   0.779E-01    0.192E-01
DAV:   8    -0.490309609451E-01   -0.23812E-02   -0.48822E-04    16   0.176E-01    0.178E-02
DAV:   9    -0.491033301414E-01   -0.72369E-04   -0.61575E-05    16   0.569E-02
   1 F= -.49103330E-01 E0= -.49103330E-01  d E =-.212286E-12
