 vasp.5.4.1 05Feb16 (build Feb 08 2018 09:21:51) complex                        
  
 executed on             LinuxIFC date 2019.11.07  19:59:34
 running on    8 total cores
 distrk:  each k-point on    8 cores,    1 groups
 distr:  one band on NCORES_PER_BAND=   1 cores,    8 groups


--------------------------------------------------------------------------------------------------------


 INCAR:
 POTCAR:    PAW_PBE Ar 07Sep2000                  

 ----------------------------------------------------------------------------- 
|                                                                             |
|           W    W    AA    RRRRR   N    N  II  N    N   GGGG   !!!           |
|           W    W   A  A   R    R  NN   N  II  NN   N  G    G  !!!           |
|           W    W  A    A  R    R  N N  N  II  N N  N  G       !!!           |
|           W WW W  AAAAAA  RRRRR   N  N N  II  N  N N  G  GGG   !            |
|           WW  WW  A    A  R   R   N   NN  II  N   NN  G    G                |
|           W    W  A    A  R    R  N    N  II  N    N   GGGG   !!!           |
|                                                                             |
|      For optimal performance we recommend to set                            |
|        NCORE= 4 - approx SQRT( number of cores)                             |
|      NCORE specifies how many cores store one orbital (NPAR=cpu/NCORE).     |
|      This setting can  greatly improve the performance of VASP for DFT.     |
|      The default, NPAR=number of cores might be grossly inefficient         |
|      on modern multi-core architectures or massively parallel machines.     |
|      Do your own testing !!!!                                               |
|      Unfortunately you need to use the default for GW and RPA calculations. |
|      (for HF NCORE is supported but not extensively tested yet)             |
|                                                                             |
 ----------------------------------------------------------------------------- 

 POTCAR:    PAW_PBE Ar 07Sep2000                  
   VRHFIN =Ar: s2p6                                                             
   LEXCH  = PE                                                                  
   EATOM  =   579.0493 eV,   42.5589 Ry                                         
                                                                                
   TITEL  = PAW_PBE Ar 07Sep2000                                                
   LULTRA =        F    use ultrasoft PP ?                                      
   IUNSCR =        1    unscreen: 0-lin 1-nonlin 2-no                           
   RPACOR =    2.000    partial core radius                                     
   POMASS =   39.949; ZVAL   =    8.000    mass and valenz                      
   RCORE  =    1.900    outmost cutoff radius                                   
   RWIGS  =    1.800; RWIGS  =    0.953    wigner-seitz radius (au A)           
   ENMAX  =  266.408; ENMIN  =  199.806 eV                                      
   ICORE  =        2    local potential                                         
   LCOR   =        T    correct aug charges                                     
   LPAW   =        T    paw PP                                                  
   EAUG   =  482.930                                                            
   DEXC   =    0.000                                                            
   RMAX   =    1.945    core radius for proj-oper                               
   RAUG   =    1.300    factor for augmentation sphere                          
   RDEP   =    1.972    radius for radial grids                                 
   RDEPT  =    1.517    core radius for aug-charge                              
                                                                                
   Atomic configuration                                                         
    6 entries                                                                   
     n  l   j            E        occ.                                          
     1  0  0.50     -3120.2029   2.0000                                         
     2  0  0.50      -296.9756   2.0000                                         
     2  1  1.50      -229.8673   6.0000                                         
     3  0  0.50       -24.2863   2.0000                                         
     3  1  0.50       -10.2695   6.0000                                         
     3  2  1.50        -2.7212   0.0000                                         
   Description                                                                  
     l       E           TYP  RCUT    TYP  RCUT                                 
     0    -24.2863172     23  1.500                                             
     0     54.4233040     23  1.500                                             
     1    -10.2694819     23  1.900                                             
     2     -2.7211652     23  1.500                                             
  local pseudopotential read in
  partial core-charges read in
  partial kinetic energy density read in
  atomic valenz-charges read in
  non local Contribution for L=           0  read in
    real space projection operators read in
  non local Contribution for L=           0  read in
    real space projection operators read in
  non local Contribution for L=           1  read in
    real space projection operators read in
    PAW grid and wavefunctions read in
 
   number of l-projection  operators is LMAX  =           3
   number of lm-projection operators is LMMAX =           5
 
  PAW_PBE Ar 07Sep2000                  :
 energy of atom  1       EATOM= -579.0493
 kinetic energy error for atom=    0.9155 (will be added to EATOM!!)
 
 
 POSCAR: Ar                                      
  positions in cartesian coordinates
  No initial velocities read in
 exchange correlation table for  LEXCH =        8
   RHO(1)=    0.500       N(1)  =     2000
   RHO(2)=  100.500       N(2)  =     4000
 


--------------------------------------------------------------------------------------------------------


 ion  position               nearest neighbor table
   1  0.500  0.500  0.500-
 
  LATTYP: Found a simple cubic cell.
 ALAT       =    12.0000000000
  
  Lattice vectors:
  
 A1 = (  12.0000000000,   0.0000000000,   0.0000000000)
 A2 = (   0.0000000000,  12.0000000000,   0.0000000000)
 A3 = (   0.0000000000,   0.0000000000,  12.0000000000)


Analysis of symmetry for initial positions (statically):
=====================================================================
 Subroutine PRICEL returns:
 Original cell was already a primitive cell.
 

 Routine SETGRP: Setting up the symmetry group for a 
 simple cubic supercell.


 Subroutine GETGRP returns: Found 48 space group operations
 (whereof 48 operations were pure point group operations)
 out of a pool of 48 trial point group operations.


The static configuration has the point symmetry O_h .


Analysis of symmetry for dynamics (positions and initial velocities):
=====================================================================
 Subroutine PRICEL returns:
 Original cell was already a primitive cell.
 

 Routine SETGRP: Setting up the symmetry group for a 
 simple cubic supercell.


 Subroutine GETGRP returns: Found 48 space group operations
 (whereof 48 operations were pure point group operations)
 out of a pool of 48 trial point group operations.


The dynamic configuration has the point symmetry O_h .


 Subroutine INISYM returns: Found 48 space group operations
 (whereof 48 operations are pure point group operations),
 and found     1 'primitive' translations

 
 
 KPOINTS: KPOINTS created by Atomic Simulation Env

Automatic generation of k-mesh.
Space group operators:
 irot       det(A)        alpha          n_x          n_y          n_z        tau_x        tau_y        tau_z
    1     1.000000     0.000000     1.000000     0.000000     0.000000     0.000000     0.000000     0.000000
    2    -1.000000     0.000000     1.000000     0.000000     0.000000     0.000000     0.000000     0.000000
    3     1.000000   120.000000    -0.577350    -0.577350    -0.577350     0.000000     0.000000     0.000000
    4    -1.000000   120.000000    -0.577350    -0.577350    -0.577350     0.000000     0.000000     0.000000
    5     1.000000   120.000000     0.577350     0.577350     0.577350     0.000000     0.000000     0.000000
    6    -1.000000   120.000000     0.577350     0.577350     0.577350     0.000000     0.000000     0.000000
    7     1.000000    90.000000     0.000000     0.000000    -1.000000     0.000000     0.000000     0.000000
    8    -1.000000    90.000000     0.000000     0.000000    -1.000000     0.000000     0.000000     0.000000
    9     1.000000   180.000000     0.000000     0.707107     0.707107     0.000000     0.000000     0.000000
   10    -1.000000   180.000000     0.000000     0.707107     0.707107     0.000000     0.000000     0.000000
   11     1.000000    90.000000     0.000000     1.000000     0.000000     0.000000     0.000000     0.000000
   12    -1.000000    90.000000     0.000000     1.000000     0.000000     0.000000     0.000000     0.000000
   13     1.000000   180.000000     0.000000     0.000000     1.000000     0.000000     0.000000     0.000000
   14    -1.000000   180.000000     0.000000     0.000000     1.000000     0.000000     0.000000     0.000000
   15     1.000000   120.000000    -0.577350     0.577350     0.577350     0.000000     0.000000     0.000000
   16    -1.000000   120.000000    -0.577350     0.577350     0.577350     0.000000     0.000000     0.000000
   17     1.000000   120.000000    -0.577350     0.577350    -0.577350     0.000000     0.000000     0.000000
   18    -1.000000   120.000000    -0.577350     0.577350    -0.577350     0.000000     0.000000     0.000000
   19     1.000000    90.000000     0.000000     0.000000     1.000000     0.000000     0.000000     0.000000
   20    -1.000000    90.000000     0.000000     0.000000     1.000000     0.000000     0.000000     0.000000
   21     1.000000    90.000000    -1.000000     0.000000     0.000000     0.000000     0.000000     0.000000
   22    -1.000000    90.000000    -1.000000     0.000000     0.000000     0.000000     0.000000     0.000000
   23     1.000000   180.000000     0.707107     0.000000     0.707107     0.000000     0.000000     0.000000
   24    -1.000000   180.000000     0.707107     0.000000     0.707107     0.000000     0.000000     0.000000
   25     1.000000   120.000000     0.577350    -0.577350     0.577350     0.000000     0.000000     0.000000
   26    -1.000000   120.000000     0.577350    -0.577350     0.577350     0.000000     0.000000     0.000000
   27     1.000000   120.000000    -0.577350    -0.577350     0.577350     0.000000     0.000000     0.000000
   28    -1.000000   120.000000    -0.577350    -0.577350     0.577350     0.000000     0.000000     0.000000
   29     1.000000   180.000000     1.000000     0.000000     0.000000     0.000000     0.000000     0.000000
   30    -1.000000   180.000000     1.000000     0.000000     0.000000     0.000000     0.000000     0.000000
   31     1.000000    90.000000     0.000000    -1.000000     0.000000     0.000000     0.000000     0.000000
   32    -1.000000    90.000000     0.000000    -1.000000     0.000000     0.000000     0.000000     0.000000
   33     1.000000   180.000000     0.707107     0.707107     0.000000     0.000000     0.000000     0.000000
   34    -1.000000   180.000000     0.707107     0.707107     0.000000     0.000000     0.000000     0.000000
   35     1.000000    90.000000     1.000000     0.000000     0.000000     0.000000     0.000000     0.000000
   36    -1.000000    90.000000     1.000000     0.000000     0.000000     0.000000     0.000000     0.000000
   37     1.000000   120.000000     0.577350    -0.577350    -0.577350     0.000000     0.000000     0.000000
   38    -1.000000   120.000000     0.577350    -0.577350    -0.577350     0.000000     0.000000     0.000000
   39     1.000000   180.000000     0.000000     1.000000     0.000000     0.000000     0.000000     0.000000
   40    -1.000000   180.000000     0.000000     1.000000     0.000000     0.000000     0.000000     0.000000
   41     1.000000   120.000000     0.577350     0.577350    -0.577350     0.000000     0.000000     0.000000
   42    -1.000000   120.000000     0.577350     0.577350    -0.577350     0.000000     0.000000     0.000000
   43     1.000000   180.000000     0.000000    -0.707107     0.707107     0.000000     0.000000     0.000000
   44    -1.000000   180.000000     0.000000    -0.707107     0.707107     0.000000     0.000000     0.000000
   45     1.000000   180.000000     0.707107    -0.707107     0.000000     0.000000     0.000000     0.000000
   46    -1.000000   180.000000     0.707107    -0.707107     0.000000     0.000000     0.000000     0.000000
   47     1.000000   180.000000     0.707107     0.000000    -0.707107     0.000000     0.000000     0.000000
   48    -1.000000   180.000000     0.707107     0.000000    -0.707107     0.000000     0.000000     0.000000
 
 Subroutine IBZKPT returns following result:
 ===========================================
 
 Found      1 irreducible k-points:
 
 Following reciprocal coordinates:
            Coordinates               Weight
  0.000000  0.000000  0.000000      1.000000
 
 Following cartesian coordinates:
            Coordinates               Weight
  0.000000  0.000000  0.000000      1.000000
 


--------------------------------------------------------------------------------------------------------




 Dimension of arrays:
   k-points           NKPTS =      1   k-points in BZ     NKDIM =      1   number of bands    NBANDS=      8
   number of dos      NEDOS =    301   number of ions     NIONS =      1
   non local maximal  LDIM  =      3   non local SUM 2l+1 LMDIM =      5
   total plane-waves  NPLWV =  74088
   max r-space proj   IRMAX =      1   max aug-charges    IRDMAX=    980
   dimension x,y,z NGX =    42 NGY =   42 NGZ =   42
   dimension x,y,z NGXF=    84 NGYF=   84 NGZF=   84
   support grid    NGXF=    84 NGYF=   84 NGZF=   84
   ions per type =               1
 NGX,Y,Z   is equivalent  to a cutoff of   5.82,  5.82,  5.82 a.u.
 NGXF,Y,Z  is equivalent  to a cutoff of  11.64, 11.64, 11.64 a.u.


 I would recommend the setting:
   dimension x,y,z NGX =    42 NGY =   42 NGZ =   42
 SYSTEM =  unknown system                          
 POSCAR =  Ar                                      

 Startparameter for this run:
   NWRITE =      2    write-flag & timer
   PREC   = normal    normal or accurate (medium, high low for compatibility)
   ISTART =      0    job   : 0-new  1-cont  2-samecut
   ICHARG =      2    charge: 1-file 2-atom 10-const
   ISPIN  =      1    spin polarized calculation?
   LNONCOLLINEAR =      F non collinear calculations
   LSORBIT =      F    spin-orbit coupling
   INIWAV =      1    electr: 0-lowe 1-rand  2-diag
   LASPH  =      F    aspherical Exc in radial PAW
   METAGGA=      F    non-selfconsistent MetaGGA calc.

 Electronic Relaxation 1
   ENCUT  =  200.0 eV  14.70 Ry    3.83 a.u.  13.84 13.84 13.84*2*pi/ulx,y,z
   ENINI  =  200.0     initial cutoff
   ENAUG  =  482.9 eV  augmentation charge cutoff
   NELM   =     60;   NELMIN=  2; NELMDL= -5     # of ELM steps 
   EDIFF  = 0.1E-03   stopping-criterion for ELM
   LREAL  =      F    real-space projection
   NLSPLINE    = F    spline interpolate recip. space projectors
   LCOMPAT=      F    compatible to vasp.4.4
   GGA_COMPAT  = T    GGA compatible to vasp.4.4-vasp.4.6
   LMAXPAW     = -100 max onsite density
   LMAXMIX     =    2 max onsite mixed and CHGCAR
   VOSKOWN=      0    Vosko Wilk Nusair interpolation
   ROPT   =    0.00000
 Ionic relaxation
   EDIFFG = 0.1E-02   stopping-criterion for IOM
   NSW    =      0    number of steps for IOM
   NBLOCK =      1;   KBLOCK =      1    inner block; outer block 
   IBRION =     -1    ionic relax: 0-MD 1-quasi-New 2-CG
   NFREE  =      0    steps in history (QN), initial steepest desc. (CG)
   ISIF   =      2    stress and relaxation
   IWAVPR =     10    prediction:  0-non 1-charg 2-wave 3-comb
   ISYM   =      2    0-nonsym 1-usesym 2-fastsym
   LCORR  =      T    Harris-Foulkes like correction to forces

   POTIM  = 0.5000    time-step for ionic-motion
   TEIN   =    0.0    initial temperature
   TEBEG  =    0.0;   TEEND  =   0.0 temperature during run
   SMASS  =  -3.00    Nose mass-parameter (am)
   estimated Nose-frequenzy (Omega)   =  0.10E-29 period in steps =****** mass=  -0.329E-26a.u.
   SCALEE = 1.0000    scale energy and forces
   NPACO  =    256;   APACO  = 16.0  distance and # of slots for P.C.
   PSTRESS=    0.0 pullay stress

  Mass of Ions in am
   POMASS =  39.95
  Ionic Valenz
   ZVAL   =   8.00
  Atomic Wigner-Seitz radii
   RWIGS  =  -1.00
  virtual crystal weights 
   VCA    =   1.00
   NELECT =       8.0000    total number of electrons
   NUPDOWN=      -1.0000    fix difference up-down

 DOS related values:
   EMIN   =  10.00;   EMAX   =-10.00  energy-range for DOS
   EFERMI =   0.00
   ISMEAR =     0;   SIGMA  =   0.01  broadening in eV -4-tet -1-fermi 0-gaus

 Electronic relaxation 2 (details)
   IALGO  =     38    algorithm
   LDIAG  =      T    sub-space diagonalisation (order eigenvalues)
   LSUBROT=      F    optimize rotation matrix (better conditioning)
   TURBO    =      0    0=normal 1=particle mesh
   IRESTART =      0    0=no restart 2=restart with 2 vectors
   NREBOOT  =      0    no. of reboots
   NMIN     =      0    reboot dimension
   EREF     =   0.00    reference energy to select bands
   IMIX   =      4    mixing-type and parameters
     AMIX     =   0.40;   BMIX     =  1.00
     AMIX_MAG =   1.60;   BMIX_MAG =  1.00
     AMIN     =   0.10
     WC   =   100.;   INIMIX=   1;  MIXPRE=   1;  MAXMIX= -45

 Intra band minimization:
   WEIMIN = 0.0000     energy-eigenvalue tresh-hold
   EBREAK =  0.31E-05  absolut break condition
   DEPER  =   0.30     relativ break condition  

   TIME   =   0.40     timestep for ELM

  volume/ion in A,a.u.               =    1728.00     11661.12
  Fermi-wavevector in a.u.,A,eV,Ry     =   0.272850  0.515611  1.012913  0.074447
  Thomas-Fermi vector in A             =   1.113822
 
 Write flags
   LWAVE  =      F    write WAVECAR
   LCHARG =      F    write CHGCAR
   LVTOT  =      F    write LOCPOT, total local potential
   LVHAR  =      F    write LOCPOT, Hartree potential only
   LELF   =      F    write electronic localiz. function (ELF)
   LORBIT =      0    0 simple, 1 ext, 2 COOP (PROOUT)


 Dipole corrections
   LMONO  =      F    monopole corrections only (constant potential shift)
   LDIPOL =      F    correct potential (dipole corrections)
   IDIPOL =      0    1-x, 2-y, 3-z, 4-all directions 
   EPSILON=  1.0000000 bulk dielectric constant

 Exchange correlation treatment:
   GGA     =    --    GGA type
   LEXCH   =     8    internal setting for exchange type
   VOSKOWN=      0    Vosko Wilk Nusair interpolation
   LHFCALC =     F    Hartree Fock is set to
   LHFONE  =     F    Hartree Fock one center treatment
   AEXX    =    0.0000 exact exchange contribution

 Linear response parameters
   LEPSILON=     F    determine dielectric tensor
   LRPA    =     F    only Hartree local field effects (RPA)
   LNABLA  =     F    use nabla operator in PAW spheres
   LVEL    =     F    velocity operator in full k-point grid
   LINTERFAST=   F  fast interpolation
   KINTER  =     0    interpolate to denser k-point grid
   CSHIFT  =0.1000    complex shift for real part using Kramers Kronig
   OMEGAMAX=  -1.0    maximum frequency
   DEG_THRESHOLD= 0.2000000E-02 threshold for treating states as degnerate
   RTIME   =    0.100 relaxation time in fs

 Orbital magnetization related:
   ORBITALMAG=     F  switch on orbital magnetization
   LCHIMAG   =     F  perturbation theory with respect to B field
   DQ        =  0.001000  dq finite difference perturbation B field



--------------------------------------------------------------------------------------------------------


 Static calculation
 charge density and potential will be updated during run
 non-spin polarized calculation
 Variant of blocked Davidson
 Davidson routine will perform the subspace rotation
 perform sub-space diagonalisation
    after iterative eigenvector-optimisation
 modified Broyden-mixing scheme, WC =      100.0
 initial mixing is a Kerker type mixing with AMIX =  0.4000 and BMIX =      1.0000
 Hartree-type preconditioning will be used
 using additional bands            4
 reciprocal scheme for non local part
 use partial core corrections
 calculate Harris-corrections to forces 
   (improved forces if not selfconsistent)
 use gradient corrections 
 use of overlap-Matrix (Vanderbilt PP)
 Gauss-broadening in eV      SIGMA  =   0.01


--------------------------------------------------------------------------------------------------------


  energy-cutoff  :      200.00
  volume of cell :     1728.00
      direct lattice vectors                 reciprocal lattice vectors
    12.000000000  0.000000000  0.000000000     0.083333333  0.000000000  0.000000000
     0.000000000 12.000000000  0.000000000     0.000000000  0.083333333  0.000000000
     0.000000000  0.000000000 12.000000000     0.000000000  0.000000000  0.083333333

  length of vectors
    12.000000000 12.000000000 12.000000000     0.083333333  0.083333333  0.083333333


 
 k-points in units of 2pi/SCALE and weight: KPOINTS created by Atomic Simulation Env
   0.00000000  0.00000000  0.00000000       1.000
 
 k-points in reciprocal lattice and weights: KPOINTS created by Atomic Simulation Env
   0.00000000  0.00000000  0.00000000       1.000
 
 position of ions in fractional coordinates (direct lattice) 
   0.50000000  0.50000000  0.50000000
 
 position of ions in cartesian coordinates  (Angst):
   6.00000000  6.00000000  6.00000000
 


--------------------------------------------------------------------------------------------------------


 k-point  1 :   0.0000 0.0000 0.0000  plane waves:   11067

 maximum and minimum number of plane-waves per node :     11067    11067

 maximum number of plane-waves:     11067
 maximum index in each direction: 
   IXMAX=   13   IYMAX=   13   IZMAX=   13
   IXMIN=  -13   IYMIN=  -13   IZMIN=  -13

 WARNING: aliasing errors must be expected set NGX to  54 to avoid them
 WARNING: aliasing errors must be expected set NGY to  54 to avoid them
 WARNING: aliasing errors must be expected set NGZ to  54 to avoid them
 aliasing errors are usually negligible using standard VASP settings
 and one can safely disregard these warnings

 serial   3D FFT for wavefunctions
 parallel 3D FFT for charge:
    minimum data exchange during FFTs selected (reduces bandwidth)


 total amount of memory used by VASP on root node    40526. kBytes
========================================================================

   base      :      30000. kBytes
   nonl-proj :        620. kBytes
   fftplans  :       2952. kBytes
   grid      :       6776. kBytes
   one-center:          1. kBytes
   wavefun   :        177. kBytes
 
     INWAV:  cpu time    0.0000: real time    0.0000
 Broyden mixing: mesh for mixing (old mesh)
   NGX = 27   NGY = 27   NGZ = 27
  (NGX  = 84   NGY  = 84   NGZ  = 84)
  gives a total of  19683 points

 initial charge density was supplied:
 charge density of overlapping atoms calculated
 number of electron       8.0000000 magnetization 
 keeping initial charge density in first step


--------------------------------------------------------------------------------------------------------


 Maximum index for augmentation-charges           89 (set IRDMAX)


--------------------------------------------------------------------------------------------------------


 First call to EWALD:  gamma=   0.148
 Maximum number of real-space cells 3x 3x 3
 Maximum number of reciprocal cells 3x 3x 3

 FEWALD executed in parallel
    FEWALD:  cpu time    0.0015: real time    0.0015


----------------------------------------- Iteration    1(   1)  ---------------------------------------


    POTLOK:  cpu time    0.0473: real time    0.0484
    SETDIJ:  cpu time    0.0014: real time    0.0014
     EDDAV:  cpu time    0.0205: real time    0.0206
       DOS:  cpu time    0.0002: real time    0.0002
    --------------------------------------------
      LOOP:  cpu time    0.0704: real time    0.0720

 eigenvalue-minimisations  :    24
 total energy-change (2. order) : 0.5935862E+02  (-0.1300401E+03)
 number of electron       8.0000000 magnetization 
 augmentation part        8.0000000 magnetization 

 Free energy of the ion-electron system (eV)
  ---------------------------------------------------
  alpha Z        PSCENC =         0.08552978
  Ewald energy   TEWEN  =      -108.95061336
  -Hartree energ DENC   =      -385.56052838
  -exchange      EXHF   =         0.00000000
  -V(xc)+E(xc)   XCENC  =        29.15728017
  PAW double counting   =       464.39213177     -468.88429268
  entropy T*S    EENTRO =        -0.00000000
  eigenvalues    EBANDS =       -49.01464863
  atomic energy  EATOM  =       578.13375883
  Solvation  Ediel_sol  =         0.00000000
  ---------------------------------------------------
  free energy    TOTEN  =        59.35861750 eV

  energy without entropy =       59.35861750  energy(sigma->0) =       59.35861750


--------------------------------------------------------------------------------------------------------




----------------------------------------- Iteration    1(   2)  ---------------------------------------


     EDDAV:  cpu time    0.0155: real time    0.0156
       DOS:  cpu time    0.0001: real time    0.0001
    --------------------------------------------
      LOOP:  cpu time    0.0166: real time    0.0180

 eigenvalue-minimisations  :    24
 total energy-change (2. order) :-0.4766427E+02  (-0.4766427E+02)
 number of electron       8.0000000 magnetization 
 augmentation part        8.0000000 magnetization 

 Free energy of the ion-electron system (eV)
  ---------------------------------------------------
  alpha Z        PSCENC =         0.08552978
  Ewald energy   TEWEN  =      -108.95061336
  -Hartree energ DENC   =      -385.56052838
  -exchange      EXHF   =         0.00000000
  -V(xc)+E(xc)   XCENC  =        29.15728017
  PAW double counting   =       464.39213177     -468.88429268
  entropy T*S    EENTRO =        -0.00000000
  eigenvalues    EBANDS =       -96.67891470
  atomic energy  EATOM  =       578.13375883
  Solvation  Ediel_sol  =         0.00000000
  ---------------------------------------------------
  free energy    TOTEN  =        11.69435144 eV

  energy without entropy =       11.69435144  energy(sigma->0) =       11.69435144


--------------------------------------------------------------------------------------------------------




----------------------------------------- Iteration    1(   3)  ---------------------------------------


     EDDAV:  cpu time    0.0120: real time    0.0121
       DOS:  cpu time    0.0001: real time    0.0001
    --------------------------------------------
      LOOP:  cpu time    0.0129: real time    0.0146

 eigenvalue-minimisations  :    16
 total energy-change (2. order) :-0.1147532E+02  (-0.1147532E+02)
 number of electron       8.0000000 magnetization 
 augmentation part        8.0000000 magnetization 

 Free energy of the ion-electron system (eV)
  ---------------------------------------------------
  alpha Z        PSCENC =         0.08552978
  Ewald energy   TEWEN  =      -108.95061336
  -Hartree energ DENC   =      -385.56052838
  -exchange      EXHF   =         0.00000000
  -V(xc)+E(xc)   XCENC  =        29.15728017
  PAW double counting   =       464.39213177     -468.88429268
  entropy T*S    EENTRO =        -0.00000000
  eigenvalues    EBANDS =      -108.15423448
  atomic energy  EATOM  =       578.13375883
  Solvation  Ediel_sol  =         0.00000000
  ---------------------------------------------------
  free energy    TOTEN  =         0.21903165 eV

  energy without entropy =        0.21903165  energy(sigma->0) =        0.21903165


--------------------------------------------------------------------------------------------------------




----------------------------------------- Iteration    1(   4)  ---------------------------------------


     EDDAV:  cpu time    0.0117: real time    0.0117
       DOS:  cpu time    0.0001: real time    0.0001
    --------------------------------------------
      LOOP:  cpu time    0.0125: real time    0.0139

 eigenvalue-minimisations  :    16
 total energy-change (2. order) :-0.2525616E+00  (-0.2525616E+00)
 number of electron       8.0000000 magnetization 
 augmentation part        8.0000000 magnetization 

 Free energy of the ion-electron system (eV)
  ---------------------------------------------------
  alpha Z        PSCENC =         0.08552978
  Ewald energy   TEWEN  =      -108.95061336
  -Hartree energ DENC   =      -385.56052838
  -exchange      EXHF   =         0.00000000
  -V(xc)+E(xc)   XCENC  =        29.15728017
  PAW double counting   =       464.39213177     -468.88429268
  entropy T*S    EENTRO =        -0.00000000
  eigenvalues    EBANDS =      -108.40679609
  atomic energy  EATOM  =       578.13375883
  Solvation  Ediel_sol  =         0.00000000
  ---------------------------------------------------
  free energy    TOTEN  =        -0.03352996 eV

  energy without entropy =       -0.03352996  energy(sigma->0) =       -0.03352996


--------------------------------------------------------------------------------------------------------




----------------------------------------- Iteration    1(   5)  ---------------------------------------


     EDDAV:  cpu time    0.0201: real time    0.0201
       DOS:  cpu time    0.0001: real time    0.0001
    CHARGE:  cpu time    0.0146: real time    0.0147
    MIXING:  cpu time    0.0024: real time    0.0025
    --------------------------------------------
      LOOP:  cpu time    0.0380: real time    0.0396

 eigenvalue-minimisations  :    32
 total energy-change (2. order) :-0.2880429E-02  (-0.2880429E-02)
 number of electron       8.0000265 magnetization 
 augmentation part       -0.6272433 magnetization 

 Broyden mixing:
  rms(total) = 0.11782E+00    rms(broyden)= 0.11060E+00
  rms(prec ) = 0.12359E+00
  weight for this iteration     100.00

 Free energy of the ion-electron system (eV)
  ---------------------------------------------------
  alpha Z        PSCENC =         0.08552978
  Ewald energy   TEWEN  =      -108.95061336
  -Hartree energ DENC   =      -385.56052838
  -exchange      EXHF   =         0.00000000
  -V(xc)+E(xc)   XCENC  =        29.15728017
  PAW double counting   =       464.39213177     -468.88429268
  entropy T*S    EENTRO =        -0.00000000
  eigenvalues    EBANDS =      -108.40967652
  atomic energy  EATOM  =       578.13375883
  Solvation  Ediel_sol  =         0.00000000
  ---------------------------------------------------
  free energy    TOTEN  =        -0.03641039 eV

  energy without entropy =       -0.03641039  energy(sigma->0) =       -0.03641039


--------------------------------------------------------------------------------------------------------




----------------------------------------- Iteration    1(   6)  ---------------------------------------


    POTLOK:  cpu time    0.0385: real time    0.0386
    SETDIJ:  cpu time    0.0012: real time    0.0012
     EDDAV:  cpu time    0.0143: real time    0.0144
       DOS:  cpu time    0.0001: real time    0.0001
    CHARGE:  cpu time    0.0134: real time    0.0135
    MIXING:  cpu time    0.0024: real time    0.0024
    --------------------------------------------
      LOOP:  cpu time    0.0710: real time    0.0728

 eigenvalue-minimisations  :    16
 total energy-change (2. order) :-0.2505126E-02  (-0.5666457E-02)
 number of electron       8.0000267 magnetization 
 augmentation part       -0.6310948 magnetization 

 Broyden mixing:
  rms(total) = 0.57949E-01    rms(broyden)= 0.57495E-01
  rms(prec ) = 0.62046E-01
  weight for this iteration     100.00

 eigenvalues of (default mixing * dielectric matrix)
  average eigenvalue GAMMA=   1.8270
  1.8270

 Free energy of the ion-electron system (eV)
  ---------------------------------------------------
  alpha Z        PSCENC =         0.08552978
  Ewald energy   TEWEN  =      -108.95061336
  -Hartree energ DENC   =      -384.40564682
  -exchange      EXHF   =         0.00000000
  -V(xc)+E(xc)   XCENC  =        29.11664568
  PAW double counting   =       446.97931708     -451.32982025
  entropy T*S    EENTRO =        -0.00000000
  eigenvalues    EBANDS =      -109.66808644
  atomic energy  EATOM  =       578.13375883
  Solvation  Ediel_sol  =         0.00000000
  ---------------------------------------------------
  free energy    TOTEN  =        -0.03891551 eV

  energy without entropy =       -0.03891551  energy(sigma->0) =       -0.03891551


--------------------------------------------------------------------------------------------------------




----------------------------------------- Iteration    1(   7)  ---------------------------------------


    POTLOK:  cpu time    0.0367: real time    0.0367
    SETDIJ:  cpu time    0.0013: real time    0.0013
     EDDAV:  cpu time    0.0117: real time    0.0118
       DOS:  cpu time    0.0001: real time    0.0001
    CHARGE:  cpu time    0.0134: real time    0.0134
    MIXING:  cpu time    0.0021: real time    0.0022
    --------------------------------------------
      LOOP:  cpu time    0.0663: real time    0.0738

 eigenvalue-minimisations  :    16
 total energy-change (2. order) :-0.7734280E-02  (-0.1182029E-02)
 number of electron       8.0000267 magnetization 
 augmentation part       -0.6325630 magnetization 

 Broyden mixing:
  rms(total) = 0.19241E-01    rms(broyden)= 0.19032E-01
  rms(prec ) = 0.20732E-01
  weight for this iteration     100.00

 eigenvalues of (default mixing * dielectric matrix)
  average eigenvalue GAMMA=   2.0147
  1.3716  2.6578

 Free energy of the ion-electron system (eV)
  ---------------------------------------------------
  alpha Z        PSCENC =         0.08552978
  Ewald energy   TEWEN  =      -108.95061336
  -Hartree energ DENC   =      -384.07949927
  -exchange      EXHF   =         0.00000000
  -V(xc)+E(xc)   XCENC  =        29.11427339
  PAW double counting   =       434.78655591     -439.03061079
  entropy T*S    EENTRO =        -0.00000000
  eigenvalues    EBANDS =      -110.10604429
  atomic energy  EATOM  =       578.13375883
  Solvation  Ediel_sol  =         0.00000000
  ---------------------------------------------------
  free energy    TOTEN  =        -0.04664979 eV

  energy without entropy =       -0.04664979  energy(sigma->0) =       -0.04664979


--------------------------------------------------------------------------------------------------------




----------------------------------------- Iteration    1(   8)  ---------------------------------------


    POTLOK:  cpu time    0.0359: real time    0.0359
    SETDIJ:  cpu time    0.0012: real time    0.0012
     EDDAV:  cpu time    0.0125: real time    0.0125
       DOS:  cpu time    0.0001: real time    0.0001
    CHARGE:  cpu time    0.0136: real time    0.0136
    MIXING:  cpu time    0.0022: real time    0.0022
    --------------------------------------------
      LOOP:  cpu time    0.0664: real time    0.0678

 eigenvalue-minimisations  :    16
 total energy-change (2. order) :-0.2381170E-02  (-0.4882240E-04)
 number of electron       8.0000267 magnetization 
 augmentation part       -0.6322330 magnetization 

 Broyden mixing:
  rms(total) = 0.17759E-02    rms(broyden)= 0.16728E-02
  rms(prec ) = 0.20174E-02
  weight for this iteration     100.00

 eigenvalues of (default mixing * dielectric matrix)
  average eigenvalue GAMMA=   1.6970
  2.5818  0.9945  1.5147

 Free energy of the ion-electron system (eV)
  ---------------------------------------------------
  alpha Z        PSCENC =         0.08552978
  Ewald energy   TEWEN  =      -108.95061336
  -Hartree energ DENC   =      -384.43132140
  -exchange      EXHF   =         0.00000000
  -V(xc)+E(xc)   XCENC  =        29.14577011
  PAW double counting   =       432.10045566     -436.31407531
  entropy T*S    EENTRO =        -0.00000000
  eigenvalues    EBANDS =      -109.81853526
  atomic energy  EATOM  =       578.13375883
  Solvation  Ediel_sol  =         0.00000000
  ---------------------------------------------------
  free energy    TOTEN  =        -0.04903096 eV

  energy without entropy =       -0.04903096  energy(sigma->0) =       -0.04903096


--------------------------------------------------------------------------------------------------------




----------------------------------------- Iteration    1(   9)  ---------------------------------------


    POTLOK:  cpu time    0.0369: real time    0.0370
    SETDIJ:  cpu time    0.0012: real time    0.0012
     EDDAV:  cpu time    0.0121: real time    0.0121
       DOS:  cpu time    0.0001: real time    0.0001
    --------------------------------------------
      LOOP:  cpu time    0.0512: real time    0.0527

 eigenvalue-minimisations  :    16
 total energy-change (2. order) :-0.7236920E-04  (-0.6157470E-05)
 number of electron       8.0000267 magnetization 
 augmentation part       -0.6322330 magnetization 

 Free energy of the ion-electron system (eV)
  ---------------------------------------------------
  alpha Z        PSCENC =         0.08552978
  Ewald energy   TEWEN  =      -108.95061336
  -Hartree energ DENC   =      -384.47589949
  -exchange      EXHF   =         0.00000000
  -V(xc)+E(xc)   XCENC  =        29.14822299
  PAW double counting   =       432.71331193     -436.93143643
  entropy T*S    EENTRO =        -0.00000000
  eigenvalues    EBANDS =      -109.77197758
  atomic energy  EATOM  =       578.13375883
  Solvation  Ediel_sol  =         0.00000000
  ---------------------------------------------------
  free energy    TOTEN  =        -0.04910333 eV

  energy without entropy =       -0.04910333  energy(sigma->0) =       -0.04910333


--------------------------------------------------------------------------------------------------------




 average (electrostatic) potential at core
  the test charge radii are     0.8078
  (the norm of the test charge is              1.0000)
       1-156.3711
 
 
 
 E-fermi : -10.1260     XC(G=0):  -0.3579     alpha+bet : -0.1095


 k-point     1 :       0.0000    0.0000    0.0000
  band No.  band energies     occupation 
      1     -24.3577      2.00000
      2     -10.1761      2.00000
      3     -10.1761      2.00000
      4     -10.1761      2.00000
      5      -0.3411      0.00000
      6       0.6137      0.00000
      7       0.8683      0.00000
      8       0.8683      0.00000


--------------------------------------------------------------------------------------------------------


 soft charge-density along one line, spin component           1
         0         1         2         3         4         5         6         7         8         9
 total charge-density along one line
 
 pseudopotential strength for first ion, spin component:           1
 67.808 -74.391  -0.000   0.000  -0.000
-74.391  87.899   0.000  -0.000   0.000
 -0.000   0.000  12.863   0.000   0.000
  0.000  -0.000   0.000  12.863   0.000
 -0.000   0.000   0.000   0.000  12.863
 total augmentation occupancy for first ion, spin component:           1
  2.111   0.047   0.000   0.000   0.000
  0.047   0.001   0.000   0.000   0.000
  0.000   0.000   1.873   0.000   0.000
  0.000   0.000   0.000   1.873   0.000
  0.000   0.000   0.000   0.000   1.873


------------------------ aborting loop because EDIFF is reached ----------------------------------------


    CHARGE:  cpu time    0.0137: real time    0.0137
    FORLOC:  cpu time    0.0018: real time    0.0018
    FORNL :  cpu time    0.0019: real time    0.0019
    STRESS:  cpu time    0.0272: real time    0.0272
    FORCOR:  cpu time    0.0424: real time    0.0424
    FORHAR:  cpu time    0.0103: real time    0.0103
    MIXING:  cpu time    0.0039: real time    0.0039
    OFIELD:  cpu time    0.0001: real time    0.0000

  FORCE on cell =-STRESS in cart. coord.  units (eV):
  Direction    XX          YY          ZZ          XY          YZ          ZX
  --------------------------------------------------------------------------------------
  Alpha Z     0.08553     0.08553     0.08553
  Ewald     -36.31687   -36.31687   -36.31687     0.00000     0.00000     0.00000
  Hartree   128.15588   128.15588   128.15588    -0.00000    -0.00000    -0.00000
  E(xc)     -31.04680   -31.04680   -31.04680    -0.00000    -0.00000    -0.00000
  Local    -343.58406  -343.58406  -343.58406     0.00000     0.00000     0.00000
  n-local   155.73119   155.73129   155.73130    -0.00003    -0.00001    -0.00003
  augment   -23.45959   -23.45959   -23.45959     0.00000     0.00000     0.00000
  Kinetic   146.51798   146.51802   146.51802    -0.00003    -0.00001    -0.00003
  Fock        0.00000     0.00000     0.00000     0.00000     0.00000     0.00000
  -------------------------------------------------------------------------------------
  Total      -3.91665    -3.91665    -3.91665     0.00000    -0.00000    -0.00000
  in kB      -3.63146    -3.63146    -3.63146     0.00000    -0.00000    -0.00000
  external pressure =       -3.63 kB  Pullay stress =        0.00 kB


 VOLUME and BASIS-vectors are now :
 -----------------------------------------------------------------------------
  energy-cutoff  :      200.00
  volume of cell :     1728.00
      direct lattice vectors                 reciprocal lattice vectors
    12.000000000  0.000000000  0.000000000     0.083333333  0.000000000  0.000000000
     0.000000000 12.000000000  0.000000000     0.000000000  0.083333333  0.000000000
     0.000000000  0.000000000 12.000000000     0.000000000  0.000000000  0.083333333

  length of vectors
    12.000000000 12.000000000 12.000000000     0.083333333  0.083333333  0.083333333


 FORCES acting on ions
    electron-ion (+dipol)            ewald-force                    non-local-force                 convergence-correction
 -----------------------------------------------------------------------------------------------
   0.125E-13 0.778E-12 -.161E-11   0.280E-16 0.802E-17 0.759E-17   0.000E+00 0.000E+00 0.000E+00   -.346E-13 -.492E-14 0.128E-12
 -----------------------------------------------------------------------------------------------
   0.125E-13 0.778E-12 -.161E-11   0.280E-16 0.802E-17 0.759E-17   0.000E+00 0.000E+00 0.000E+00   -.346E-13 -.492E-14 0.128E-12
 
 
 POSITION                                       TOTAL-FORCE (eV/Angst)
 -----------------------------------------------------------------------------------
      6.00000      6.00000      6.00000         0.000000      0.000000      0.000000
 -----------------------------------------------------------------------------------
    total drift:                               -0.000000      0.000000     -0.000000


--------------------------------------------------------------------------------------------------------



  FREE ENERGIE OF THE ION-ELECTRON SYSTEM (eV)
  ---------------------------------------------------
  free  energy   TOTEN  =        -0.04910333 eV

  energy  without entropy=       -0.04910333  energy(sigma->0) =       -0.04910333
 


--------------------------------------------------------------------------------------------------------


    POTLOK:  cpu time    0.0478: real time    0.0480


--------------------------------------------------------------------------------------------------------


     LOOP+:  cpu time    0.5585: real time    0.6132
    4ORBIT:  cpu time    0.0000: real time    0.0000

 total amount of memory used by VASP on root node    40526. kBytes
========================================================================

   base      :      30000. kBytes
   nonl-proj :        620. kBytes
   fftplans  :       2952. kBytes
   grid      :       6776. kBytes
   one-center:          1. kBytes
   wavefun   :        177. kBytes
 
  
  
 General timing and accounting informations for this job:
 ========================================================
  
                  Total CPU time used (sec):        0.924
                            User time (sec):        0.834
                          System time (sec):        0.090
                         Elapsed time (sec):        1.194
  
                   Maximum memory used (kb):       50824.
                   Average memory used (kb):           0.
  
                          Minor page faults:        12720
                          Major page faults:            8
                 Voluntary context switches:          518
