<?xml version="1.0" encoding="ISO-8859-1"?>
<modeling>
 <generator>
  <i name="program" type="string">vasp </i>
  <i name="version" type="string">5.4.1  </i>
  <i name="subversion" type="string">05Feb16 (build Feb 08 2018 09:21:51) complex                          parallel </i>
  <i name="platform" type="string">LinuxIFC </i>
  <i name="date" type="string">2019 11 07 </i>
  <i name="time" type="string">19:59:34 </i>
 </generator>
 <incar>
  <i type="string" name="PREC">normal</i>
  <i name="ENCUT">    200.00000000</i>
  <i type="int" name="ISMEAR">     0</i>
  <i name="SIGMA">      0.01000000</i>
  <i type="logical" name="LWAVE"> F  </i>
  <i type="logical" name="LCHARG"> F  </i>
  <v type="int" name="KPOINT_BSE">    -1     0     0     0</v>
 </incar>
 <kpoints>
  <generation param="Monkhorst-Pack">
   <v type="int" name="divisions">       1        1        1 </v>
   <v name="usershift">      0.00000000       0.00000000       0.00000000 </v>
   <v name="genvec1">      1.00000000       0.00000000       0.00000000 </v>
   <v name="genvec2">      0.00000000       1.00000000       0.00000000 </v>
   <v name="genvec3">      0.00000000       0.00000000       1.00000000 </v>
   <v name="shift">      0.00000000       0.00000000       0.00000000 </v>
  </generation>
  <varray name="kpointlist" >
   <v>       0.00000000       0.00000000       0.00000000 </v>
  </varray>
  <varray name="weights" >
   <v>       1.00000000 </v>
  </varray>
 </kpoints>
 <parameters>
  <separator name="general" >
   <i type="string" name="SYSTEM">unknown system</i>
   <i type="logical" name="LCOMPAT"> F  </i>
  </separator>
  <separator name="electronic" >
   <i type="string" name="PREC">normal</i>
   <i name="ENMAX">    200.00000000</i>
   <i name="ENAUG">    482.93000000</i>
   <i name="EDIFF">      0.00010000</i>
   <i type="int" name="IALGO">    38</i>
   <i type="int" name="IWAVPR">    10</i>
   <i type="int" name="NBANDS">     8</i>
   <i name="NELECT">      8.00000000</i>
   <i type="int" name="TURBO">     0</i>
   <i type="int" name="IRESTART">     0</i>
   <i type="int" name="NREBOOT">     0</i>
   <i type="int" name="NMIN">     0</i>
   <i name="EREF">      0.00000000</i>
   <separator name="electronic smearing" >
    <i type="int" name="ISMEAR">     0</i>
    <i name="SIGMA">      0.01000000</i>
    <i name="KSPACING">      0.50000000</i>
    <i type="logical" name="KGAMMA"> T  </i>
   </separator>
   <separator name="electronic projectors" >
    <i type="logical" name="LREAL"> F  </i>
    <v name="ROPT">      0.00000000</v>
    <i type="int" name="LMAXPAW">  -100</i>
    <i type="int" name="LMAXMIX">     2</i>
    <i type="logical" name="NLSPLINE"> F  </i>
   </separator>
   <separator name="electronic startup" >
    <i type="int" name="ISTART">     0</i>
    <i type="int" name="ICHARG">     2</i>
    <i type="int" name="INIWAV">     1</i>
   </separator>
   <separator name="electronic spin" >
    <i type="int" name="ISPIN">     1</i>
    <i type="logical" name="LNONCOLLINEAR"> F  </i>
    <v name="MAGMOM">      1.00000000</v>
    <i name="NUPDOWN">     -1.00000000</i>
    <i type="logical" name="LSORBIT"> F  </i>
    <v name="SAXIS">      0.00000000      0.00000000      1.00000000</v>
    <i type="logical" name="LSPIRAL"> F  </i>
    <v name="QSPIRAL">      0.00000000      0.00000000      0.00000000</v>
    <i type="logical" name="LZEROZ"> F  </i>
   </separator>
   <separator name="electronic exchange-correlation" >
    <i type="logical" name="LASPH"> F  </i>
    <i type="logical" name="LMETAGGA"> F  </i>
   </separator>
   <separator name="electronic convergence" >
    <i type="int" name="NELM">    60</i>
    <i type="int" name="NELMDL">    -5</i>
    <i type="int" name="NELMIN">     2</i>
    <i name="ENINI">    200.00000000</i>
    <separator name="electronic convergence detail" >
     <i type="logical" name="LDIAG"> T  </i>
     <i type="logical" name="LSUBROT"> F  </i>
     <i name="WEIMIN">      0.00000000</i>
     <i name="EBREAK">      0.00000313</i>
     <i name="DEPER">      0.30000000</i>
     <i type="int" name="NRMM">     4</i>
     <i name="TIME">      0.40000000</i>
    </separator>
   </separator>
   <separator name="electronic mixer" >
    <i name="AMIX">      0.40000000</i>
    <i name="BMIX">      1.00000000</i>
    <i name="AMIN">      0.10000000</i>
    <i name="AMIX_MAG">      1.60000000</i>
    <i name="BMIX_MAG">      1.00000000</i>
    <separator name="electronic mixer details" >
     <i type="int" name="IMIX">     4</i>
     <i type="logical" name="MIXFIRST"> F  </i>
     <i type="int" name="MAXMIX">   -45</i>
     <i name="WC">    100.00000000</i>
     <i type="int" name="INIMIX">     1</i>
     <i type="int" name="MIXPRE">     1</i>
     <i type="int" name="MREMOVE">     5</i>
    </separator>
   </separator>
   <separator name="electronic dipolcorrection" >
    <i type="logical" name="LDIPOL"> F  </i>
    <i type="logical" name="LMONO"> F  </i>
    <i type="int" name="IDIPOL">     0</i>
    <i name="EPSILON">      1.00000000</i>
    <v name="DIPOL">   -100.00000000   -100.00000000   -100.00000000</v>
    <i name="EFIELD">      0.00000000</i>
   </separator>
  </separator>
  <separator name="grids" >
   <i type="int" name="NGX">    42</i>
   <i type="int" name="NGY">    42</i>
   <i type="int" name="NGZ">    42</i>
   <i type="int" name="NGXF">    84</i>
   <i type="int" name="NGYF">    84</i>
   <i type="int" name="NGZF">    84</i>
   <i type="logical" name="ADDGRID"> F  </i>
  </separator>
  <separator name="ionic" >
   <i type="int" name="NSW">     0</i>
   <i type="int" name="IBRION">    -1</i>
   <i type="int" name="ISIF">     2</i>
   <i name="PSTRESS">      0.00000000</i>
   <i name="EDIFFG">      0.00100000</i>
   <i type="int" name="NFREE">     0</i>
   <i name="POTIM">      0.50000000</i>
   <i name="SMASS">     -3.00000000</i>
   <i name="SCALEE">      1.00000000</i>
  </separator>
  <separator name="ionic md" >
   <i name="TEBEG">      0.00010000</i>
   <i name="TEEND">      0.00010000</i>
   <i type="int" name="NBLOCK">     1</i>
   <i type="int" name="KBLOCK">     1</i>
   <i type="int" name="NPACO">   256</i>
   <i name="APACO">     16.00000000</i>
  </separator>
  <separator name="symmetry" >
   <i type="int" name="ISYM">     2</i>
   <i name="SYMPREC">      0.00001000</i>
  </separator>
  <separator name="dos" >
   <i type="logical" name="LORBIT"> F  </i>
   <v name="RWIGS">     -1.00000000</v>
   <i type="int" name="NEDOS">   301</i>
   <i name="EMIN">     10.00000000</i>
   <i name="EMAX">    -10.00000000</i>
   <i name="EFERMI">      0.00000000</i>
  </separator>
  <separator name="writing" >
   <i type="int" name="NWRITE">     2</i>
   <i type="logical" name="LWAVE"> F  </i>
   <i type="logical" name="LCHARG"> F  </i>
   <i type="logical" name="LPARD"> F  </i>
   <i type="logical" name="LVTOT"> F  </i>
   <i type="logical" name="LVHAR"> F  </i>
   <i type="logical" name="LELF"> F  </i>
   <i type="logical" name="LOPTICS"> F  </i>
   <v name="STM">      0.00000000      0.00000000      0.00000000      0.00000000      0.00000000      0.00000000      0.00000000</v>
  </separator>
  <separator name="performance" >
   <i type="int" name="NPAR">     8</i>
   <i type="int" name="NSIM">     4</i>
   <i type="int" name="NBLK">    -1</i>
   <i type="logical" name="LPLANE"> T  </i>
   <i type="logical" name="LSCALAPACK"> F  </i>
   <i type="logical" name="LSCAAWARE"> F  </i>
   <i type="logical" name="LSCALU"> F  </i>
   <i type="logical" name="LASYNC"> F  </i>
   <i type="logical" name="LORBITALREAL"> F  </i>
  </separator>
  <separator name="miscellaneous" >
   <i type="int" name="IDIOT">     3</i>
   <i type="logical" name="LMUSIC"> F  </i>
   <v name="POMASS">     39.94900000</v>
   <v name="DARWINR">      0.00000000</v>
   <v name="DARWINV">      1.00000000</v>
   <i type="logical" name="LCORR"> T  </i>
  </separator>
  <i type="logical" name="GGA_COMPAT"> T  </i>
  <i type="logical" name="LBERRY"> F  </i>
  <i type="int" name="ICORELEVEL">     0</i>
  <i type="logical" name="LDAU"> F  </i>
  <i type="int" name="I_CONSTRAINED_M">     0</i>
  <separator name="electronic exchange-correlation" >
   <i type="string" name="GGA">--</i>
   <i type="int" name="VOSKOWN">     0</i>
   <i type="logical" name="LHFCALC"> F  </i>
   <i type="string" name="PRECFOCK"></i>
   <i type="logical" name="LSYMGRAD"> F  </i>
   <i type="logical" name="LHFONE"> F  </i>
   <i type="logical" name="LRHFCALC"> F  </i>
   <i type="logical" name="LTHOMAS"> F  </i>
   <i type="logical" name="LMODELHF"> F  </i>
   <i name="ENCUT4O">     -1.00000000</i>
   <i type="int" name="EXXOEP">     0</i>
   <i type="int" name="FOURORBIT">     0</i>
   <i name="AEXX">      0.00000000</i>
   <i name="HFALPHA">      0.00000000</i>
   <i name="MCALPHA">      0.00000000</i>
   <i name="ALDAX">      1.00000000</i>
   <i name="AGGAX">      1.00000000</i>
   <i name="ALDAC">      1.00000000</i>
   <i name="AGGAC">      1.00000000</i>
   <i type="int" name="NKREDX">     1</i>
   <i type="int" name="NKREDY">     1</i>
   <i type="int" name="NKREDZ">     1</i>
   <i type="logical" name="SHIFTRED"> F  </i>
   <i type="logical" name="ODDONLY"> F  </i>
   <i type="logical" name="EVENONLY"> F  </i>
   <i type="int" name="LMAXFOCK">     0</i>
   <i type="int" name="NMAXFOCKAE">     0</i>
   <i type="logical" name="LFOCKAEDFT"> F  </i>
   <i name="HFSCREEN">      0.00000000</i>
   <i name="HFSCREENC">      0.00000000</i>
   <i type="int" name="NBANDSGWLOW">     0</i>
  </separator>
  <separator name="vdW DFT" >
   <i type="logical" name="LUSE_VDW"> F  </i>
   <i name="Zab_VDW">     -0.84910000</i>
   <i name="PARAM1">      0.12340000</i>
   <i name="PARAM2">      1.00000000</i>
   <i name="PARAM3">      0.00000000</i>
  </separator>
  <separator name="model GW" >
   <i type="int" name="MODEL_GW">     0</i>
   <i name="MODEL_EPS0">   1036.80000000</i>
   <i name="MODEL_ALPHA">      1.00000000</i>
  </separator>
  <separator name="linear response parameters" >
   <i type="logical" name="LEPSILON"> F  </i>
   <i type="logical" name="LRPA"> F  </i>
   <i type="logical" name="LNABLA"> F  </i>
   <i type="logical" name="LVEL"> F  </i>
   <i type="int" name="KINTER">     0</i>
   <i name="CSHIFT">      0.10000000</i>
   <i name="OMEGAMAX">     -1.00000000</i>
   <i name="DEG_THRESHOLD">      0.00200000</i>
  </separator>
  <separator name="orbital magnetization" >
   <i type="logical" name="NUCIND"> F  </i>
   <v name="MAGPOS">      0.00000000      0.00000000      0.00000000</v>
   <i type="logical" name="LNICSALL"> T  </i>
   <i type="logical" name="ORBITALMAG"> F  </i>
   <i type="logical" name="LMAGBLOCH"> F  </i>
   <i type="logical" name="LCHIMAG"> F  </i>
   <i type="logical" name="LGAUGE"> T  </i>
   <i type="int" name="MAGATOM">     0</i>
   <v name="MAGDIPOL">      0.00000000      0.00000000      0.00000000</v>
   <v name="AVECCONST">      0.00000000      0.00000000      0.00000000</v>
  </separator>
  <separator name="response functions" >
   <i type="logical" name="LADDER"> F  </i>
   <i type="logical" name="LFXC"> F  </i>
   <i type="logical" name="LHARTREE"> T  </i>
   <i type="int" name="IBSE">     0</i>
   <v type="int" name="KPOINT">    -1     0     0     0</v>
   <i type="logical" name="LTCTE"> F  </i>
   <i type="logical" name="LTETE"> F  </i>
   <i type="logical" name="LTRIPLET"> F  </i>
   <i type="logical" name="LFXCEPS"> F  </i>
   <i type="logical" name="LFXHEG"> F  </i>
   <i type="int" name="NATURALO">     0</i>
   <i type="logical" name="L2ORDER"> F  </i>
   <i type="logical" name="LUSEW"> F  </i>
   <i name="ENCUTGW">     -2.00000000</i>
   <i name="ENCUTGWSOFT">     -2.00000000</i>
   <i name="ENCUTLF">     -1.00000000</i>
   <i type="int" name="LMAXMP2">    -1</i>
   <i name="SCISSOR">      0.00000000</i>
   <i type="int" name="NOMEGA">     0</i>
   <i type="int" name="NOMEGAR">     0</i>
   <i type="int" name="NBANDSGW">    -1</i>
   <i type="int" name="NBANDSO">    -1</i>
   <i type="int" name="NBANDSV">    -1</i>
   <i type="int" name="NELM">     1</i>
   <i type="int" name="NELMHF">     1</i>
   <i type="int" name="DIM">     3</i>
   <i type="int" name="ANTIRES">     0</i>
   <i name="OMEGAMAX">    -30.00000000</i>
   <i name="OMEGAMIN">    -30.00000000</i>
   <i name="OMEGATL">   -200.00000000</i>
   <i type="int" name="OMEGAGRID">     0</i>
   <i name="CSHIFT">     -0.10000000</i>
   <i type="logical" name="SELFENERGY"> F  </i>
   <i type="logical" name="LSPECTRAL"> F  </i>
   <i type="logical" name="LSPECTRALGW"> F  </i>
   <i type="logical" name="LSINGLES"> F  </i>
   <i type="logical" name="LFERMIGW"> F  </i>
   <i type="logical" name="ODDONLYGW"> F  </i>
   <i type="logical" name="EVENONLYGW"> F  </i>
   <i type="int" name="NKREDLFX">     1</i>
   <i type="int" name="NKREDLFY">     1</i>
   <i type="int" name="NKREDLFZ">     1</i>
   <i type="int" name="MAXMEM">  1800</i>
   <i type="int" name="TELESCOPE">     0</i>
   <i type="int" name="TAUPAR">     1</i>
   <i type="int" name="OMEGAPAR">    -1</i>
   <i name="LAMBDA">      1.00000000</i>
  </separator>
  <separator name="External order field" >
   <i name="OFIELD_KAPPA">      0.00000000</i>
   <v name="OFIELD_K">      0.00000000      0.00000000      0.00000000</v>
   <i name="OFIELD_Q6_NEAR">      0.00000000</i>
   <i name="OFIELD_Q6_FAR">      0.00000000</i>
   <i name="OFIELD_A">      0.00000000</i>
  </separator>
 </parameters>
 <atominfo>
  <atoms>       1 </atoms>
  <types>       1 </types>
  <array name="atoms" >
   <dimension dim="1">ion</dimension>
   <field type="string">element</field>
   <field type="int">atomtype</field>
   <set>
    <rc><c>Ar</c><c>   1</c></rc>
   </set>
  </array>
  <array name="atomtypes" >
   <dimension dim="1">type</dimension>
   <field type="int">atomspertype</field>
   <field type="string">element</field>
   <field>mass</field>
   <field>valence</field>
   <field type="string">pseudopotential</field>
   <set>
    <rc><c>   1</c><c>Ar</c><c>     39.94900000</c><c>      8.00000000</c><c>  PAW_PBE Ar 07Sep2000                  </c></rc>
   </set>
  </array>
 </atominfo>
 <structure name="initialpos" >
  <crystal>
   <varray name="basis" >
    <v>      12.00000000       0.00000000       0.00000000 </v>
    <v>       0.00000000      12.00000000       0.00000000 </v>
    <v>       0.00000000       0.00000000      12.00000000 </v>
   </varray>
   <i name="volume">   1728.00000000 </i>
   <varray name="rec_basis" >
    <v>       0.08333333       0.00000000       0.00000000 </v>
    <v>       0.00000000       0.08333333       0.00000000 </v>
    <v>       0.00000000       0.00000000       0.08333333 </v>
   </varray>
  </crystal>
  <varray name="positions" >
   <v>       0.50000000       0.50000000       0.50000000 </v>
  </varray>
 </structure>
 <calculation>
  <scstep>
   <time name="dav">    0.02    0.02</time>
   <time name="total">    0.07    0.07</time>
   <energy>
    <i name="alphaZ">      0.08552978 </i>
    <i name="ewald">   -108.95061336 </i>
    <i name="hartreedc">   -385.56052838 </i>
    <i name="XCdc">     29.15728017 </i>
    <i name="pawpsdc">    464.39213177 </i>
    <i name="pawaedc">   -468.88429268 </i>
    <i name="eentropy">     -0.00000000 </i>
    <i name="bandstr">    -49.01464863 </i>
    <i name="atom">    578.13375883 </i>
    <i name="e_fr_energy">     59.35861750 </i>
    <i name="e_wo_entrp">     59.35861750 </i>
    <i name="e_0_energy">     59.35861750 </i>
   </energy>
  </scstep>
  <scstep>
   <time name="dav">    0.02    0.02</time>
   <time name="total">    0.02    0.02</time>
   <energy>
    <i name="e_fr_energy">     11.69435144 </i>
    <i name="e_wo_entrp">     11.69435144 </i>
    <i name="e_0_energy">     11.69435144 </i>
   </energy>
  </scstep>
  <scstep>
   <time name="dav">    0.01    0.01</time>
   <time name="total">    0.01    0.01</time>
   <energy>
    <i name="e_fr_energy">      0.21903165 </i>
    <i name="e_wo_entrp">      0.21903165 </i>
    <i name="e_0_energy">      0.21903165 </i>
   </energy>
  </scstep>
  <scstep>
   <time name="dav">    0.01    0.01</time>
   <time name="total">    0.01    0.01</time>
   <energy>
    <i name="e_fr_energy">     -0.03352996 </i>
    <i name="e_wo_entrp">     -0.03352996 </i>
    <i name="e_0_energy">     -0.03352996 </i>
   </energy>
  </scstep>
  <scstep>
   <time name="dav">    0.02    0.02</time>
   <time name="total">    0.04    0.04</time>
   <energy>
    <i name="e_fr_energy">     -0.03641039 </i>
    <i name="e_wo_entrp">     -0.03641039 </i>
    <i name="e_0_energy">     -0.03641039 </i>
   </energy>
  </scstep>
  <scstep>
   <time name="dav">    0.01    0.01</time>
   <time name="total">    0.07    0.07</time>
   <energy>
    <i name="e_fr_energy">     -0.03891551 </i>
    <i name="e_wo_entrp">     -0.03891551 </i>
    <i name="e_0_energy">     -0.03891551 </i>
   </energy>
  </scstep>
  <scstep>
   <time name="dav">    0.01    0.01</time>
   <time name="total">    0.07    0.07</time>
   <energy>
    <i name="e_fr_energy">     -0.04664979 </i>
    <i name="e_wo_entrp">     -0.04664979 </i>
    <i name="e_0_energy">     -0.04664979 </i>
   </energy>
  </scstep>
  <scstep>
   <time name="dav">    0.01    0.01</time>
   <time name="total">    0.07    0.07</time>
   <energy>
    <i name="e_fr_energy">     -0.04903096 </i>
    <i name="e_wo_entrp">     -0.04903096 </i>
    <i name="e_0_energy">     -0.04903096 </i>
   </energy>
  </scstep>
  <scstep>
   <time name="dav">    0.01    0.01</time>
   <time name="total">    0.05    0.05</time>
   <energy>
    <i name="alphaZ">      0.08552978 </i>
    <i name="ewald">   -108.95061336 </i>
    <i name="hartreedc">   -384.47589949 </i>
    <i name="XCdc">     29.14822299 </i>
    <i name="pawpsdc">    432.71331193 </i>
    <i name="pawaedc">   -436.93143643 </i>
    <i name="eentropy">     -0.00000000 </i>
    <i name="bandstr">   -109.77197758 </i>
    <i name="atom">    578.13375883 </i>
    <i name="e_fr_energy">     -0.04910333 </i>
    <i name="e_wo_entrp">     -0.04910333 </i>
    <i name="e_0_energy">     -0.04910333 </i>
   </energy>
  </scstep>
  <structure>
   <crystal>
    <varray name="basis" >
     <v>      12.00000000       0.00000000       0.00000000 </v>
     <v>       0.00000000      12.00000000       0.00000000 </v>
     <v>       0.00000000       0.00000000      12.00000000 </v>
    </varray>
    <i name="volume">   1728.00000000 </i>
    <varray name="rec_basis" >
     <v>       0.08333333       0.00000000       0.00000000 </v>
     <v>       0.00000000       0.08333333       0.00000000 </v>
     <v>       0.00000000       0.00000000       0.08333333 </v>
    </varray>
   </crystal>
   <varray name="positions" >
    <v>       0.50000000       0.50000000       0.50000000 </v>
   </varray>
  </structure>
  <varray name="forces" >
   <v>       0.00000000       0.00000000       0.00000000 </v>
  </varray>
  <varray name="stress" >
   <v>      -3.63145878      -0.00000000      -0.00000000 </v>
   <v>       0.00000000      -3.63145878      -0.00000000 </v>
   <v>       0.00000000      -0.00000000      -3.63145878 </v>
  </varray>
  <energy>
   <i name="e_fr_energy">     -0.04910333 </i>
   <i name="e_wo_entrp">     -0.04910333 </i>
   <i name="e_0_energy">     -0.00000000 </i>
  </energy>
  <time name="totalsc">    0.56    0.61</time>
  <eigenvalues>
   <array>
    <dimension dim="1">band</dimension>
    <dimension dim="2">kpoint</dimension>
    <dimension dim="3">spin</dimension>
    <field>eigene</field>
    <field>occ</field>
    <set>
     <set comment="spin 1">
      <set comment="kpoint 1">
       <r>  -24.3577    1.0000 </r>
       <r>  -10.1761    1.0000 </r>
       <r>  -10.1761    1.0000 </r>
       <r>  -10.1761    1.0000 </r>
       <r>   -0.3411    0.0000 </r>
       <r>    0.6137    0.0000 </r>
       <r>    0.8683    0.0000 </r>
       <r>    0.8683    0.0000 </r>
      </set>
     </set>
    </set>
   </array>
  </eigenvalues>
  <separator name="orbital magnetization" >
   <v name="MAGDIPOLOUT">      0.00000000      0.00000000      0.00000000</v>
  </separator>
  <dos>
   <i name="efermi">    -10.12600291 </i>
   <total>
    <array>
     <dimension dim="1">gridpoints</dimension>
     <dimension dim="2">spin</dimension>
     <field>energy</field>
     <field>total</field>
     <field>integrated</field>
     <set>
      <set comment="spin 1">
       <r>   -25.6190     0.0000     0.0000 </r>
       <r>   -25.5265     0.0000     0.0000 </r>
       <r>   -25.4340     0.0000     0.0000 </r>
       <r>   -25.3415     0.0000     0.0000 </r>
       <r>   -25.2490     0.0000     0.0000 </r>
       <r>   -25.1565     0.0000     0.0000 </r>
       <r>   -25.0640     0.0000     0.0000 </r>
       <r>   -24.9715     0.0000     0.0000 </r>
       <r>   -24.8790     0.0000     0.0000 </r>
       <r>   -24.7865     0.0000     0.0000 </r>
       <r>   -24.6940     0.0000     0.0000 </r>
       <r>   -24.6015     0.0000     0.0000 </r>
       <r>   -24.5090     0.0000     0.0000 </r>
       <r>   -24.4165     0.0000     0.0000 </r>
       <r>   -24.3240    21.6227     2.0000 </r>
       <r>   -24.2315     0.0000     2.0000 </r>
       <r>   -24.1390     0.0000     2.0000 </r>
       <r>   -24.0466     0.0000     2.0000 </r>
       <r>   -23.9541     0.0000     2.0000 </r>
       <r>   -23.8616     0.0000     2.0000 </r>
       <r>   -23.7691     0.0000     2.0000 </r>
       <r>   -23.6766     0.0000     2.0000 </r>
       <r>   -23.5841     0.0000     2.0000 </r>
       <r>   -23.4916     0.0000     2.0000 </r>
       <r>   -23.3991     0.0000     2.0000 </r>
       <r>   -23.3066     0.0000     2.0000 </r>
       <r>   -23.2141     0.0000     2.0000 </r>
       <r>   -23.1216     0.0000     2.0000 </r>
       <r>   -23.0291     0.0000     2.0000 </r>
       <r>   -22.9366     0.0000     2.0000 </r>
       <r>   -22.8441     0.0000     2.0000 </r>
       <r>   -22.7516     0.0000     2.0000 </r>
       <r>   -22.6591     0.0000     2.0000 </r>
       <r>   -22.5666     0.0000     2.0000 </r>
       <r>   -22.4741     0.0000     2.0000 </r>
       <r>   -22.3816     0.0000     2.0000 </r>
       <r>   -22.2891     0.0000     2.0000 </r>
       <r>   -22.1966     0.0000     2.0000 </r>
       <r>   -22.1042     0.0000     2.0000 </r>
       <r>   -22.0117     0.0000     2.0000 </r>
       <r>   -21.9192     0.0000     2.0000 </r>
       <r>   -21.8267     0.0000     2.0000 </r>
       <r>   -21.7342     0.0000     2.0000 </r>
       <r>   -21.6417     0.0000     2.0000 </r>
       <r>   -21.5492     0.0000     2.0000 </r>
       <r>   -21.4567     0.0000     2.0000 </r>
       <r>   -21.3642     0.0000     2.0000 </r>
       <r>   -21.2717     0.0000     2.0000 </r>
       <r>   -21.1792     0.0000     2.0000 </r>
       <r>   -21.0867     0.0000     2.0000 </r>
       <r>   -20.9942     0.0000     2.0000 </r>
       <r>   -20.9017     0.0000     2.0000 </r>
       <r>   -20.8092     0.0000     2.0000 </r>
       <r>   -20.7167     0.0000     2.0000 </r>
       <r>   -20.6242     0.0000     2.0000 </r>
       <r>   -20.5317     0.0000     2.0000 </r>
       <r>   -20.4392     0.0000     2.0000 </r>
       <r>   -20.3467     0.0000     2.0000 </r>
       <r>   -20.2542     0.0000     2.0000 </r>
       <r>   -20.1617     0.0000     2.0000 </r>
       <r>   -20.0693     0.0000     2.0000 </r>
       <r>   -19.9768     0.0000     2.0000 </r>
       <r>   -19.8843     0.0000     2.0000 </r>
       <r>   -19.7918     0.0000     2.0000 </r>
       <r>   -19.6993     0.0000     2.0000 </r>
       <r>   -19.6068     0.0000     2.0000 </r>
       <r>   -19.5143     0.0000     2.0000 </r>
       <r>   -19.4218     0.0000     2.0000 </r>
       <r>   -19.3293     0.0000     2.0000 </r>
       <r>   -19.2368     0.0000     2.0000 </r>
       <r>   -19.1443     0.0000     2.0000 </r>
       <r>   -19.0518     0.0000     2.0000 </r>
       <r>   -18.9593     0.0000     2.0000 </r>
       <r>   -18.8668     0.0000     2.0000 </r>
       <r>   -18.7743     0.0000     2.0000 </r>
       <r>   -18.6818     0.0000     2.0000 </r>
       <r>   -18.5893     0.0000     2.0000 </r>
       <r>   -18.4968     0.0000     2.0000 </r>
       <r>   -18.4043     0.0000     2.0000 </r>
       <r>   -18.3118     0.0000     2.0000 </r>
       <r>   -18.2193     0.0000     2.0000 </r>
       <r>   -18.1269     0.0000     2.0000 </r>
       <r>   -18.0344     0.0000     2.0000 </r>
       <r>   -17.9419     0.0000     2.0000 </r>
       <r>   -17.8494     0.0000     2.0000 </r>
       <r>   -17.7569     0.0000     2.0000 </r>
       <r>   -17.6644     0.0000     2.0000 </r>
       <r>   -17.5719     0.0000     2.0000 </r>
       <r>   -17.4794     0.0000     2.0000 </r>
       <r>   -17.3869     0.0000     2.0000 </r>
       <r>   -17.2944     0.0000     2.0000 </r>
       <r>   -17.2019     0.0000     2.0000 </r>
       <r>   -17.1094     0.0000     2.0000 </r>
       <r>   -17.0169     0.0000     2.0000 </r>
       <r>   -16.9244     0.0000     2.0000 </r>
       <r>   -16.8319     0.0000     2.0000 </r>
       <r>   -16.7394     0.0000     2.0000 </r>
       <r>   -16.6469     0.0000     2.0000 </r>
       <r>   -16.5544     0.0000     2.0000 </r>
       <r>   -16.4619     0.0000     2.0000 </r>
       <r>   -16.3694     0.0000     2.0000 </r>
       <r>   -16.2769     0.0000     2.0000 </r>
       <r>   -16.1844     0.0000     2.0000 </r>
       <r>   -16.0920     0.0000     2.0000 </r>
       <r>   -15.9995     0.0000     2.0000 </r>
       <r>   -15.9070     0.0000     2.0000 </r>
       <r>   -15.8145     0.0000     2.0000 </r>
       <r>   -15.7220     0.0000     2.0000 </r>
       <r>   -15.6295     0.0000     2.0000 </r>
       <r>   -15.5370     0.0000     2.0000 </r>
       <r>   -15.4445     0.0000     2.0000 </r>
       <r>   -15.3520     0.0000     2.0000 </r>
       <r>   -15.2595     0.0000     2.0000 </r>
       <r>   -15.1670     0.0000     2.0000 </r>
       <r>   -15.0745     0.0000     2.0000 </r>
       <r>   -14.9820     0.0000     2.0000 </r>
       <r>   -14.8895     0.0000     2.0000 </r>
       <r>   -14.7970     0.0000     2.0000 </r>
       <r>   -14.7045     0.0000     2.0000 </r>
       <r>   -14.6120     0.0000     2.0000 </r>
       <r>   -14.5195     0.0000     2.0000 </r>
       <r>   -14.4270     0.0000     2.0000 </r>
       <r>   -14.3345     0.0000     2.0000 </r>
       <r>   -14.2420     0.0000     2.0000 </r>
       <r>   -14.1496     0.0000     2.0000 </r>
       <r>   -14.0571     0.0000     2.0000 </r>
       <r>   -13.9646     0.0000     2.0000 </r>
       <r>   -13.8721     0.0000     2.0000 </r>
       <r>   -13.7796     0.0000     2.0000 </r>
       <r>   -13.6871     0.0000     2.0000 </r>
       <r>   -13.5946     0.0000     2.0000 </r>
       <r>   -13.5021     0.0000     2.0000 </r>
       <r>   -13.4096     0.0000     2.0000 </r>
       <r>   -13.3171     0.0000     2.0000 </r>
       <r>   -13.2246     0.0000     2.0000 </r>
       <r>   -13.1321     0.0000     2.0000 </r>
       <r>   -13.0396     0.0000     2.0000 </r>
       <r>   -12.9471     0.0000     2.0000 </r>
       <r>   -12.8546     0.0000     2.0000 </r>
       <r>   -12.7621     0.0000     2.0000 </r>
       <r>   -12.6696     0.0000     2.0000 </r>
       <r>   -12.5771     0.0000     2.0000 </r>
       <r>   -12.4846     0.0000     2.0000 </r>
       <r>   -12.3921     0.0000     2.0000 </r>
       <r>   -12.2996     0.0000     2.0000 </r>
       <r>   -12.2071     0.0000     2.0000 </r>
       <r>   -12.1147     0.0000     2.0000 </r>
       <r>   -12.0222     0.0000     2.0000 </r>
       <r>   -11.9297     0.0000     2.0000 </r>
       <r>   -11.8372     0.0000     2.0000 </r>
       <r>   -11.7447     0.0000     2.0000 </r>
       <r>   -11.6522     0.0000     2.0000 </r>
       <r>   -11.5597     0.0000     2.0000 </r>
       <r>   -11.4672     0.0000     2.0000 </r>
       <r>   -11.3747     0.0000     2.0000 </r>
       <r>   -11.2822     0.0000     2.0000 </r>
       <r>   -11.1897     0.0000     2.0000 </r>
       <r>   -11.0972     0.0000     2.0000 </r>
       <r>   -11.0047     0.0000     2.0000 </r>
       <r>   -10.9122     0.0000     2.0000 </r>
       <r>   -10.8197     0.0000     2.0000 </r>
       <r>   -10.7272     0.0000     2.0000 </r>
       <r>   -10.6347     0.0000     2.0000 </r>
       <r>   -10.5422     0.0000     2.0000 </r>
       <r>   -10.4497     0.0000     2.0000 </r>
       <r>   -10.3572     0.0000     2.0000 </r>
       <r>   -10.2647     0.0000     2.0000 </r>
       <r>   -10.1723    45.8710     6.2429 </r>
       <r>   -10.0798     0.0000     8.0000 </r>
       <r>    -9.9873     0.0000     8.0000 </r>
       <r>    -9.8948     0.0000     8.0000 </r>
       <r>    -9.8023     0.0000     8.0000 </r>
       <r>    -9.7098     0.0000     8.0000 </r>
       <r>    -9.6173     0.0000     8.0000 </r>
       <r>    -9.5248     0.0000     8.0000 </r>
       <r>    -9.4323     0.0000     8.0000 </r>
       <r>    -9.3398     0.0000     8.0000 </r>
       <r>    -9.2473     0.0000     8.0000 </r>
       <r>    -9.1548     0.0000     8.0000 </r>
       <r>    -9.0623     0.0000     8.0000 </r>
       <r>    -8.9698     0.0000     8.0000 </r>
       <r>    -8.8773     0.0000     8.0000 </r>
       <r>    -8.7848     0.0000     8.0000 </r>
       <r>    -8.6923     0.0000     8.0000 </r>
       <r>    -8.5998     0.0000     8.0000 </r>
       <r>    -8.5073     0.0000     8.0000 </r>
       <r>    -8.4148     0.0000     8.0000 </r>
       <r>    -8.3223     0.0000     8.0000 </r>
       <r>    -8.2298     0.0000     8.0000 </r>
       <r>    -8.1374     0.0000     8.0000 </r>
       <r>    -8.0449     0.0000     8.0000 </r>
       <r>    -7.9524     0.0000     8.0000 </r>
       <r>    -7.8599     0.0000     8.0000 </r>
       <r>    -7.7674     0.0000     8.0000 </r>
       <r>    -7.6749     0.0000     8.0000 </r>
       <r>    -7.5824     0.0000     8.0000 </r>
       <r>    -7.4899     0.0000     8.0000 </r>
       <r>    -7.3974     0.0000     8.0000 </r>
       <r>    -7.3049     0.0000     8.0000 </r>
       <r>    -7.2124     0.0000     8.0000 </r>
       <r>    -7.1199     0.0000     8.0000 </r>
       <r>    -7.0274     0.0000     8.0000 </r>
       <r>    -6.9349     0.0000     8.0000 </r>
       <r>    -6.8424     0.0000     8.0000 </r>
       <r>    -6.7499     0.0000     8.0000 </r>
       <r>    -6.6574     0.0000     8.0000 </r>
       <r>    -6.5649     0.0000     8.0000 </r>
       <r>    -6.4724     0.0000     8.0000 </r>
       <r>    -6.3799     0.0000     8.0000 </r>
       <r>    -6.2874     0.0000     8.0000 </r>
       <r>    -6.1950     0.0000     8.0000 </r>
       <r>    -6.1025     0.0000     8.0000 </r>
       <r>    -6.0100     0.0000     8.0000 </r>
       <r>    -5.9175     0.0000     8.0000 </r>
       <r>    -5.8250     0.0000     8.0000 </r>
       <r>    -5.7325     0.0000     8.0000 </r>
       <r>    -5.6400     0.0000     8.0000 </r>
       <r>    -5.5475     0.0000     8.0000 </r>
       <r>    -5.4550     0.0000     8.0000 </r>
       <r>    -5.3625     0.0000     8.0000 </r>
       <r>    -5.2700     0.0000     8.0000 </r>
       <r>    -5.1775     0.0000     8.0000 </r>
       <r>    -5.0850     0.0000     8.0000 </r>
       <r>    -4.9925     0.0000     8.0000 </r>
       <r>    -4.9000     0.0000     8.0000 </r>
       <r>    -4.8075     0.0000     8.0000 </r>
       <r>    -4.7150     0.0000     8.0000 </r>
       <r>    -4.6225     0.0000     8.0000 </r>
       <r>    -4.5300     0.0000     8.0000 </r>
       <r>    -4.4375     0.0000     8.0000 </r>
       <r>    -4.3450     0.0000     8.0000 </r>
       <r>    -4.2525     0.0000     8.0000 </r>
       <r>    -4.1601     0.0000     8.0000 </r>
       <r>    -4.0676     0.0000     8.0000 </r>
       <r>    -3.9751     0.0000     8.0000 </r>
       <r>    -3.8826     0.0000     8.0000 </r>
       <r>    -3.7901     0.0000     8.0000 </r>
       <r>    -3.6976     0.0000     8.0000 </r>
       <r>    -3.6051     0.0000     8.0000 </r>
       <r>    -3.5126     0.0000     8.0000 </r>
       <r>    -3.4201     0.0000     8.0000 </r>
       <r>    -3.3276     0.0000     8.0000 </r>
       <r>    -3.2351     0.0000     8.0000 </r>
       <r>    -3.1426     0.0000     8.0000 </r>
       <r>    -3.0501     0.0000     8.0000 </r>
       <r>    -2.9576     0.0000     8.0000 </r>
       <r>    -2.8651     0.0000     8.0000 </r>
       <r>    -2.7726     0.0000     8.0000 </r>
       <r>    -2.6801     0.0000     8.0000 </r>
       <r>    -2.5876     0.0000     8.0000 </r>
       <r>    -2.4951     0.0000     8.0000 </r>
       <r>    -2.4026     0.0000     8.0000 </r>
       <r>    -2.3101     0.0000     8.0000 </r>
       <r>    -2.2177     0.0000     8.0000 </r>
       <r>    -2.1252     0.0000     8.0000 </r>
       <r>    -2.0327     0.0000     8.0000 </r>
       <r>    -1.9402     0.0000     8.0000 </r>
       <r>    -1.8477     0.0000     8.0000 </r>
       <r>    -1.7552     0.0000     8.0000 </r>
       <r>    -1.6627     0.0000     8.0000 </r>
       <r>    -1.5702     0.0000     8.0000 </r>
       <r>    -1.4777     0.0000     8.0000 </r>
       <r>    -1.3852     0.0000     8.0000 </r>
       <r>    -1.2927     0.0000     8.0000 </r>
       <r>    -1.2002     0.0000     8.0000 </r>
       <r>    -1.1077     0.0000     8.0000 </r>
       <r>    -1.0152     0.0000     8.0000 </r>
       <r>    -0.9227     0.0000     8.0000 </r>
       <r>    -0.8302     0.0000     8.0000 </r>
       <r>    -0.7377     0.0000     8.0000 </r>
       <r>    -0.6452     0.0000     8.0000 </r>
       <r>    -0.5527     0.0000     8.0000 </r>
       <r>    -0.4602     0.0000     8.0000 </r>
       <r>    -0.3677     0.0017     8.0002 </r>
       <r>    -0.2752    21.6210    10.0000 </r>
       <r>    -0.1828     0.0000    10.0000 </r>
       <r>    -0.0903     0.0000    10.0000 </r>
       <r>     0.0022     0.0000    10.0000 </r>
       <r>     0.0947     0.0000    10.0000 </r>
       <r>     0.1872     0.0000    10.0000 </r>
       <r>     0.2797     0.0000    10.0000 </r>
       <r>     0.3722     0.0000    10.0000 </r>
       <r>     0.4647     0.0000    10.0000 </r>
       <r>     0.5572     0.0000    10.0000 </r>
       <r>     0.6497    21.6227    12.0000 </r>
       <r>     0.7422     0.0000    12.0000 </r>
       <r>     0.8347     0.0000    12.0000 </r>
       <r>     0.9272    43.2454    16.0000 </r>
       <r>     1.0197     0.0000    16.0000 </r>
       <r>     1.1122     0.0000    16.0000 </r>
       <r>     1.2047     0.0000    16.0000 </r>
       <r>     1.2972     0.0000    16.0000 </r>
       <r>     1.3897     0.0000    16.0000 </r>
       <r>     1.4822     0.0000    16.0000 </r>
       <r>     1.5747     0.0000    16.0000 </r>
       <r>     1.6672     0.0000    16.0000 </r>
       <r>     1.7597     0.0000    16.0000 </r>
       <r>     1.8521     0.0000    16.0000 </r>
       <r>     1.9446     0.0000    16.0000 </r>
       <r>     2.0371     0.0000    16.0000 </r>
       <r>     2.1296     0.0000    16.0000 </r>
      </set>
     </set>
    </array>
   </total>
  </dos>
 </calculation>
 <structure name="finalpos" >
  <crystal>
   <varray name="basis" >
    <v>      12.00000000       0.00000000       0.00000000 </v>
    <v>       0.00000000      12.00000000       0.00000000 </v>
    <v>       0.00000000       0.00000000      12.00000000 </v>
   </varray>
   <i name="volume">   1728.00000000 </i>
   <varray name="rec_basis" >
    <v>       0.08333333       0.00000000       0.00000000 </v>
    <v>       0.00000000       0.08333333       0.00000000 </v>
    <v>       0.00000000       0.00000000       0.08333333 </v>
   </varray>
  </crystal>
  <varray name="positions" >
   <v>       0.50000000       0.50000000       0.50000000 </v>
  </varray>
 </structure>
</modeling>
