----- GAMESS execution script 'rungms' -----
This job is running on host crcfe02.crc.nd.edu
under operating system Linux at Sun Sep 29 10:48:02 EDT 2019
Available scratch disk space (Kbyte units) at beginning of the job is
Filesystem      1K-blocks  Used  Available Use% Mounted on
AFS            2147483647     0 2147483647   0% /afs
GAMESS temporary binary files will be written to /afs/crc.nd.edu/user/c/cdrisko
GAMESS supplementary output files will be written to /afs/crc.nd.edu/user/c/cdrisko/scr
Copying input file SO2.inp to your run's scratch directory...

 Distributed Data Interface kickoff program.
 Initiating 1 compute processes on 1 nodes to run the following command:
 /afs/crc.nd.edu/x86_64_linux/g/gamess/nov-2017/gamess/gamess.00.x SO2 

          ******************************************************
          *         GAMESS VERSION = 11 NOV 2017 (R3)         *
          *             FROM IOWA STATE UNIVERSITY             *
          * M.W.SCHMIDT, K.K.BALDRIDGE, J.A.BOATZ, S.T.ELBERT, *
          *   M.S.GORDON, J.H.JENSEN, S.KOSEKI, N.MATSUNAGA,   *
          *          K.A.NGUYEN, S.J.SU, T.L.WINDUS,           *
          *       TOGETHER WITH M.DUPUIS, J.A.MONTGOMERY       *
          *         J.COMPUT.CHEM.  14, 1347-1363(1993)        *
          **************** 64 BIT INTEL VERSION ****************

  SINCE 1993, STUDENTS AND POSTDOCS WORKING AT IOWA STATE UNIVERSITY
  AND ALSO IN THEIR VARIOUS JOBS AFTER LEAVING ISU HAVE MADE IMPORTANT
  CONTRIBUTIONS TO THE CODE:
     IVANA ADAMOVIC, CHRISTINE AIKENS, YURI ALEXEEV, POOJA ARORA,
     ANDREY ASADCHEV, ROB BELL, PRADIPTA BANDYOPADHYAY, JONATHAN BENTZ,
     BRETT BODE, KURT BRORSEN, CALEB CARLIN, GALINA CHABAN, WEI CHEN,
     CHEOL HO CHOI, PAUL DAY, ALBERT DEFUSCO, NUWAN DESILVA, TIM DUDLEY,
     DMITRI FEDOROV, ALEX FINDLATER, GRAHAM FLETCHER, MARK FREITAG,
     KURT GLAESEMANN, ANASTASIA GUININA,
     DAN KEMP, GRANT MERRILL, NORIYUKI MINEZAWA, JONATHAN MULLIN,
     TAKESHI NAGATA, SEAN NEDD, HEATHER NETZLOFF, BOSILJKA NJEGIC, RYAN OLSON,
     MIKE PAK, BUU PHAM,
     SPENCER PRUITT, LUKE ROSKOP, JIM SHOEMAKER, LYUDMILA SLIPCHENKO,
     TONY SMITH, SAROM SOK LEANG, JIE SONG, TETSUYA TAKETSUGU, SIMON WEBB,
     PENG XU, SOOHAENG YOO, FEDERICO ZAHARIEV

  ADDITIONAL CODE HAS BEEN PROVIDED BY COLLABORATORS IN OTHER GROUPS:
     IOWA STATE UNIVERSITY:
          JOE IVANIC, AARON WEST, LAIMUTIS BYTAUTAS, KLAUS RUEDENBERG
     UNIVERSITY OF TOKYO: KIMIHIKO HIRAO, TAKAHITO NAKAJIMA,
          TAKAO TSUNEDA, MUNEAKI KAMIYA, SUSUMU YANAGISAWA,
          KIYOSHI YAGI, MAHITO CHIBA, SEIKEN TOKURA, NAOAKI KAWAKAMI
     UNIVERSITY OF AARHUS: FRANK JENSEN
     UNIVERSITY OF IOWA: VISVALDAS KAIRYS, HUI LI
     NATIONAL INST. OF STANDARDS AND TECHNOLOGY: WALT STEVENS, DAVID GARMER
     UNIVERSITY OF PISA: BENEDETTA MENNUCCI, JACOPO TOMASI
     UNIVERSITY OF MEMPHIS: HENRY KURTZ, PRAKASHAN KORAMBATH
     UNIVERSITY OF ALBERTA: TOBY ZENG, MARIUSZ KLOBUKOWSKI
     UNIVERSITY OF NEW ENGLAND: MARK SPACKMAN
     MIE UNIVERSITY: HIROAKI UMEDA
     NAT. INST. OF ADVANCED INDUSTRIAL SCIENCE AND TECHNOLOGY: KAZUO KITAURA
     MICHIGAN STATE UNIVERSITY:
          KAROL KOWALSKI, MARTA WLOCH, JEFFREY GOUR, JESSE LUTZ,
          WEI LI, PIOTR PIECUCH
     UNIVERSITY OF SILESIA: MONIKA MUSIAL, STANISLAW KUCHARSKI
     FACULTES UNIVERSITAIRES NOTRE-DAME DE LA PAIX:
          OLIVIER QUINET, BENOIT CHAMPAGNE
     UNIVERSITY OF CALIFORNIA - SANTA BARBARA: BERNARD KIRTMAN
     INSTITUTE FOR MOLECULAR SCIENCE:
          KAZUYA ISHIMURA, MICHIO KATOUDA, AND SHIGERU NAGASE
     UNIVERSITY OF NOTRE DAME: ANNA POMOGAEVA, DAN CHIPMAN
     KYUSHU UNIVERSITY:
          HARUYUKI NAKANO,
          FENG LONG GU, JACEK KORCHOWIEC, MARCIN MAKOWSKI, AND YURIKO AOKI,
          HIROTOSHI MORI AND EISAKU MIYOSHI
     PENNSYLVANIA STATE UNIVERSITY:
          TZVETELIN IORDANOV, CHET SWALINA, JONATHAN SKONE,
          SHARON HAMMES-SCHIFFER
     WASEDA UNIVERSITY:
          MASATO KOBAYASHI, TOMOKO AKAMA, TSUGUKI TOUMA,
          TAKESHI YOSHIKAWA, YASUHIRO IKABATA, JUNJI SEINO,
          YUYA NAKAJIMA, HIROMI NAKAI
     NANJING UNIVERSITY: SHUHUA LI
     UNIVERSITY OF NEBRASKA:
          PEIFENG SU, DEJUN SI, NANDUN THELLAMUREGE, YALI WANG, HUI LI
     UNIVERSITY OF ZURICH: ROBERTO PEVERATI, KIM BALDRIDGE
     N. COPERNICUS UNIVERSITY AND JACKSON STATE UNIVERSITY:
          MARIA BARYSZ
     UNIVERSITY OF COPENHAGEN: Jimmy Kromann, CASPER STEINMANN
     TOKYO INSTITUTE OF TECHNOLOGY: HIROYA NAKATA
     NAGOYA UNIVERSITY: YOSHIO NISHIMOTO, STEPHAN IRLE
     MOSCOW STATE UNIVERSITY: VLADIMIR MIRONOV

 EXECUTION OF GAMESS BEGUN Sun Sep 29 10:48:02 2019

            ECHO OF THE FIRST FEW INPUT CARDS -
 INPUT CARD> $BASIS GBASIS=PCSEG-1 $END                                                     
 INPUT CARD> $CONTRL COORD=ZMT ISPHER=1 RUNTYP=ENERGY DFTTYP=PBE MULT=1 $END                
 INPUT CARD>                                                                                
 INPUT CARD> $DATA                                                                          
 INPUT CARD>Title SO2 single-point calculation template with Z-Matrix                       
 INPUT CARD>C1                                                                              
 INPUT CARD>S                                                                               
 INPUT CARD>O 1 1.50                                                                        
 INPUT CARD>O 1 1.50 2 90                                                                   
 INPUT CARD> $END                                                                           
    1000000 WORDS OF MEMORY AVAILABLE

     BASIS OPTIONS
     -------------
     GBASIS=PCSEG-1      IGAUSS=       0      POLAR=NONE    
     NDFUNC=       0     NFFUNC=       0     DIFFSP=       F
     NPFUNC=       0      DIFFS=       F     BASNAM=        


     RUN TITLE
     ---------
 Title SO2 single-point calculation template with Z-Matrix                       

 THE POINT GROUP OF THE MOLECULE IS C1      
 THE ORDER OF THE PRINCIPAL AXIS IS     0

 YOUR FULLY SUBSTITUTED Z-MATRIX IS
 S   
 O      1   1.5000000
 O      1   1.5000000  2   90.0000

 THE MOMENTS OF INERTIA ARE (AMU-ANGSTROM**2)
 IXX=    17.989   IYY=    35.989   IZZ=    53.978

 ATOM      ATOMIC                      COORDINATES (BOHR)
           CHARGE         X                   Y                   Z
 S          16.0     0.0000000000       -1.0024566589        0.0000000000
 O           8.0     2.0043570908        1.0019004318        0.0000000000
 O           8.0    -2.0043570908        1.0019004318        0.0000000000

          INTERNUCLEAR DISTANCES (ANGS.)
          ------------------------------

                1 S          2 O          3 O     

   1 S       0.0000000    1.5000000 *  1.5000000 *
   2 O       1.5000000 *  0.0000000    2.1213203 *
   3 O       1.5000000 *  2.1213203 *  0.0000000  

  * ... LESS THAN  3.000


     ATOMIC BASIS SET
     ----------------
 THE CONTRACTED PRIMITIVE FUNCTIONS HAVE BEEN UNNORMALIZED
 THE CONTRACTED BASIS FUNCTIONS ARE NOW NORMALIZED TO UNITY

  SHELL TYPE  PRIMITIVE        EXPONENT          CONTRACTION COEFFICIENT(S)

 S         

      1   S       1         49299.4000000    0.000677492991
      1   S       2          7395.8400000    0.005232317766
      1   S       3          1683.3000000    0.026769459077
      1   S       4           476.1440000    0.102869580705
      1   S       5           154.3290000    0.286438127414
      1   S       6            55.0288000    0.454278639081
      1   S       7            20.5029000    0.271743121997

      2   S       8            45.9596000   -0.088421914560
      2   S       9             4.9274000    0.564350486135
      2   S      10             1.9179900    0.505415953466

      3   S      11             0.3684980    1.000000000000

      4   S      12             0.1291650    1.000000000000

      5   P      13           451.6620000    0.003707705453
      5   P      14           106.0980000    0.029219352245
      5   P      15            33.6996000    0.124444551509
      5   P      16            12.3054000    0.321808587656
      5   P      17             4.7141200    0.462822172957
      5   P      18             1.7810500    0.266513371364

      6   P      19             0.8722350    0.349265132972
      6   P      20             0.3102780    0.717115018770

      7   P      21             0.1001940    1.000000000000

      8   D      22             0.5500000    1.000000000000

 O         

      9   S      23          2288.6400000    0.005451138222
      9   S      24           344.4160000    0.040718922842
      9   S      25            78.2538000    0.181369420873
      9   S      26            21.7195000    0.465536820246
      9   S      27             6.5590700    0.451211321214

     10   S      28            10.4656000   -0.150211201174
     10   S      29             0.9643510    1.052867983385

     11   S      30             0.2851270    1.000000000000

     12   P      31            17.0590000    0.068749256972
     12   P      32             3.6899900    0.351671941499
     12   P      33             0.9929960    0.724532099722

     13   P      34             0.2449240    1.000000000000

     14   D      35             1.0000000    1.000000000000

 O         

     15   S      36          2288.6400000    0.005451138222
     15   S      37           344.4160000    0.040718922842
     15   S      38            78.2538000    0.181369420873
     15   S      39            21.7195000    0.465536820246
     15   S      40             6.5590700    0.451211321214

     16   S      41            10.4656000   -0.150211201174
     16   S      42             0.9643510    1.052867983385

     17   S      43             0.2851270    1.000000000000

     18   P      44            17.0590000    0.068749256972
     18   P      45             3.6899900    0.351671941499
     18   P      46             0.9929960    0.724532099722

     19   P      47             0.2449240    1.000000000000

     20   D      48             1.0000000    1.000000000000

 TOTAL NUMBER OF BASIS SET SHELLS             =   20
 NUMBER OF CARTESIAN GAUSSIAN BASIS FUNCTIONS =   49
 NOTE: THIS RUN WILL RESTRICT THE MO VARIATION SPACE TO SPHERICAL HARMONICS.
 THE NUMBER OF ORBITALS KEPT IN THE VARIATIONAL SPACE WILL BE PRINTED LATER.
 NUMBER OF ELECTRONS                          =   32
 CHARGE OF MOLECULE                           =    0
 SPIN MULTIPLICITY                            =    1
 NUMBER OF OCCUPIED ORBITALS (ALPHA)          =   16
 NUMBER OF OCCUPIED ORBITALS (BETA )          =   16
 TOTAL NUMBER OF ATOMS                        =    3
 THE NUCLEAR REPULSION ENERGY IS      106.2781362495

     LEBEDEV GRID-BASED DFT OPTIONS
     ------------------------------
     DFTTYP=PBE     
     NRAD  =      96     NLEB  =     302
     NRAD0 =      24     NLEB0 =     110
     SWOFF =    5.00E-03 (PURE SCF -> DFT)
     SWITCH=    3.00E-04 (COARSE -> TIGHT GRID)
     THRESH=    0.00E+00 GTHRE=    1.00E+00

 GRIMME'S EMPIRICAL DISPERSION CORRECTION= F

     $CONTRL OPTIONS
     ---------------
 SCFTYP=RHF          RUNTYP=ENERGY       EXETYP=RUN     
 MPLEVL=       0     CITYP =NONE         CCTYP =NONE         VBTYP =NONE    
 DFTTYP=PBE          TDDFT =NONE    
 MULT  =       1     ICHARG=       0     NZVAR =       0     COORD =ZMT     
 PP    =NONE         RELWFN=NONE         LOCAL =NONE         NUMGRD=       F
 ISPHER=       1     NOSYM =       0     MAXIT =      30     UNITS =ANGS    
 PLTORB=       F     MOLPLT=       F     AIMPAC=       F     FRIEND=        
 NPRINT=       7     IREST =       0     GEOM  =INPUT   
 NORMF =       0     NORMP =       0     ITOL  =      20     ICUT  =       9
 INTTYP=BEST         GRDTYP=BEST         QMTTOL= 1.0E-06

     $SYSTEM OPTIONS
     ---------------
  REPLICATED MEMORY=     1000000 WORDS (ON EVERY NODE).
 DISTRIBUTED MEMDDI=           0 MILLION WORDS IN AGGREGATE,
 MEMDDI DISTRIBUTED OVER   1 PROCESSORS IS           0 WORDS/PROCESSOR.
 TOTAL MEMORY REQUESTED ON EACH PROCESSOR=     1000000 WORDS.
 TIMLIM=      525600.00 MINUTES, OR     365.0 DAYS.
 PARALL= F  BALTYP=  DLB     KDIAG=    0  COREFL= F
 MXSEQ2=     300 MXSEQ3=     150  mem10=         0

          ----------------
          PROPERTIES INPUT
          ----------------

     MOMENTS            FIELD           POTENTIAL          DENSITY
 IEMOM =       1   IEFLD =       0   IEPOT =       0   IEDEN =       0
 WHERE =COMASS     WHERE =NUCLEI     WHERE =NUCLEI     WHERE =NUCLEI  
 OUTPUT=BOTH       OUTPUT=BOTH       OUTPUT=BOTH       OUTPUT=BOTH    
 IEMINT=       0   IEFINT=       0                     IEDINT=       0
                                                       MORB  =       0
          EXTRAPOLATION IN EFFECT
          DIIS IN EFFECT
 ORBITAL PRINTING OPTION: NPREO=     1    49     2     1

     -------------------------------
     INTEGRAL TRANSFORMATION OPTIONS
     -------------------------------
     NWORD  =            0
     CUTOFF = 1.0E-09     MPTRAN =       0
     DIRTRF =       F     AOINTS =DUP     

          ----------------------
          INTEGRAL INPUT OPTIONS
          ----------------------
 NOPK  =       1 NORDER=       0 SCHWRZ=       F

   --- ENCODED Z MATRIX ---
 COORD  TYPE   I   J   K   L   M   N
    1      1    2   1
    2      1    3   1
    3      2    3   1   2

 THE DETERMINANT OF THE G MATRIX IS 10**(    -4)

 THE DETERMINANT OF THE G MATRIX IS 10**(    -4)
 * * * WARNING * * *
 YOUR B MATRIX HAS A SMALL DETERMINANT.
 THIS SUGGESTS YOU MAY HAVE BADLY CHOSEN COORDINATES.

     ------------------------------------------
     THE POINT GROUP IS C1 , NAXIS= 0, ORDER= 1
     ------------------------------------------

 -- VARIATIONAL SPACE WILL BE RESTRICTED TO PURE SPHERICAL HARMONICS ONLY --
 AFTER EXCLUDING CONTAMINANT COMBINATIONS FROM THE CARTESIAN GAUSSIAN BASIS
 SET, THE NUMBER OF SPHERICAL HARMONICS KEPT IN THE VARIATION SPACE IS   46

     DIMENSIONS OF THE SYMMETRY SUBSPACES ARE
 A   =   46

 ..... DONE SETTING UP THE RUN .....
 STEP CPU TIME =     0.03 TOTAL CPU TIME =          0.0 (      0.0 MIN)
 TOTAL WALL CLOCK TIME=          0.0 SECONDS, CPU UTILIZATION IS    75.00%

          ********************
          1 ELECTRON INTEGRALS
          ********************
 ...... END OF ONE-ELECTRON INTEGRALS ......
 STEP CPU TIME =     0.02 TOTAL CPU TIME =          0.0 (      0.0 MIN)
 TOTAL WALL CLOCK TIME=          0.1 SECONDS, CPU UTILIZATION IS   100.00%

          -------------
          GUESS OPTIONS
          -------------
          GUESS =HUCKEL            NORB  =       0          NORDER=       0
          MIX   =       F          PRTMO =       F          PUNMO =       F
          TOLZ  = 1.0E-08          TOLE  = 1.0E-05
          SYMDEN=       F          PURIFY=       F

 INITIAL GUESS ORBITALS GENERATED BY HUCKEL   ROUTINE.
 HUCKEL GUESS REQUIRES     21634 WORDS.

 STATISTICS FOR GENERATION OF SYMMETRY ORBITAL -Q- MATRIX
 NUMBER OF CARTESIAN ATOMIC ORBITALS=         49
 NUMBER OF SPHERICAL CONTAMINANTS DROPPED=     3
 NUMBER OF LINEARLY DEPENDENT MOS DROPPED=     0
 TOTAL NUMBER OF MOS IN VARIATION SPACE=      46

 SYMMETRIES FOR INITIAL GUESS ORBITALS FOLLOW.   BOTH SET(S).
    16 ORBITALS ARE OCCUPIED (    7 CORE ORBITALS).
     8=A        9=A       10=A       11=A       12=A       13=A       14=A   
    15=A       16=A       17=A       18=A       19=A       20=A       21=A   
    22=A       23=A       24=A       25=A       26=A   
 ...... END OF INITIAL ORBITAL SELECTION ......
 STEP CPU TIME =     0.00 TOTAL CPU TIME =          0.0 (      0.0 MIN)
 TOTAL WALL CLOCK TIME=          0.1 SECONDS, CPU UTILIZATION IS   100.00%

                    ----------------------
                    AO INTEGRAL TECHNOLOGY
                    ----------------------
     S,P,L SHELL ROTATED AXIS INTEGRALS, REPROGRAMMED BY
        KAZUYA ISHIMURA (IMS) AND JOSE SIERRA (SYNSTAR).
     S,P,D,L SHELL ROTATED AXIS INTEGRALS PROGRAMMED BY
        KAZUYA ISHIMURA (INSTITUTE FOR MOLECULAR SCIENCE).
     S,P,D,F,G SHELL TO TOTAL QUARTET ANGULAR MOMENTUM SUM 5,
        ERIC PROGRAM BY GRAHAM FLETCHER (ELORET AND NASA ADVANCED
        SUPERCOMPUTING DIVISION, AMES RESEARCH CENTER).
     S,P,D,F,G,L SHELL GENERAL RYS QUADRATURE PROGRAMMED BY
        MICHEL DUPUIS (PACIFIC NORTHWEST NATIONAL LABORATORY).

          --------------------
          2 ELECTRON INTEGRALS
          --------------------

 THE -PK- OPTION IS OFF, THE INTEGRALS ARE NOT IN SUPERMATRIX FORM.
 STORING   15000 INTEGRALS/RECORD ON DISK, USING 12 BYTES/INTEGRAL.
 TWO ELECTRON INTEGRAL EVALUATION REQUIRES   90606 WORDS OF MEMORY.
 II,JST,KST,LST =  1  1  1  1 NREC =         1 INTLOC =    1
 II,JST,KST,LST =  2  1  1  1 NREC =         1 INTLOC =    2
 II,JST,KST,LST =  3  1  1  1 NREC =         1 INTLOC =    7
 II,JST,KST,LST =  4  1  1  1 NREC =         1 INTLOC =   22
 II,JST,KST,LST =  5  1  1  1 NREC =         1 INTLOC =   56
 II,JST,KST,LST =  6  1  1  1 NREC =         1 INTLOC =  125
 II,JST,KST,LST =  7  1  1  1 NREC =         1 INTLOC =  329
 II,JST,KST,LST =  8  1  1  1 NREC =         1 INTLOC =  776
 II,JST,KST,LST =  9  1  1  1 NREC =         1 INTLOC = 2864
 II,JST,KST,LST = 10  1  1  1 NREC =         1 INTLOC = 4968
 II,JST,KST,LST = 11  1  1  1 NREC =         1 INTLOC = 7634
 II,JST,KST,LST = 12  1  1  1 NREC =         1 INTLOC =10751
 II,JST,KST,LST = 13  1  1  1 NREC =         2 INTLOC = 6676
 II,JST,KST,LST = 14  1  1  1 NREC =         3 INTLOC = 6947
 II,JST,KST,LST = 15  1  1  1 NREC =         6 INTLOC = 8971
 II,JST,KST,LST = 16  1  1  1 NREC =         7 INTLOC = 3114
 II,JST,KST,LST = 17  1  1  1 NREC =         8 INTLOC =  430
 II,JST,KST,LST = 18  1  1  1 NREC =         8 INTLOC =14037
 II,JST,KST,LST = 19  1  1  1 NREC =        11 INTLOC =11371
 II,JST,KST,LST = 20  1  1  1 NREC =        15 INTLOC = 4207
 TOTAL NUMBER OF NONZERO TWO-ELECTRON INTEGRALS =              352041
         24 INTEGRAL RECORDS WERE STORED ON DISK FILE  8.
  ...... END OF TWO-ELECTRON INTEGRALS .....
 STEP CPU TIME =     0.10 TOTAL CPU TIME =          0.2 (      0.0 MIN)
 TOTAL WALL CLOCK TIME=          0.2 SECONDS, CPU UTILIZATION IS    93.75%

          --------------------------
               R-PBE SCF CALCULATION
          --------------------------

     NUCLEAR ENERGY =       106.2781362495
     MAXIT =   30     NPUNCH=    2
     EXTRAP=T  DAMP=F  SHIFT=F  RSTRCT=F  DIIS=T  DEM=F  SOSCF=F
         DENSITY MATRIX CONVERGENCE THRESHOLD=  1.00E-05
     COARSE -> FINE DFT GRID SWITCH THRESHOLD=  3.00E-04 (SWITCH IN $DFT)
                   HF -> DFT SWITCH THRESHOLD=  5.00E-03 (SWOFF IN $DFT)
     MEMORY REQUIRED FOR RHF ITERS=    183108 WORDS.

 DFT CODE IS SWITCHING FROM THE FINE GRID NRAD= 96,  NLEB=  302
                      TO THE COARSE GRID NRAD0= 24, NLEB0=  110

     EXCHANGE FUNCTIONAL   =PBE       
     CORRELATION FUNCTIONAL=PBE       
     DFT THRESHOLD         =.460E-07
     GRID CHANGE THRESHOLD =.300E-03
 FOR AN EULER-MACLAURIN QUADRATURE USING  96 RADIAL POINTS:
 SMALLEST GAUSSIAN PRIMITIVE EXPONENT=        0.1001940000 OF TYPE -P-
 ON ATOM NUMBER   1 HAS RADIAL NORMALIZATION=  1.000000
  LARGEST GAUSSIAN PRIMITIVE EXPONENT=    49299.4000000000 OF TYPE -S-
 ON ATOM NUMBER   1 HAS RADIAL NORMALIZATION=  1.000000
 DFT IS SWITCHED OFF, PERFORMING PURE SCF UNTIL SWOFF THRESHOLD IS REACHED.

 ITER EX DEM     TOTAL ENERGY        E CHANGE  DENSITY CHANGE    DIIS ERROR
   1  0  0     -546.0293431635  -546.0293431635   0.599077928   0.885722524
          * * *   INITIATING DIIS PROCEDURE   * * *
   2  1  0     -546.7664627437    -0.7371195802   0.513709025   0.281483603
   3  2  0     -546.8490271645    -0.0825644208   0.187922504   0.229752735
   4  3  0     -547.0327548018    -0.1837276372   0.019490466   0.010084897
   5  4  0     -547.0332415072    -0.0004867054   0.003742162   0.003236338
 CONVERGED TO SWOFF, SO DFT CALCULATION IS NOW SWITCHED ON.
          * * *   INITIATING DIIS PROCEDURE   * * *
   6  5  0     -548.1897655275    -1.1565240203   0.361167454   0.095084087
   7  6  0     -548.1825190618     0.0072464657   0.313519825   0.112654220
   8  7  0     -548.1915582367    -0.0090391749   0.105805880   0.098504435
   9  8  0     -548.2264373042    -0.0348790675   0.023850360   0.011140211
  10  9  0     -548.2269027748    -0.0004654706   0.002416097   0.000818398
  11 10  0     -548.2269062193    -0.0000034444   0.000406387   0.000502806
  12 11  0     -548.2269067693    -0.0000005500   0.000218219   0.000104515
 DFT CODE IS SWITCHING BACK TO THE FINE GRID
          * * *   INITIATING DIIS PROCEDURE   * * *
  13 12  0     -548.1955535111     0.0313532582   0.010639201   0.010070924
  14 13  0     -548.1958302465    -0.0002767354   0.006940669   0.002041851
  15 14  0     -548.1957653206     0.0000649259   0.007853925   0.004893375
  16 15  0     -548.1958198410    -0.0000545203   0.003980499   0.003182339
  17 16  0     -548.1958423756    -0.0000225346   0.001560620   0.001075289
  18 17  0     -548.1958476958    -0.0000053203   0.000247314   0.000098312
  19 18  0     -548.1958477326    -0.0000000368   0.000031633   0.000011758
  20 19  0     -548.1958477330    -0.0000000004   0.000003483   0.000003119
  21 20  0     -548.1958477331    -0.0000000000   0.000000122   0.000000107

          -----------------
          DENSITY CONVERGED
          -----------------
     TIME TO FORM FOCK OPERATORS=       2.6 SECONDS (       0.1 SEC/ITER)
     TIME TO SOLVE SCF EQUATIONS=       0.0 SECONDS (       0.0 SEC/ITER)

 FINAL R-PBE ENERGY IS     -548.1958477331 AFTER  21 ITERATIONS
 DFT EXCHANGE + CORRELATION ENERGY =       -42.4912335203
 TOTAL ELECTRON NUMBER             =        32.0000726770

          ------------
          EIGENVECTORS
          ------------

                      1          2          3          4          5
                  -88.2243   -18.7796   -18.7796    -7.8437    -5.8687
                     A          A          A          A          A   
    1  S  1  S    0.997752  -0.000001  -0.000034  -0.308368  -0.000000
    2  S  1  S    0.008299   0.000003   0.000163   1.031575   0.000000
    3  S  1  S   -0.003189  -0.000006  -0.000303   0.028344  -0.000000
    4  S  1  S    0.000802   0.000150   0.007971  -0.006075  -0.000000
    5  S  1  X   -0.000000   0.000032  -0.000001  -0.000000   0.994573
    6  S  1  Y    0.000173  -0.000001  -0.000070   0.008361  -0.000002
    7  S  1  Z    0.000000   0.000000   0.000000   0.000000   0.000000
    8  S  1  X    0.000000  -0.001645   0.000031  -0.000000   0.017347
    9  S  1  Y   -0.000614   0.000032   0.001704   0.001271  -0.000000
   10  S  1  Z    0.000000   0.000000   0.000000   0.000000   0.000000
   11  S  1  X    0.000000  -0.002393   0.000045   0.000000  -0.002816
   12  S  1  Y    0.000019   0.000070   0.003719  -0.000273   0.000000
   13  S  1  Z    0.000000   0.000000   0.000000   0.000000   0.000000
   14  S  1 XX   -0.000116   0.000006   0.000297   0.000291  -0.000000
   15  S  1 YY   -0.000098   0.000002   0.000095   0.000088  -0.000000
   16  S  1 ZZ    0.000214  -0.000007  -0.000392  -0.000379   0.000000
   17  S  1 XY    0.000000  -0.000088   0.000002  -0.000000   0.001254
   18  S  1 XZ    0.000000   0.000000   0.000000   0.000000   0.000000
   19  S  1 YZ    0.000000   0.000000   0.000000   0.000000   0.000000
   20  O  2  S   -0.000018  -0.688934   0.715412  -0.000090  -0.000306
   21  O  2  S   -0.000124  -0.023514   0.024302  -0.000241   0.000060
   22  O  2  S    0.000437   0.010730  -0.012448  -0.000103  -0.000787
   23  O  2  X   -0.000062   0.000806  -0.000611   0.000120  -0.000332
   24  O  2  Y   -0.000050   0.000790  -0.000753   0.000095  -0.000285
   25  O  2  Z    0.000000   0.000000   0.000000   0.000000   0.000000
   26  O  2  X   -0.000335  -0.002242   0.001798   0.000586   0.000680
   27  O  2  Y   -0.000371  -0.001643   0.001925   0.000680   0.000841
   28  O  2  Z    0.000000   0.000000   0.000000   0.000000   0.000000
   29  O  2 XX    0.000074   0.000369   0.000148   0.000025   0.000210
   30  O  2 YY    0.000069  -0.000044  -0.000154   0.000038   0.000159
   31  O  2 ZZ   -0.000143  -0.000325   0.000005  -0.000064  -0.000369
   32  O  2 XY    0.000257   0.000140  -0.000307   0.000113   0.000637
   33  O  2 XZ    0.000000   0.000000   0.000000   0.000000   0.000000
   34  O  2 YZ    0.000000   0.000000   0.000000   0.000000   0.000000
   35  O  3  S   -0.000018   0.715405   0.688941  -0.000090   0.000306
   36  O  3  S   -0.000124   0.024413   0.023398  -0.000241  -0.000060
   37  O  3  S    0.000437  -0.011192  -0.012035  -0.000103   0.000787
   38  O  3  X    0.000062   0.000829   0.000580  -0.000120  -0.000332
   39  O  3  Y   -0.000050  -0.000817  -0.000723   0.000095   0.000285
   40  O  3  Z    0.000000   0.000000   0.000000   0.000000   0.000000
   41  O  3  X    0.000335  -0.002308  -0.001713  -0.000586   0.000680
   42  O  3  Y   -0.000371   0.001714   0.001862   0.000680  -0.000841
   43  O  3  Z    0.000000   0.000000   0.000000   0.000000   0.000000
   44  O  3 XX    0.000074  -0.000363   0.000162   0.000025  -0.000210
   45  O  3 YY    0.000069   0.000038  -0.000155   0.000038  -0.000159
   46  O  3 ZZ   -0.000143   0.000325  -0.000007  -0.000064   0.000369
   47  O  3 XY   -0.000257   0.000152   0.000302  -0.000113   0.000637
   48  O  3 XZ    0.000000   0.000000   0.000000   0.000000   0.000000
   49  O  3 YZ    0.000000   0.000000   0.000000   0.000000   0.000000

                      6          7          8          9         10
                   -5.8687    -5.8642    -1.0456    -0.9099    -0.6034
                     A          A          A          A          A   
    1  S  1  S    0.000000   0.002641   0.049529  -0.000000   0.069406
    2  S  1  S    0.000000  -0.009089  -0.304112   0.000000  -0.444256
    3  S  1  S    0.000000  -0.000365   0.424885  -0.000001   0.683361
    4  S  1  S    0.000000   0.002180   0.070734   0.000006   0.266963
    5  S  1  X    0.000000   0.000002  -0.000000   0.117043   0.000000
    6  S  1  Y    0.000000   0.994617  -0.082001  -0.000000   0.081349
    7  S  1  Z    0.994867   0.000000   0.000000   0.000000   0.000000
    8  S  1  X    0.000000   0.000000   0.000001  -0.265343  -0.000001
    9  S  1  Y    0.000000   0.016996   0.177798   0.000001  -0.199110
   10  S  1  Z    0.016238   0.000000   0.000000   0.000000   0.000000
   11  S  1  X    0.000000  -0.000000   0.000001   0.005770  -0.000001
   12  S  1  Y    0.000000  -0.002385  -0.017125   0.000003  -0.057919
   13  S  1  Z   -0.003150   0.000000   0.000000   0.000000   0.000000
   14  S  1 XX    0.000000  -0.000188   0.016350   0.000000   0.000410
   15  S  1 YY    0.000000   0.000900   0.022175   0.000000  -0.021712
   16  S  1 ZZ    0.000000  -0.000713  -0.038524  -0.000001   0.021302
   17  S  1 XY    0.000000   0.000000   0.000001  -0.091267  -0.000000
   18  S  1 XZ   -0.000000   0.000000   0.000000   0.000000   0.000000
   19  S  1 YZ    0.000548   0.000000   0.000000   0.000000   0.000000
   20  O  2  S    0.000000  -0.000311  -0.132800   0.164842   0.100932
   21  O  2  S    0.000000   0.000163   0.269747  -0.341064  -0.213353
   22  O  2  S    0.000000  -0.001104   0.223377  -0.311121  -0.270671
   23  O  2  X    0.000000  -0.000303  -0.090569   0.055376  -0.049608
   24  O  2  Y    0.000000  -0.000393  -0.079221   0.087537  -0.109168
   25  O  2  Z   -0.000045   0.000000   0.000000   0.000000   0.000000
   26  O  2  X    0.000000   0.000754  -0.021862   0.013144  -0.021369
   27  O  2  Y    0.000000   0.000499  -0.021343   0.021888  -0.050609
   28  O  2  Z   -0.000196   0.000000   0.000000   0.000000   0.000000
   29  O  2 XX    0.000000   0.000119   0.001851   0.001025  -0.001256
   30  O  2 YY    0.000000   0.000325   0.003594  -0.003297   0.005017
   31  O  2 ZZ    0.000000  -0.000444  -0.005445   0.002271  -0.003761
   32  O  2 XY    0.000000   0.000756   0.012240  -0.008606   0.005685
   33  O  2 XZ    0.000065   0.000000   0.000000   0.000000   0.000000
   34  O  2 YZ    0.000051   0.000000   0.000000   0.000000   0.000000
   35  O  3  S    0.000000  -0.000311  -0.132800  -0.164842   0.100932
   36  O  3  S    0.000000   0.000163   0.269747   0.341065  -0.213353
   37  O  3  S    0.000000  -0.001104   0.223382   0.311112  -0.270672
   38  O  3  X    0.000000   0.000303   0.090569   0.055376   0.049609
   39  O  3  Y    0.000000  -0.000393  -0.079221  -0.087537  -0.109168
   40  O  3  Z   -0.000045   0.000000   0.000000   0.000000   0.000000
   41  O  3  X    0.000000  -0.000754   0.021863   0.013141   0.021369
   42  O  3  Y    0.000000   0.000499  -0.021345  -0.021886  -0.050608
   43  O  3  Z   -0.000196   0.000000   0.000000   0.000000   0.000000
   44  O  3 XX    0.000000   0.000119   0.001852  -0.001025  -0.001256
   45  O  3 YY    0.000000   0.000325   0.003594   0.003297   0.005017
   46  O  3 ZZ    0.000000  -0.000444  -0.005445  -0.002271  -0.003761
   47  O  3 XY    0.000000  -0.000756  -0.012240  -0.008606  -0.005685
   48  O  3 XZ   -0.000065   0.000000   0.000000   0.000000   0.000000
   49  O  3 YZ    0.000051   0.000000   0.000000   0.000000   0.000000

                     11         12         13         14         15
                   -0.4396    -0.4300    -0.4221    -0.3093    -0.2965
                     A          A          A          A          A   
    1  S  1  S    0.000000  -0.004786   0.000000   0.014341   0.000000
    2  S  1  S    0.000000   0.028746  -0.000000  -0.093165   0.000000
    3  S  1  S    0.000000  -0.000726   0.000000   0.119496   0.000000
    4  S  1  S    0.000000  -0.209689   0.000000   0.268482   0.000000
    5  S  1  X    0.000000   0.000000  -0.187820   0.000000   0.000000
    6  S  1  Y    0.000000  -0.193963  -0.000000   0.099975   0.000000
    7  S  1  Z   -0.219246   0.000000   0.000000   0.000000   0.000000
    8  S  1  X    0.000000  -0.000000   0.512200  -0.000000   0.000000
    9  S  1  Y    0.000000   0.522936   0.000000  -0.273477   0.000000
   10  S  1  Z    0.590185   0.000000   0.000000   0.000000  -0.000001
   11  S  1  X    0.000000   0.000001   0.040313   0.000001   0.000000
   12  S  1  Y    0.000000   0.047613   0.000000  -0.046326   0.000000
   13  S  1  Z    0.139596   0.000000   0.000000   0.000000  -0.000000
   14  S  1 XX    0.000000  -0.041446  -0.000000  -0.123736   0.000000
   15  S  1 YY    0.000000   0.063674   0.000000   0.085152   0.000000
   16  S  1 ZZ    0.000000  -0.022228   0.000000   0.038584   0.000000
   17  S  1 XY    0.000000   0.000000   0.052841  -0.000000   0.000000
   18  S  1 XZ   -0.000000   0.000000   0.000000   0.000000  -0.112647
   19  S  1 YZ    0.060855   0.000000   0.000000   0.000000   0.000000
   20  O  2  S    0.000000   0.056797   0.072404  -0.000930   0.000000
   21  O  2  S    0.000000  -0.119218  -0.150291  -0.001249   0.000000
   22  O  2  S    0.000000  -0.188715  -0.258480  -0.005662   0.000000
   23  O  2  X    0.000000  -0.331031  -0.161416  -0.140731   0.000000
   24  O  2  Y    0.000000  -0.044821  -0.317396   0.406429   0.000000
   25  O  2  Z    0.291996   0.000000   0.000000   0.000000  -0.473465
   26  O  2  X    0.000000  -0.182219  -0.079413  -0.114044   0.000000
   27  O  2  Y    0.000000  -0.012189  -0.161257   0.288580   0.000000
   28  O  2  Z    0.171746   0.000000   0.000000   0.000000  -0.340796
   29  O  2 XX    0.000000   0.014947  -0.002894   0.012461   0.000000
   30  O  2 YY    0.000000  -0.008426   0.011100  -0.016812   0.000000
   31  O  2 ZZ    0.000000  -0.006522  -0.008206   0.004351   0.000000
   32  O  2 XY    0.000000   0.010020   0.009554  -0.008791   0.000000
   33  O  2 XZ   -0.015409   0.000000   0.000000   0.000000   0.012532
   34  O  2 YZ   -0.014700   0.000000   0.000000   0.000000   0.017261
   35  O  3  S    0.000000   0.056798  -0.072403  -0.000930   0.000000
   36  O  3  S    0.000000  -0.119219   0.150289  -0.001249   0.000000
   37  O  3  S    0.000000  -0.188715   0.258479  -0.005661   0.000000
   38  O  3  X    0.000000   0.331033  -0.161414   0.140733   0.000000
   39  O  3  Y    0.000000  -0.044822   0.317396   0.406429   0.000000
   40  O  3  Z    0.291996   0.000000   0.000000   0.000000   0.473465
   41  O  3  X    0.000000   0.182221  -0.079411   0.114046   0.000000
   42  O  3  Y    0.000000  -0.012190   0.161257   0.288580   0.000000
   43  O  3  Z    0.171747   0.000000   0.000000   0.000000   0.340796
   44  O  3 XX    0.000000   0.014947   0.002894   0.012461   0.000000
   45  O  3 YY    0.000000  -0.008426  -0.011100  -0.016812   0.000000
   46  O  3 ZZ    0.000000  -0.006522   0.008206   0.004351   0.000000
   47  O  3 XY    0.000000  -0.010021   0.009554   0.008791   0.000000
   48  O  3 XZ    0.015409   0.000000   0.000000   0.000000   0.012532
   49  O  3 YZ   -0.014700   0.000000   0.000000   0.000000  -0.017261

                     16         17         18         19         20
                   -0.2412    -0.1848    -0.0565     0.0369     0.2000
                     A          A          A          A          A   
    1  S  1  S   -0.000000   0.000000  -0.000000   0.028879   0.000000
    2  S  1  S    0.000000   0.000000   0.000001  -0.196077   0.000000
    3  S  1  S   -0.000003   0.000000  -0.000001   0.265424   0.000000
    4  S  1  S    0.000008   0.000000  -0.000006   0.853063   0.000000
    5  S  1  X   -0.016228   0.000000  -0.188898  -0.000002   0.000000
    6  S  1  Y   -0.000000   0.000000   0.000001  -0.114273   0.000000
    7  S  1  Z    0.000000  -0.220022   0.000000   0.000000   0.248587
    8  S  1  X    0.044075   0.000000   0.576948   0.000008   0.000000
    9  S  1  Y    0.000002   0.000000  -0.000003   0.365762   0.000000
   10  S  1  Z    0.000000   0.653011   0.000000   0.000000  -0.977631
   11  S  1  X    0.174427   0.000000   0.715811  -0.000002   0.000000
   12  S  1  Y    0.000006   0.000000  -0.000005   1.094639   0.000000
   13  S  1  Z    0.000000   0.326474   0.000000   0.000000   1.301034
   14  S  1 XX    0.000001   0.000000   0.000000  -0.071761   0.000000
   15  S  1 YY    0.000000   0.000000   0.000000  -0.168622   0.000000
   16  S  1 ZZ   -0.000001   0.000000  -0.000000   0.240383   0.000000
   17  S  1 XY   -0.105487   0.000000  -0.228131   0.000000   0.000000
   18  S  1 XZ    0.000000  -0.000000   0.000000   0.000000   0.000000
   19  S  1 YZ    0.000000  -0.103544   0.000000   0.000000  -0.106000
   20  O  2  S    0.013253   0.000000   0.035898   0.060796   0.000000
   21  O  2  S   -0.032942   0.000000  -0.071462  -0.096558   0.000000
   22  O  2  S   -0.078525   0.000000  -0.319532  -0.665447   0.000000
   23  O  2  X    0.463105   0.000000  -0.024058   0.196414   0.000000
   24  O  2  Y   -0.164488   0.000000   0.322038   0.131039   0.000000
   25  O  2  Z    0.000000  -0.369782   0.000000   0.000000  -0.006336
   26  O  2  X    0.315294   0.000000  -0.050218   0.300484   0.000000
   27  O  2  Y   -0.123961   0.000000   0.288560   0.114222   0.000000
   28  O  2  Z    0.000000  -0.324032   0.000000   0.000000  -0.120410
   29  O  2 XX   -0.015349   0.000000   0.001544  -0.004138   0.000000
   30  O  2 YY    0.015174   0.000000   0.003009  -0.003800   0.000000
   31  O  2 ZZ    0.000175   0.000000  -0.004553   0.007938   0.000000
   32  O  2 XY   -0.008873   0.000000   0.004415   0.005075   0.000000
   33  O  2 XZ    0.000000   0.005119   0.000000   0.000000   0.017730
   34  O  2 YZ    0.000000   0.001391   0.000000   0.000000   0.013232
   35  O  3  S   -0.013253   0.000000  -0.035898   0.060796   0.000000
   36  O  3  S    0.032944   0.000000   0.071460  -0.096562   0.000000
   37  O  3  S    0.078515   0.000000   0.319542  -0.665440   0.000000
   38  O  3  X    0.463104   0.000000  -0.024057  -0.196419   0.000000
   39  O  3  Y    0.164486   0.000000  -0.322039   0.131035   0.000000
   40  O  3  Z    0.000000  -0.369781   0.000000   0.000000  -0.006336
   41  O  3  X    0.315289   0.000000  -0.050214  -0.300479   0.000000
   42  O  3  Y    0.123962   0.000000  -0.288562   0.114217   0.000000
   43  O  3  Z    0.000000  -0.324032   0.000000   0.000000  -0.120410
   44  O  3 XX    0.015349   0.000000  -0.001544  -0.004137   0.000000
   45  O  3 YY   -0.015174   0.000000  -0.003009  -0.003800   0.000000
   46  O  3 ZZ   -0.000175   0.000000   0.004553   0.007938   0.000000
   47  O  3 XY   -0.008873   0.000000   0.004415  -0.005075   0.000000
   48  O  3 XZ    0.000000  -0.005119   0.000000   0.000000  -0.017730
   49  O  3 YZ    0.000000   0.001391   0.000000   0.000000   0.013232

                     21         22         23         24         25
                    0.2300     0.2609     0.2905     0.5172     0.5274
                     A          A          A          A          A   
    1  S  1  S   -0.048562  -0.000000  -0.049340   0.000000   0.000000
    2  S  1  S    0.358334   0.000001   0.359654   0.000000   0.000000
    3  S  1  S   -1.411347  -0.000004  -1.331621   0.000000   0.000000
    4  S  1  S    1.831380   0.000004   1.429275   0.000000   0.000000
    5  S  1  X   -0.000003   0.270563   0.000001   0.000000   0.000000
    6  S  1  Y   -0.204337  -0.000003   0.215743   0.000000   0.000000
    7  S  1  Z    0.000000   0.000000   0.000000  -0.000000   0.024304
    8  S  1  X    0.000012  -1.044599  -0.000003   0.000000   0.000000
    9  S  1  Y    0.817770   0.000011  -0.808007   0.000000   0.000000
   10  S  1  Z    0.000000   0.000000   0.000000   0.000001  -0.117550
   11  S  1  X   -0.000013   1.374291   0.000010   0.000000   0.000000
   12  S  1  Y   -0.472773  -0.000011   1.133094   0.000000   0.000000
   13  S  1  Z    0.000000   0.000000   0.000000  -0.000001   0.159510
   14  S  1 XX   -0.106514  -0.000003   0.160238   0.000000   0.000000
   15  S  1 YY   -0.049421  -0.000003   0.014991   0.000000   0.000000
   16  S  1 ZZ    0.155935   0.000005  -0.175229   0.000000   0.000000
   17  S  1 XY   -0.000001   0.200360   0.000005   0.000000   0.000000
   18  S  1 XZ    0.000000   0.000000   0.000000   0.931968   0.000003
   19  S  1 YZ    0.000000   0.000000   0.000000  -0.000003   0.900601
   20  O  2  S    0.024809   0.003953   0.003952   0.000000   0.000000
   21  O  2  S   -0.063000   0.049030   0.057964   0.000000   0.000000
   22  O  2  S   -0.281398  -0.339451  -0.503813   0.000000   0.000000
   23  O  2  X    0.023772  -0.183051  -0.236215   0.000000   0.000000
   24  O  2  Y    0.001194  -0.122731  -0.199962   0.000000   0.000000
   25  O  2  Z    0.000000   0.000000   0.000000  -0.287042  -0.327259
   26  O  2  X    0.130099  -0.117393  -0.003859   0.000000   0.000000
   27  O  2  Y    0.149657   0.012947  -0.071128   0.000000   0.000000
   28  O  2  Z    0.000000   0.000000   0.000000   0.054224   0.076286
   29  O  2 XX    0.004239   0.006412  -0.030582   0.000000   0.000000
   30  O  2 YY   -0.015281  -0.023326   0.006376   0.000000   0.000000
   31  O  2 ZZ    0.011043   0.016914   0.024206   0.000000   0.000000
   32  O  2 XY   -0.007657  -0.024959  -0.039655   0.000000   0.000000
   33  O  2 XZ    0.000000   0.000000   0.000000  -0.015549  -0.048115
   34  O  2 YZ    0.000000   0.000000   0.000000  -0.048918  -0.014341
   35  O  3  S    0.024809  -0.003952   0.003952   0.000000   0.000000
   36  O  3  S   -0.063002  -0.049037   0.057958   0.000000   0.000000
   37  O  3  S   -0.281399   0.339459  -0.503797   0.000000   0.000000
   38  O  3  X   -0.023771  -0.183057   0.236208   0.000000   0.000000
   39  O  3  Y    0.001191   0.122735  -0.199961   0.000000   0.000000
   40  O  3  Z    0.000000   0.000000   0.000000   0.287045  -0.327256
   41  O  3  X   -0.130092  -0.117392   0.003866   0.000000   0.000000
   42  O  3  Y    0.149655  -0.012947  -0.071134   0.000000   0.000000
   43  O  3  Z    0.000000   0.000000   0.000000  -0.054225   0.076285
   44  O  3 XX    0.004239  -0.006411  -0.030581   0.000000   0.000000
   45  O  3 YY   -0.015282   0.023325   0.006376   0.000000   0.000000
   46  O  3 ZZ    0.011043  -0.016914   0.024205   0.000000   0.000000
   47  O  3 XY    0.007657  -0.024960   0.039654   0.000000   0.000000
   48  O  3 XZ    0.000000   0.000000   0.000000  -0.015549   0.048115
   49  O  3 YZ    0.000000   0.000000   0.000000   0.048918  -0.014341

                     26         27         28         29         30
                    0.5642     0.6282     0.6860     0.7788     0.8248
                     A          A          A          A          A   
    1  S  1  S    0.000596   0.017138  -0.000000   0.001672   0.000000
    2  S  1  S   -0.002633  -0.133079   0.000000  -0.012586   0.000000
    3  S  1  S    0.001215   0.431732  -0.000000   0.071168   0.000000
    4  S  1  S   -0.143232   0.921343  -0.000013  -0.133716   0.000000
    5  S  1  X    0.000000  -0.000001  -0.143957  -0.000000   0.000000
    6  S  1  Y   -0.022596  -0.140169   0.000001  -0.002395   0.000000
    7  S  1  Z    0.000000   0.000000   0.000000   0.000000   0.000000
    8  S  1  X   -0.000000   0.000008   0.817001   0.000002   0.000000
    9  S  1  Y    0.078265   0.722712  -0.000005  -0.018609   0.000000
   10  S  1  Z    0.000000   0.000000   0.000000   0.000000  -0.000002
   11  S  1  X   -0.000001   0.000002   0.055457  -0.000000   0.000000
   12  S  1  Y   -0.237018   0.166926  -0.000004  -0.396419   0.000000
   13  S  1  Z    0.000000   0.000000   0.000000   0.000000  -0.000022
   14  S  1 XX    0.785299   0.446615  -0.000004   0.378842   0.000000
   15  S  1 YY   -0.769279   0.369293  -0.000002  -0.418108   0.000000
   16  S  1 ZZ   -0.016020  -0.815909   0.000006   0.039266   0.000000
   17  S  1 XY   -0.000001   0.000007   0.658547   0.000001   0.000000
   18  S  1 XZ    0.000000   0.000000   0.000000   0.000000   0.389525
   19  S  1 YZ    0.000000   0.000000   0.000000   0.000000  -0.000018
   20  O  2  S   -0.005288   0.070234   0.073361   0.005255   0.000000
   21  O  2  S    0.004525  -0.227315  -0.221520  -0.043034   0.000000
   22  O  2  S    0.096295  -0.449196  -0.393425   0.131521   0.000000
   23  O  2  X   -0.184372  -0.097414  -0.190580   0.414771   0.000000
   24  O  2  Y    0.303985  -0.099947  -0.213555  -0.396678   0.000000
   25  O  2  Z    0.000000   0.000000   0.000000   0.000000   0.587416
   26  O  2  X   -0.048753   0.590673   0.798237  -0.523811   0.000000
   27  O  2  Y   -0.074722   0.610786   0.767390   0.537445   0.000000
   28  O  2  Z    0.000000   0.000000   0.000000   0.000000  -0.831279
   29  O  2 XX   -0.054082   0.014783   0.003177  -0.029473   0.000000
   30  O  2 YY    0.059282   0.011399   0.004511   0.044908   0.000000
   31  O  2 ZZ   -0.005200  -0.026182  -0.007688  -0.015435   0.000000
   32  O  2 XY    0.002921   0.005606   0.014877  -0.012069   0.000000
   33  O  2 XZ    0.000000   0.000000   0.000000   0.000000  -0.044765
   34  O  2 YZ    0.000000   0.000000   0.000000   0.000000  -0.033207
   35  O  3  S   -0.005287   0.070233  -0.073363   0.005254   0.000000
   36  O  3  S    0.004526  -0.227317   0.221527  -0.043031   0.000000
   37  O  3  S    0.096294  -0.449180   0.393432   0.131520   0.000000
   38  O  3  X    0.184373   0.097406  -0.190583  -0.414770   0.000000
   39  O  3  Y    0.303985  -0.099945   0.213561  -0.396676   0.000000
   40  O  3  Z    0.000000   0.000000   0.000000   0.000000  -0.587461
   41  O  3  X    0.048750  -0.590651   0.798248   0.523812   0.000000
   42  O  3  Y   -0.074721   0.610773  -0.767406   0.537441   0.000000
   43  O  3  Z    0.000000   0.000000   0.000000   0.000000   0.831347
   44  O  3 XX   -0.054082   0.014784  -0.003177  -0.029473   0.000000
   45  O  3 YY    0.059282   0.011399  -0.004511   0.044908   0.000000
   46  O  3 ZZ   -0.005200  -0.026182   0.007688  -0.015435   0.000000
   47  O  3 XY   -0.002921  -0.005606   0.014877   0.012069   0.000000
   48  O  3 XZ    0.000000   0.000000   0.000000   0.000000  -0.044767
   49  O  3 YZ    0.000000   0.000000   0.000000   0.000000   0.033211

                     31         32         33         34         35
                    0.8281     0.8886     0.9317     1.0402     1.4259
                     A          A          A          A          A   
    1  S  1  S    0.000000   0.004778   0.000000   0.000000  -0.000732
    2  S  1  S    0.000000  -0.057836  -0.000000   0.000000   0.014151
    3  S  1  S    0.000000   0.639925   0.000002   0.000001   0.200406
    4  S  1  S    0.000000  -0.262034   0.000002  -0.000006  -1.998233
    5  S  1  X    0.000000  -0.000000  -0.012942  -0.076576   0.000019
    6  S  1  Y    0.000000   0.031476   0.000000   0.000000   0.084115
    7  S  1  Z    0.002764   0.000000   0.000000   0.000000   0.000000
    8  S  1  X    0.000000   0.000000   0.011111   0.194986  -0.000150
    9  S  1  Y    0.000000   0.093639   0.000001  -0.000002  -0.558591
   10  S  1  Z   -0.042152   0.000000   0.000000   0.000000   0.000000
   11  S  1  X    0.000000   0.000001  -0.584733   0.404062  -0.000152
   12  S  1  Y    0.000000  -0.259125   0.000000  -0.000003  -0.889237
   13  S  1  Z   -0.571592   0.000000   0.000000   0.000000   0.000000
   14  S  1 XX    0.000000  -0.230509  -0.000000  -0.000001  -0.142953
   15  S  1 YY    0.000000  -0.373049  -0.000001  -0.000000  -0.215647
   16  S  1 ZZ    0.000000   0.603558   0.000002   0.000001   0.358600
   17  S  1 XY    0.000000   0.000000   0.106574   0.969366  -0.000069
   18  S  1 XZ   -0.000015   0.000000   0.000000   0.000000   0.000000
   19  S  1 YZ   -0.459563   0.000000   0.000000   0.000000   0.000000
   20  O  2  S    0.000000  -0.024391   0.016828   0.028457   0.069968
   21  O  2  S    0.000000   0.156182  -0.130680  -0.033177  -1.230359
   22  O  2  S    0.000000   0.052826   0.190301  -0.409093   2.214869
   23  O  2  X    0.000000  -0.463976  -0.386787   0.457233  -0.068584
   24  O  2  Y    0.000000  -0.396040   0.497209   0.378725  -0.014910
   25  O  2  Z   -0.568678   0.000000   0.000000   0.000000   0.000000
   26  O  2  X    0.000000   0.412270   0.731490  -0.323364  -0.356966
   27  O  2  Y    0.000000   0.498790  -0.726173  -0.044336  -0.377357
   28  O  2  Z    0.881255   0.000000   0.000000   0.000000   0.000000
   29  O  2 XX    0.000000  -0.033829   0.053785  -0.039834   0.049329
   30  O  2 YY    0.000000   0.029857  -0.032571   0.023557  -0.045344
   31  O  2 ZZ    0.000000   0.003972  -0.021215   0.016277  -0.003984
   32  O  2 XY    0.000000   0.048821  -0.020840   0.028963  -0.154282
   33  O  2 XZ    0.029907   0.000000   0.000000   0.000000   0.000000
   34  O  2 YZ    0.040731   0.000000   0.000000   0.000000   0.000000
   35  O  3  S    0.000000  -0.024392  -0.016829  -0.028456   0.069923
   36  O  3  S    0.000000   0.156187   0.130693   0.033167  -1.229637
   37  O  3  S    0.000000   0.052822  -0.190315   0.409108   2.213816
   38  O  3  X    0.000000   0.463977  -0.386787   0.457234   0.068629
   39  O  3  Y    0.000000  -0.396037  -0.497210  -0.378725  -0.014918
   40  O  3  Z   -0.568632   0.000000   0.000000   0.000000   0.000000
   41  O  3  X    0.000000  -0.412271   0.731490  -0.323363   0.356667
   42  O  3  Y    0.000000   0.498785   0.726176   0.044333  -0.377141
   43  O  3  Z    0.881190   0.000000   0.000000   0.000000   0.000000
   44  O  3 XX    0.000000  -0.033829  -0.053786   0.039835   0.049415
   45  O  3 YY    0.000000   0.029857   0.032571  -0.023557  -0.045340
   46  O  3 ZZ    0.000000   0.003972   0.021215  -0.016277  -0.004075
   47  O  3 XY    0.000000  -0.048821  -0.020840   0.028963   0.154229
   48  O  3 XZ   -0.029903   0.000000   0.000000   0.000000   0.000000
   49  O  3 YZ    0.040729   0.000000   0.000000   0.000000   0.000000

                     36         37         38         39         40
                    1.4340     2.0776     2.0874     2.0905     2.1099
                     A          A          A          A          A   
    1  S  1  S   -0.000000   0.000000  -0.000000   0.002049   0.000000
    2  S  1  S    0.000003   0.000000   0.000000  -0.014487   0.000000
    3  S  1  S    0.000064   0.000000  -0.000002   0.072310   0.000000
    4  S  1  S   -0.000603   0.000000   0.000010  -0.342954   0.000000
    5  S  1  X   -0.063105   0.000000  -0.022955  -0.000001   0.000000
    6  S  1  Y    0.000025   0.000000   0.000000  -0.002857   0.000000
    7  S  1  Z    0.000000  -0.008054   0.000000   0.000000   0.000000
    8  S  1  X    0.502877   0.000000   0.076241   0.000002   0.000000
    9  S  1  Y   -0.000167   0.000000   0.000001  -0.025918   0.000000
   10  S  1  Z    0.000000   0.030621   0.000000   0.000000  -0.000000
   11  S  1  X    0.489539   0.000000   0.028069   0.000001   0.000000
   12  S  1  Y   -0.000269   0.000000   0.000005  -0.187937   0.000000
   13  S  1  Z    0.000000   0.031276   0.000000   0.000000  -0.000000
   14  S  1 XX   -0.000043   0.000000  -0.000000  -0.004361   0.000000
   15  S  1 YY   -0.000066   0.000000  -0.000002   0.076726   0.000000
   16  S  1 ZZ    0.000109   0.000000   0.000002  -0.072366   0.000000
   17  S  1 XY    0.219489   0.000000  -0.056528  -0.000002   0.000000
   18  S  1 XZ    0.000000  -0.000000   0.000000   0.000000  -0.005468
   19  S  1 YZ    0.000000  -0.028401   0.000000   0.000000   0.000000
   20  O  2  S   -0.075350   0.000000  -0.001168   0.012776   0.000000
   21  O  2  S    1.203278   0.000000   0.023579  -0.208920   0.000000
   22  O  2  S   -1.749615   0.000000  -0.036805   0.350913   0.000000
   23  O  2  X   -0.083878   0.000000   0.016580   0.040807   0.000000
   24  O  2  Y   -0.013252   0.000000  -0.012168   0.006506   0.000000
   25  O  2  Z    0.000000   0.031569   0.000000   0.000000   0.035704
   26  O  2  X    0.515574   0.000000  -0.022578  -0.096964   0.000000
   27  O  2  Y    0.352472   0.000000   0.017321  -0.040393   0.000000
   28  O  2  Z    0.000000  -0.051349   0.000000   0.000000  -0.056060
   29  O  2 XX    0.151922   0.000000   0.127571  -0.414104   0.000000
   30  O  2 YY    0.005165   0.000000  -0.594574  -0.216686   0.000000
   31  O  2 ZZ   -0.157087   0.000000   0.467003   0.630789   0.000000
   32  O  2 XY    0.090436   0.000000   0.334558   0.288857   0.000000
   33  O  2 XZ    0.000000  -0.439857   0.000000   0.000000   0.583620
   34  O  2 YZ    0.000000   0.553127   0.000000   0.000000  -0.401610
   35  O  3  S    0.075391   0.000000   0.001167   0.012776   0.000000
   36  O  3  S   -1.204009   0.000000  -0.023567  -0.208921   0.000000
   37  O  3  S    1.750939   0.000000   0.036785   0.350914   0.000000
   38  O  3  X   -0.083837   0.000000   0.016582  -0.040806   0.000000
   39  O  3  Y    0.013242   0.000000   0.012167   0.006507   0.000000
   40  O  3  Z    0.000000   0.031569   0.000000   0.000000  -0.035704
   41  O  3  X    0.515789   0.000000  -0.022584   0.096962   0.000000
   42  O  3  Y   -0.352696   0.000000  -0.017319  -0.040394   0.000000
   43  O  3  Z    0.000000  -0.051349   0.000000   0.000000   0.056060
   44  O  3 XX   -0.151892   0.000000  -0.127550  -0.414113   0.000000
   45  O  3 YY   -0.005192   0.000000   0.594586  -0.216654   0.000000
   46  O  3 ZZ    0.157085   0.000000  -0.467037   0.630767   0.000000
   47  O  3 XY    0.090529   0.000000   0.334573  -0.288840   0.000000
   48  O  3 XZ    0.000000   0.439863   0.000000   0.000000   0.583615
   49  O  3 YZ    0.000000   0.553131   0.000000   0.000000   0.401605

                     41         42         43         44         45
                    2.2100     2.2839     2.3073     2.3499     2.7396
                     A          A          A          A          A   
    1  S  1  S    0.000000   0.000000   0.000000  -0.002960  -0.036065
    2  S  1  S    0.000000   0.000000  -0.000001   0.027157   0.302440
    3  S  1  S    0.000000   0.000000   0.000004  -0.118997  -0.936447
    4  S  1  S    0.000000   0.000000  -0.000005  -0.113576  -0.762580
    5  S  1  X    0.000000   0.000000   0.036524   0.000000   0.000001
    6  S  1  Y    0.000000   0.000000  -0.000000  -0.034367   0.175232
    7  S  1  Z   -0.000000  -0.068710   0.000000   0.000000   0.000000
    8  S  1  X    0.000000   0.000000  -0.073022  -0.000001  -0.000007
    9  S  1  Y    0.000000   0.000000   0.000001   0.067612  -1.019257
   10  S  1  Z    0.000000   0.253185   0.000000   0.000000   0.000000
   11  S  1  X    0.000000   0.000000  -0.058362  -0.000000  -0.000002
   12  S  1  Y    0.000000   0.000000  -0.000004   0.021519  -0.139131
   13  S  1  Z    0.000000   0.077109   0.000000   0.000000   0.000000
   14  S  1 XX    0.000000   0.000000   0.000002  -0.458978  -0.170237
   15  S  1 YY    0.000000   0.000000  -0.000002   0.430357  -0.228383
   16  S  1 ZZ    0.000000   0.000000   0.000000   0.028621   0.398620
   17  S  1 XY    0.000000   0.000000  -0.067947  -0.000001  -0.000006
   18  S  1 XZ   -0.374057   0.000001   0.000000   0.000000   0.000000
   19  S  1 YZ    0.000001   0.384595   0.000000   0.000000   0.000000
   20  O  2  S    0.000000   0.000000  -0.016551   0.009071   0.002073
   21  O  2  S    0.000000   0.000000   0.258073  -0.141812  -0.464070
   22  O  2  S    0.000000   0.000000  -0.295404   0.184984   1.112544
   23  O  2  X    0.000000   0.000000  -0.156996   0.031905  -0.007447
   24  O  2  Y    0.000000   0.000000   0.026624   0.046482   0.002300
   25  O  2  Z   -0.054990   0.040124   0.000000   0.000000   0.000000
   26  O  2  X    0.000000   0.000000   0.335898   0.000329  -0.475901
   27  O  2  Y    0.000000   0.000000  -0.084534  -0.179729  -0.475938
   28  O  2  Z    0.136882  -0.155669   0.000000   0.000000   0.000000
   29  O  2 XX    0.000000   0.000000  -0.667724  -0.573493   0.231615
   30  O  2 YY    0.000000   0.000000   0.347182   0.700785   0.126642
   31  O  2 ZZ    0.000000   0.000000   0.320542  -0.127292  -0.358257
   32  O  2 XY    0.000000   0.000000   0.261686  -0.013962   0.729202
   33  O  2 XZ   -0.415391   0.577409   0.000000   0.000000   0.000000
   34  O  2 YZ   -0.598735   0.463218   0.000000   0.000000   0.000000
   35  O  3  S    0.000000   0.000000   0.016551   0.009072   0.002073
   36  O  3  S    0.000000   0.000000  -0.258075  -0.141813  -0.464065
   37  O  3  S    0.000000   0.000000   0.295411   0.184985   1.112530
   38  O  3  X    0.000000   0.000000  -0.156995  -0.031906   0.007446
   39  O  3  Y    0.000000   0.000000  -0.026625   0.046482   0.002300
   40  O  3  Z    0.054990   0.040124   0.000000   0.000000   0.000000
   41  O  3  X    0.000000   0.000000   0.335898  -0.000327   0.475897
   42  O  3  Y    0.000000   0.000000   0.084536  -0.179728  -0.475929
   43  O  3  Z   -0.136883  -0.155669   0.000000   0.000000   0.000000
   44  O  3 XX    0.000000   0.000000   0.667726  -0.573488   0.231615
   45  O  3 YY    0.000000   0.000000  -0.347189   0.700781   0.126637
   46  O  3 ZZ    0.000000   0.000000  -0.320537  -0.127293  -0.358252
   47  O  3 XY    0.000000   0.000000   0.261689   0.013965  -0.729192
   48  O  3 XZ   -0.415393  -0.577407   0.000000   0.000000   0.000000
   49  O  3 YZ    0.598737   0.463216   0.000000   0.000000   0.000000

                     46
                    2.8231
                     A   
    1  S  1  S   -0.000000
    2  S  1  S    0.000002
    3  S  1  S   -0.000004
    4  S  1  S   -0.000012
    5  S  1  X   -0.204464
    6  S  1  Y    0.000001
    7  S  1  Z    0.000000
    8  S  1  X    1.193593
    9  S  1  Y   -0.000008
   10  S  1  Z    0.000000
   11  S  1  X    0.141215
   12  S  1  Y   -0.000004
   13  S  1  Z    0.000000
   14  S  1 XX   -0.000002
   15  S  1 YY   -0.000002
   16  S  1 ZZ    0.000004
   17  S  1 XY    0.809600
   18  S  1 XZ    0.000000
   19  S  1 YZ    0.000000
   20  O  2  S    0.002371
   21  O  2  S    0.563445
   22  O  2  S   -1.321336
   23  O  2  X    0.007398
   24  O  2  Y    0.045300
   25  O  2  Z    0.000000
   26  O  2  X    0.642985
   27  O  2  Y    0.561223
   28  O  2  Z    0.000000
   29  O  2 XX   -0.233932
   30  O  2 YY   -0.244220
   31  O  2 ZZ    0.478152
   32  O  2 XY   -0.701011
   33  O  2 XZ    0.000000
   34  O  2 YZ    0.000000
   35  O  3  S   -0.002371
   36  O  3  S   -0.563455
   37  O  3  S    1.321360
   38  O  3  X    0.007398
   39  O  3  Y   -0.045300
   40  O  3  Z    0.000000
   41  O  3  X    0.642993
   42  O  3  Y   -0.561231
   43  O  3  Z    0.000000
   44  O  3 XX    0.233934
   45  O  3 YY    0.244222
   46  O  3 ZZ   -0.478156
   47  O  3 XY   -0.701020
   48  O  3 XZ    0.000000
   49  O  3 YZ    0.000000
 ...... END OF RHF CALCULATION ......
 STEP CPU TIME =     2.65 TOTAL CPU TIME =          2.8 (      0.0 MIN)
 TOTAL WALL CLOCK TIME=          2.8 SECONDS, CPU UTILIZATION IS    98.59%

     ---------------------------------------------------------------------
     PROPERTIES FOR THE PBE      DFT FUNCTIONAL (RHF  TYPE) DENSITY MATRIX
     ---------------------------------------------------------------------

          -----------------
          ENERGY COMPONENTS
          -----------------

         WAVEFUNCTION NORMALIZATION =       1.0000000000

                ONE ELECTRON ENERGY =    -966.9227904681
                TWO ELECTRON ENERGY =     312.4488064856
           NUCLEAR REPULSION ENERGY =     106.2781362495
                                      ------------------
                       TOTAL ENERGY =    -548.1958477331

 ELECTRON-ELECTRON POTENTIAL ENERGY =     312.4488064856
  NUCLEUS-ELECTRON POTENTIAL ENERGY =   -1514.5169655659
   NUCLEUS-NUCLEUS POTENTIAL ENERGY =     106.2781362495
                                      ------------------
             TOTAL POTENTIAL ENERGY =   -1095.7900228309
               TOTAL KINETIC ENERGY =     547.5941750979
                 VIRIAL RATIO (V/T) =       2.0010987565

          ---------------------------------------
          MULLIKEN AND LOWDIN POPULATION ANALYSES
          ---------------------------------------

     ATOMIC MULLIKEN POPULATION IN EACH MOLECULAR ORBITAL

                      1          2          3          4          5

                  2.000000   2.000000   2.000000   2.000000   2.000000

    1             1.999940   0.000482   0.001544   2.000675   2.000228
    2             0.000030   0.962094   1.036893  -0.000337  -0.000114
    3             0.000030   1.037424   0.961563  -0.000337  -0.000114

                      6          7          8          9         10

                  2.000000   2.000000   2.000000   2.000000   2.000000

    1             2.000027   2.000206   0.730557   0.362474   1.248719
    2            -0.000013  -0.000103   0.634717   0.818770   0.375640
    3            -0.000013  -0.000103   0.634727   0.818756   0.375642

                     11         12         13         14         15

                  2.000000   2.000000   2.000000   2.000000   2.000000

    1             1.092581   0.743920   0.546336   0.358925   0.073562
    2             0.453708   0.628037   0.726834   0.820536   0.963220
    3             0.453711   0.628044   0.726830   0.820539   0.963219

                     16

                  2.000000

    1             0.190002
    2             0.905004
    3             0.904994

               ----- POPULATIONS IN EACH AO -----
                             MULLIKEN      LOWDIN
              1  S  1  S      1.99981     1.99923
              2  S  1  S      1.99203     1.88331
              3  S  1  S      1.31630     0.66083
              4  S  1  S      0.53786     0.46949
              5  S  1  X      1.99392     1.95884
              6  S  1  Y      1.99498     1.96557
              7  S  1  Z      1.99382     1.96087
              8  S  1  X      0.84050     0.70941
              9  S  1  Y      1.03344     0.91950
             10  S  1  Z      0.88535     0.78333
             11  S  1  X      0.12572     0.23956
             12  S  1  Y      0.06972     0.23937
             13  S  1  Z      0.19146     0.29752
             14  S  1 XX      0.02838     0.30031
             15  S  1 YY      0.11197     0.30487
             16  S  1 ZZ      0.13939     0.26685
             17  S  1 XY      0.07356     0.16190
             18  S  1 XZ      0.02198     0.08796
             19  S  1 YZ      0.00000     0.02103
             20  O  2  S      1.99553     1.97264
             21  O  2  S      0.95009     0.69409
             22  O  2  S      0.92603     0.52737
             23  O  2  X      1.06146     1.02943
             24  O  2  Y      0.91404     0.88265
             25  O  2  Z      0.85435     0.82217
             26  O  2  X      0.53715     0.61316
             27  O  2  Y      0.51054     0.61723
             28  O  2  Z      0.55638     0.59341
             29  O  2 XX      0.00208     0.20134
             30  O  2 YY      0.00436     0.20422
             31  O  2 ZZ      0.00672     0.20474
             32  O  2 XY      0.00286     0.01359
             33  O  2 XZ      0.00333     0.00448
             34  O  2 YZ      0.00000     0.00457
             35  O  3  S      1.99553     1.97264
             36  O  3  S      0.95009     0.69409
             37  O  3  S      0.92603     0.52737
             38  O  3  X      1.06146     1.02943
             39  O  3  Y      0.91404     0.88265
             40  O  3  Z      0.85435     0.82217
             41  O  3  X      0.53715     0.61316
             42  O  3  Y      0.51054     0.61723
             43  O  3  Z      0.55638     0.59341
             44  O  3 XX      0.00208     0.20134
             45  O  3 YY      0.00436     0.20422
             46  O  3 ZZ      0.00672     0.20474
             47  O  3 XY      0.00286     0.01359
             48  O  3 XZ      0.00333     0.00448
             49  O  3 YZ      0.00000     0.00457

          ----- MULLIKEN ATOMIC OVERLAP POPULATIONS -----
          (OFF-DIAGONAL ELEMENTS NEED TO BE MULTIPLIED BY 2)

             1           2           3

    1   14.5737213
    2    0.3882186   8.1006630
    3    0.3882355  -0.1639680   8.1006435

          TOTAL MULLIKEN AND LOWDIN ATOMIC POPULATIONS
       ATOM         MULL.POP.    CHARGE          LOW.POP.     CHARGE
    1 S            15.350175    0.649825        15.229777    0.770223
    2 O             8.324914   -0.324914         8.385112   -0.385112
    3 O             8.324911   -0.324911         8.385111   -0.385111

          MULLIKEN SPHERICAL HARMONIC POPULATIONS
       ATOM           S       P       D      F      G      H      I    TOTAL
    1 S             5.85    9.13    0.38   0.00   0.00   0.00   0.00   15.35
    2 O             3.87    4.43    0.02   0.00   0.00   0.00   0.00    8.32
    3 O             3.87    4.43    0.02   0.00   0.00   0.00   0.00    8.32

          -------------------------------
          BOND ORDER AND VALENCE ANALYSIS     BOND ORDER THRESHOLD=0.050
          -------------------------------

                   BOND                       BOND                       BOND
  ATOM PAIR DIST  ORDER      ATOM PAIR DIST  ORDER      ATOM PAIR DIST  ORDER
    1   2  1.500  1.820        1   3  1.500  1.820        2   3  2.121  0.280

                       TOTAL       BONDED        FREE
      ATOM            VALENCE     VALENCE     VALENCE
    1 S                 3.641       3.641       0.000
    2 O                 2.101       2.101      -0.000
    3 O                 2.101       2.101      -0.000

          ---------------------
          ELECTROSTATIC MOMENTS
          ---------------------

 POINT   1           X           Y           Z (BOHR)    CHARGE
                -0.000000    0.000000    0.000000        0.00 (A.U.)
         DX          DY          DZ         /D/  (DEBYE)
    -0.000008   -2.979657    0.000000    2.979657
 ...... END OF PROPERTY EVALUATION ......
 STEP CPU TIME =     0.00 TOTAL CPU TIME =          2.8 (      0.0 MIN)
 TOTAL WALL CLOCK TIME=          2.8 SECONDS, CPU UTILIZATION IS    98.59%
                580000  WORDS OF DYNAMIC MEMORY USED
 EXECUTION OF GAMESS TERMINATED NORMALLY Sun Sep 29 10:48:05 2019
 DDI: 263640 bytes (0.3 MB / 0 MWords) used by master data server.

 ----------------------------------------
 CPU timing information for all processes
 ========================================
 0: 2.735 + 0.79 = 2.814
 ----------------------------------------
 ddikick.x: exited gracefully.
----- accounting info -----
Files used on the master node crcfe02.crc.nd.edu were:
-rw-r--r-- 1 cdrisko campus     207 Sep 29 10:48 /afs/crc.nd.edu/user/c/cdrisko/SO2.F05
-rw-r--r-- 1 cdrisko campus   37566 Sep 29 10:48 /afs/crc.nd.edu/user/c/cdrisko/SO2.F07
-rw-r--r-- 1 cdrisko campus 4320384 Sep 29 10:48 /afs/crc.nd.edu/user/c/cdrisko/SO2.F08
-rw-r--r-- 1 cdrisko campus 1766880 Sep 29 10:48 /afs/crc.nd.edu/user/c/cdrisko/SO2.F10
Sun Sep 29 10:48:08 EDT 2019
0.444u 0.237s 0:06.50 10.3%	0+0k 0+24io 0pf+0w
