----- GAMESS execution script 'rungms' -----
This job is running on host crcfe02.crc.nd.edu
under operating system Linux at Sun Sep 29 10:55:32 EDT 2019
Available scratch disk space (Kbyte units) at beginning of the job is
Filesystem      1K-blocks  Used  Available Use% Mounted on
AFS            2147483647     0 2147483647   0% /afs
GAMESS temporary binary files will be written to /afs/crc.nd.edu/user/c/cdrisko
GAMESS supplementary output files will be written to /afs/crc.nd.edu/user/c/cdrisko/scr
Copying input file SO2.inp to your run's scratch directory...

 Distributed Data Interface kickoff program.
 Initiating 1 compute processes on 1 nodes to run the following command:
 /afs/crc.nd.edu/x86_64_linux/g/gamess/nov-2017/gamess/gamess.00.x SO2 

          ******************************************************
          *         GAMESS VERSION = 11 NOV 2017 (R3)         *
          *             FROM IOWA STATE UNIVERSITY             *
          * M.W.SCHMIDT, K.K.BALDRIDGE, J.A.BOATZ, S.T.ELBERT, *
          *   M.S.GORDON, J.H.JENSEN, S.KOSEKI, N.MATSUNAGA,   *
          *          K.A.NGUYEN, S.J.SU, T.L.WINDUS,           *
          *       TOGETHER WITH M.DUPUIS, J.A.MONTGOMERY       *
          *         J.COMPUT.CHEM.  14, 1347-1363(1993)        *
          **************** 64 BIT INTEL VERSION ****************

  SINCE 1993, STUDENTS AND POSTDOCS WORKING AT IOWA STATE UNIVERSITY
  AND ALSO IN THEIR VARIOUS JOBS AFTER LEAVING ISU HAVE MADE IMPORTANT
  CONTRIBUTIONS TO THE CODE:
     IVANA ADAMOVIC, CHRISTINE AIKENS, YURI ALEXEEV, POOJA ARORA,
     ANDREY ASADCHEV, ROB BELL, PRADIPTA BANDYOPADHYAY, JONATHAN BENTZ,
     BRETT BODE, KURT BRORSEN, CALEB CARLIN, GALINA CHABAN, WEI CHEN,
     CHEOL HO CHOI, PAUL DAY, ALBERT DEFUSCO, NUWAN DESILVA, TIM DUDLEY,
     DMITRI FEDOROV, ALEX FINDLATER, GRAHAM FLETCHER, MARK FREITAG,
     KURT GLAESEMANN, ANASTASIA GUININA,
     DAN KEMP, GRANT MERRILL, NORIYUKI MINEZAWA, JONATHAN MULLIN,
     TAKESHI NAGATA, SEAN NEDD, HEATHER NETZLOFF, BOSILJKA NJEGIC, RYAN OLSON,
     MIKE PAK, BUU PHAM,
     SPENCER PRUITT, LUKE ROSKOP, JIM SHOEMAKER, LYUDMILA SLIPCHENKO,
     TONY SMITH, SAROM SOK LEANG, JIE SONG, TETSUYA TAKETSUGU, SIMON WEBB,
     PENG XU, SOOHAENG YOO, FEDERICO ZAHARIEV

  ADDITIONAL CODE HAS BEEN PROVIDED BY COLLABORATORS IN OTHER GROUPS:
     IOWA STATE UNIVERSITY:
          JOE IVANIC, AARON WEST, LAIMUTIS BYTAUTAS, KLAUS RUEDENBERG
     UNIVERSITY OF TOKYO: KIMIHIKO HIRAO, TAKAHITO NAKAJIMA,
          TAKAO TSUNEDA, MUNEAKI KAMIYA, SUSUMU YANAGISAWA,
          KIYOSHI YAGI, MAHITO CHIBA, SEIKEN TOKURA, NAOAKI KAWAKAMI
     UNIVERSITY OF AARHUS: FRANK JENSEN
     UNIVERSITY OF IOWA: VISVALDAS KAIRYS, HUI LI
     NATIONAL INST. OF STANDARDS AND TECHNOLOGY: WALT STEVENS, DAVID GARMER
     UNIVERSITY OF PISA: BENEDETTA MENNUCCI, JACOPO TOMASI
     UNIVERSITY OF MEMPHIS: HENRY KURTZ, PRAKASHAN KORAMBATH
     UNIVERSITY OF ALBERTA: TOBY ZENG, MARIUSZ KLOBUKOWSKI
     UNIVERSITY OF NEW ENGLAND: MARK SPACKMAN
     MIE UNIVERSITY: HIROAKI UMEDA
     NAT. INST. OF ADVANCED INDUSTRIAL SCIENCE AND TECHNOLOGY: KAZUO KITAURA
     MICHIGAN STATE UNIVERSITY:
          KAROL KOWALSKI, MARTA WLOCH, JEFFREY GOUR, JESSE LUTZ,
          WEI LI, PIOTR PIECUCH
     UNIVERSITY OF SILESIA: MONIKA MUSIAL, STANISLAW KUCHARSKI
     FACULTES UNIVERSITAIRES NOTRE-DAME DE LA PAIX:
          OLIVIER QUINET, BENOIT CHAMPAGNE
     UNIVERSITY OF CALIFORNIA - SANTA BARBARA: BERNARD KIRTMAN
     INSTITUTE FOR MOLECULAR SCIENCE:
          KAZUYA ISHIMURA, MICHIO KATOUDA, AND SHIGERU NAGASE
     UNIVERSITY OF NOTRE DAME: ANNA POMOGAEVA, DAN CHIPMAN
     KYUSHU UNIVERSITY:
          HARUYUKI NAKANO,
          FENG LONG GU, JACEK KORCHOWIEC, MARCIN MAKOWSKI, AND YURIKO AOKI,
          HIROTOSHI MORI AND EISAKU MIYOSHI
     PENNSYLVANIA STATE UNIVERSITY:
          TZVETELIN IORDANOV, CHET SWALINA, JONATHAN SKONE,
          SHARON HAMMES-SCHIFFER
     WASEDA UNIVERSITY:
          MASATO KOBAYASHI, TOMOKO AKAMA, TSUGUKI TOUMA,
          TAKESHI YOSHIKAWA, YASUHIRO IKABATA, JUNJI SEINO,
          YUYA NAKAJIMA, HIROMI NAKAI
     NANJING UNIVERSITY: SHUHUA LI
     UNIVERSITY OF NEBRASKA:
          PEIFENG SU, DEJUN SI, NANDUN THELLAMUREGE, YALI WANG, HUI LI
     UNIVERSITY OF ZURICH: ROBERTO PEVERATI, KIM BALDRIDGE
     N. COPERNICUS UNIVERSITY AND JACKSON STATE UNIVERSITY:
          MARIA BARYSZ
     UNIVERSITY OF COPENHAGEN: Jimmy Kromann, CASPER STEINMANN
     TOKYO INSTITUTE OF TECHNOLOGY: HIROYA NAKATA
     NAGOYA UNIVERSITY: YOSHIO NISHIMOTO, STEPHAN IRLE
     MOSCOW STATE UNIVERSITY: VLADIMIR MIRONOV

 EXECUTION OF GAMESS BEGUN Sun Sep 29 10:55:32 2019

            ECHO OF THE FIRST FEW INPUT CARDS -
 INPUT CARD> $BASIS GBASIS=PCSEG-1 $END                                                     
 INPUT CARD> $CONTRL COORD=ZMT ISPHER=1 RUNTYP=ENERGY DFTTYP=PBE MULT=1 $END                
 INPUT CARD>                                                                                
 INPUT CARD> $DATA                                                                          
 INPUT CARD>Title SO2 single-point calculation template with Z-Matrix                       
 INPUT CARD>C1                                                                              
 INPUT CARD>S                                                                               
 INPUT CARD>O 1 1.75                                                                        
 INPUT CARD>O 1 1.75 2 115                                                                  
 INPUT CARD> $END                                                                           
    1000000 WORDS OF MEMORY AVAILABLE

     BASIS OPTIONS
     -------------
     GBASIS=PCSEG-1      IGAUSS=       0      POLAR=NONE    
     NDFUNC=       0     NFFUNC=       0     DIFFSP=       F
     NPFUNC=       0      DIFFS=       F     BASNAM=        


     RUN TITLE
     ---------
 Title SO2 single-point calculation template with Z-Matrix                       

 THE POINT GROUP OF THE MOLECULE IS C1      
 THE ORDER OF THE PRINCIPAL AXIS IS     0

 YOUR FULLY SUBSTITUTED Z-MATRIX IS
 S   
 O      1   1.7500000
 O      1   1.7500000  2  115.0000

 THE MOMENTS OF INERTIA ARE (AMU-ANGSTROM**2)
 IXX=    14.137   IYY=    69.686   IZZ=    83.824

 ATOM      ATOMIC                      COORDINATES (BOHR)
           CHARGE         X                   Y                   Z
 S          16.0     0.0000000000       -0.8886769514        0.0000000000
 O           8.0     2.7891127827        0.8881838565        0.0000000000
 O           8.0    -2.7891127827        0.8881838565        0.0000000000

          INTERNUCLEAR DISTANCES (ANGS.)
          ------------------------------

                1 S          2 O          3 O     

   1 S       0.0000000    1.7500000 *  1.7500000 *
   2 O       1.7500000 *  0.0000000    2.9518701 *
   3 O       1.7500000 *  2.9518701 *  0.0000000  

  * ... LESS THAN  3.000


     ATOMIC BASIS SET
     ----------------
 THE CONTRACTED PRIMITIVE FUNCTIONS HAVE BEEN UNNORMALIZED
 THE CONTRACTED BASIS FUNCTIONS ARE NOW NORMALIZED TO UNITY

  SHELL TYPE  PRIMITIVE        EXPONENT          CONTRACTION COEFFICIENT(S)

 S         

      1   S       1         49299.4000000    0.000677492991
      1   S       2          7395.8400000    0.005232317766
      1   S       3          1683.3000000    0.026769459077
      1   S       4           476.1440000    0.102869580705
      1   S       5           154.3290000    0.286438127414
      1   S       6            55.0288000    0.454278639081
      1   S       7            20.5029000    0.271743121997

      2   S       8            45.9596000   -0.088421914560
      2   S       9             4.9274000    0.564350486135
      2   S      10             1.9179900    0.505415953466

      3   S      11             0.3684980    1.000000000000

      4   S      12             0.1291650    1.000000000000

      5   P      13           451.6620000    0.003707705453
      5   P      14           106.0980000    0.029219352245
      5   P      15            33.6996000    0.124444551509
      5   P      16            12.3054000    0.321808587656
      5   P      17             4.7141200    0.462822172957
      5   P      18             1.7810500    0.266513371364

      6   P      19             0.8722350    0.349265132972
      6   P      20             0.3102780    0.717115018770

      7   P      21             0.1001940    1.000000000000

      8   D      22             0.5500000    1.000000000000

 O         

      9   S      23          2288.6400000    0.005451138222
      9   S      24           344.4160000    0.040718922842
      9   S      25            78.2538000    0.181369420873
      9   S      26            21.7195000    0.465536820246
      9   S      27             6.5590700    0.451211321214

     10   S      28            10.4656000   -0.150211201174
     10   S      29             0.9643510    1.052867983385

     11   S      30             0.2851270    1.000000000000

     12   P      31            17.0590000    0.068749256972
     12   P      32             3.6899900    0.351671941499
     12   P      33             0.9929960    0.724532099722

     13   P      34             0.2449240    1.000000000000

     14   D      35             1.0000000    1.000000000000

 O         

     15   S      36          2288.6400000    0.005451138222
     15   S      37           344.4160000    0.040718922842
     15   S      38            78.2538000    0.181369420873
     15   S      39            21.7195000    0.465536820246
     15   S      40             6.5590700    0.451211321214

     16   S      41            10.4656000   -0.150211201174
     16   S      42             0.9643510    1.052867983385

     17   S      43             0.2851270    1.000000000000

     18   P      44            17.0590000    0.068749256972
     18   P      45             3.6899900    0.351671941499
     18   P      46             0.9929960    0.724532099722

     19   P      47             0.2449240    1.000000000000

     20   D      48             1.0000000    1.000000000000

 TOTAL NUMBER OF BASIS SET SHELLS             =   20
 NUMBER OF CARTESIAN GAUSSIAN BASIS FUNCTIONS =   49
 NOTE: THIS RUN WILL RESTRICT THE MO VARIATION SPACE TO SPHERICAL HARMONICS.
 THE NUMBER OF ORBITALS KEPT IN THE VARIATIONAL SPACE WILL BE PRINTED LATER.
 NUMBER OF ELECTRONS                          =   32
 CHARGE OF MOLECULE                           =    0
 SPIN MULTIPLICITY                            =    1
 NUMBER OF OCCUPIED ORBITALS (ALPHA)          =   16
 NUMBER OF OCCUPIED ORBITALS (BETA )          =   16
 TOTAL NUMBER OF ATOMS                        =    3
 THE NUCLEAR REPULSION ENERGY IS       88.8842543999

     LEBEDEV GRID-BASED DFT OPTIONS
     ------------------------------
     DFTTYP=PBE     
     NRAD  =      96     NLEB  =     302
     NRAD0 =      24     NLEB0 =     110
     SWOFF =    5.00E-03 (PURE SCF -> DFT)
     SWITCH=    3.00E-04 (COARSE -> TIGHT GRID)
     THRESH=    0.00E+00 GTHRE=    1.00E+00

 GRIMME'S EMPIRICAL DISPERSION CORRECTION= F

     $CONTRL OPTIONS
     ---------------
 SCFTYP=RHF          RUNTYP=ENERGY       EXETYP=RUN     
 MPLEVL=       0     CITYP =NONE         CCTYP =NONE         VBTYP =NONE    
 DFTTYP=PBE          TDDFT =NONE    
 MULT  =       1     ICHARG=       0     NZVAR =       0     COORD =ZMT     
 PP    =NONE         RELWFN=NONE         LOCAL =NONE         NUMGRD=       F
 ISPHER=       1     NOSYM =       0     MAXIT =      30     UNITS =ANGS    
 PLTORB=       F     MOLPLT=       F     AIMPAC=       F     FRIEND=        
 NPRINT=       7     IREST =       0     GEOM  =INPUT   
 NORMF =       0     NORMP =       0     ITOL  =      20     ICUT  =       9
 INTTYP=BEST         GRDTYP=BEST         QMTTOL= 1.0E-06

     $SYSTEM OPTIONS
     ---------------
  REPLICATED MEMORY=     1000000 WORDS (ON EVERY NODE).
 DISTRIBUTED MEMDDI=           0 MILLION WORDS IN AGGREGATE,
 MEMDDI DISTRIBUTED OVER   1 PROCESSORS IS           0 WORDS/PROCESSOR.
 TOTAL MEMORY REQUESTED ON EACH PROCESSOR=     1000000 WORDS.
 TIMLIM=      525600.00 MINUTES, OR     365.0 DAYS.
 PARALL= F  BALTYP=  DLB     KDIAG=    0  COREFL= F
 MXSEQ2=     300 MXSEQ3=     150  mem10=         0

          ----------------
          PROPERTIES INPUT
          ----------------

     MOMENTS            FIELD           POTENTIAL          DENSITY
 IEMOM =       1   IEFLD =       0   IEPOT =       0   IEDEN =       0
 WHERE =COMASS     WHERE =NUCLEI     WHERE =NUCLEI     WHERE =NUCLEI  
 OUTPUT=BOTH       OUTPUT=BOTH       OUTPUT=BOTH       OUTPUT=BOTH    
 IEMINT=       0   IEFINT=       0                     IEDINT=       0
                                                       MORB  =       0
          EXTRAPOLATION IN EFFECT
          DIIS IN EFFECT
 ORBITAL PRINTING OPTION: NPREO=     1    49     2     1

     -------------------------------
     INTEGRAL TRANSFORMATION OPTIONS
     -------------------------------
     NWORD  =            0
     CUTOFF = 1.0E-09     MPTRAN =       0
     DIRTRF =       F     AOINTS =DUP     

          ----------------------
          INTEGRAL INPUT OPTIONS
          ----------------------
 NOPK  =       1 NORDER=       0 SCHWRZ=       F

   --- ENCODED Z MATRIX ---
 COORD  TYPE   I   J   K   L   M   N
    1      1    2   1
    2      1    3   1
    3      2    3   1   2

 THE DETERMINANT OF THE G MATRIX IS 10**(    -4)

 THE DETERMINANT OF THE G MATRIX IS 10**(    -4)
 * * * WARNING * * *
 YOUR B MATRIX HAS A SMALL DETERMINANT.
 THIS SUGGESTS YOU MAY HAVE BADLY CHOSEN COORDINATES.

     ------------------------------------------
     THE POINT GROUP IS C1 , NAXIS= 0, ORDER= 1
     ------------------------------------------

 -- VARIATIONAL SPACE WILL BE RESTRICTED TO PURE SPHERICAL HARMONICS ONLY --
 AFTER EXCLUDING CONTAMINANT COMBINATIONS FROM THE CARTESIAN GAUSSIAN BASIS
 SET, THE NUMBER OF SPHERICAL HARMONICS KEPT IN THE VARIATION SPACE IS   46

     DIMENSIONS OF THE SYMMETRY SUBSPACES ARE
 A   =   46

 ..... DONE SETTING UP THE RUN .....
 STEP CPU TIME =     0.04 TOTAL CPU TIME =          0.0 (      0.0 MIN)
 TOTAL WALL CLOCK TIME=          0.0 SECONDS, CPU UTILIZATION IS   100.00%

          ********************
          1 ELECTRON INTEGRALS
          ********************
 ...... END OF ONE-ELECTRON INTEGRALS ......
 STEP CPU TIME =     0.00 TOTAL CPU TIME =          0.0 (      0.0 MIN)
 TOTAL WALL CLOCK TIME=          0.0 SECONDS, CPU UTILIZATION IS    80.00%

          -------------
          GUESS OPTIONS
          -------------
          GUESS =HUCKEL            NORB  =       0          NORDER=       0
          MIX   =       F          PRTMO =       F          PUNMO =       F
          TOLZ  = 1.0E-08          TOLE  = 1.0E-05
          SYMDEN=       F          PURIFY=       F

 INITIAL GUESS ORBITALS GENERATED BY HUCKEL   ROUTINE.
 HUCKEL GUESS REQUIRES     21634 WORDS.

 STATISTICS FOR GENERATION OF SYMMETRY ORBITAL -Q- MATRIX
 NUMBER OF CARTESIAN ATOMIC ORBITALS=         49
 NUMBER OF SPHERICAL CONTAMINANTS DROPPED=     3
 NUMBER OF LINEARLY DEPENDENT MOS DROPPED=     0
 TOTAL NUMBER OF MOS IN VARIATION SPACE=      46

 SYMMETRIES FOR INITIAL GUESS ORBITALS FOLLOW.   BOTH SET(S).
    16 ORBITALS ARE OCCUPIED (    7 CORE ORBITALS).
     8=A        9=A       10=A       11=A       12=A       13=A       14=A   
    15=A       16=A       17=A       18=A       19=A       20=A       21=A   
    22=A       23=A       24=A       25=A       26=A   
 ...... END OF INITIAL ORBITAL SELECTION ......
 STEP CPU TIME =     0.01 TOTAL CPU TIME =          0.0 (      0.0 MIN)
 TOTAL WALL CLOCK TIME=          0.0 SECONDS, CPU UTILIZATION IS   100.00%

                    ----------------------
                    AO INTEGRAL TECHNOLOGY
                    ----------------------
     S,P,L SHELL ROTATED AXIS INTEGRALS, REPROGRAMMED BY
        KAZUYA ISHIMURA (IMS) AND JOSE SIERRA (SYNSTAR).
     S,P,D,L SHELL ROTATED AXIS INTEGRALS PROGRAMMED BY
        KAZUYA ISHIMURA (INSTITUTE FOR MOLECULAR SCIENCE).
     S,P,D,F,G SHELL TO TOTAL QUARTET ANGULAR MOMENTUM SUM 5,
        ERIC PROGRAM BY GRAHAM FLETCHER (ELORET AND NASA ADVANCED
        SUPERCOMPUTING DIVISION, AMES RESEARCH CENTER).
     S,P,D,F,G,L SHELL GENERAL RYS QUADRATURE PROGRAMMED BY
        MICHEL DUPUIS (PACIFIC NORTHWEST NATIONAL LABORATORY).

          --------------------
          2 ELECTRON INTEGRALS
          --------------------

 THE -PK- OPTION IS OFF, THE INTEGRALS ARE NOT IN SUPERMATRIX FORM.
 STORING   15000 INTEGRALS/RECORD ON DISK, USING 12 BYTES/INTEGRAL.
 TWO ELECTRON INTEGRAL EVALUATION REQUIRES   90606 WORDS OF MEMORY.
 II,JST,KST,LST =  1  1  1  1 NREC =         1 INTLOC =    1
 II,JST,KST,LST =  2  1  1  1 NREC =         1 INTLOC =    2
 II,JST,KST,LST =  3  1  1  1 NREC =         1 INTLOC =    7
 II,JST,KST,LST =  4  1  1  1 NREC =         1 INTLOC =   22
 II,JST,KST,LST =  5  1  1  1 NREC =         1 INTLOC =   56
 II,JST,KST,LST =  6  1  1  1 NREC =         1 INTLOC =  125
 II,JST,KST,LST =  7  1  1  1 NREC =         1 INTLOC =  329
 II,JST,KST,LST =  8  1  1  1 NREC =         1 INTLOC =  776
 II,JST,KST,LST =  9  1  1  1 NREC =         1 INTLOC = 2864
 II,JST,KST,LST = 10  1  1  1 NREC =         1 INTLOC = 4789
 II,JST,KST,LST = 11  1  1  1 NREC =         1 INTLOC = 7434
 II,JST,KST,LST = 12  1  1  1 NREC =         1 INTLOC =10536
 II,JST,KST,LST = 13  1  1  1 NREC =         2 INTLOC = 6345
 II,JST,KST,LST = 14  1  1  1 NREC =         3 INTLOC = 6544
 II,JST,KST,LST = 15  1  1  1 NREC =         6 INTLOC = 8208
 II,JST,KST,LST = 16  1  1  1 NREC =         6 INTLOC =14792
 II,JST,KST,LST = 17  1  1  1 NREC =         7 INTLOC =10499
 II,JST,KST,LST = 18  1  1  1 NREC =         8 INTLOC = 8748
 II,JST,KST,LST = 19  1  1  1 NREC =        10 INTLOC =14982
 II,JST,KST,LST = 20  1  1  1 NREC =        14 INTLOC = 6146
 TOTAL NUMBER OF NONZERO TWO-ELECTRON INTEGRALS =              323131
         22 INTEGRAL RECORDS WERE STORED ON DISK FILE  8.
  ...... END OF TWO-ELECTRON INTEGRALS .....
 STEP CPU TIME =     0.10 TOTAL CPU TIME =          0.2 (      0.0 MIN)
 TOTAL WALL CLOCK TIME=          0.2 SECONDS, CPU UTILIZATION IS    93.75%

          --------------------------
               R-PBE SCF CALCULATION
          --------------------------

     NUCLEAR ENERGY =        88.8842543999
     MAXIT =   30     NPUNCH=    2
     EXTRAP=T  DAMP=F  SHIFT=F  RSTRCT=F  DIIS=T  DEM=F  SOSCF=F
         DENSITY MATRIX CONVERGENCE THRESHOLD=  1.00E-05
     COARSE -> FINE DFT GRID SWITCH THRESHOLD=  3.00E-04 (SWITCH IN $DFT)
                   HF -> DFT SWITCH THRESHOLD=  5.00E-03 (SWOFF IN $DFT)
     MEMORY REQUIRED FOR RHF ITERS=    183108 WORDS.

 DFT CODE IS SWITCHING FROM THE FINE GRID NRAD= 96,  NLEB=  302
                      TO THE COARSE GRID NRAD0= 24, NLEB0=  110

     EXCHANGE FUNCTIONAL   =PBE       
     CORRELATION FUNCTIONAL=PBE       
     DFT THRESHOLD         =.460E-07
     GRID CHANGE THRESHOLD =.300E-03
 FOR AN EULER-MACLAURIN QUADRATURE USING  96 RADIAL POINTS:
 SMALLEST GAUSSIAN PRIMITIVE EXPONENT=        0.1001940000 OF TYPE -P-
 ON ATOM NUMBER   1 HAS RADIAL NORMALIZATION=  1.000000
  LARGEST GAUSSIAN PRIMITIVE EXPONENT=    49299.4000000000 OF TYPE -S-
 ON ATOM NUMBER   1 HAS RADIAL NORMALIZATION=  1.000000
 DFT IS SWITCHED OFF, PERFORMING PURE SCF UNTIL SWOFF THRESHOLD IS REACHED.

 ITER EX DEM     TOTAL ENERGY        E CHANGE  DENSITY CHANGE    DIIS ERROR
   1  0  0     -545.9091877455  -545.9091877455   0.809345177   0.831986954
          * * *   INITIATING DIIS PROCEDURE   * * *
   2  1  0     -546.2389361956    -0.3297484501   0.935167250   0.407515080
   3  2  0     -546.0695857720     0.1693504236   0.414723467   0.484676902
   4  3  0     -546.9351819205    -0.8655961484   0.042342380   0.013349798
   5  4  0     -546.9372656924    -0.0020837719   0.015708048   0.011217267
   6  5  0     -546.9378332134    -0.0005675210   0.011244341   0.003864686
   7  6  0     -546.9380450975    -0.0002118841   0.007117165   0.001331944
   8  7  0     -546.9380996544    -0.0000545570   0.004798163   0.000905486
 CONVERGED TO SWOFF, SO DFT CALCULATION IS NOW SWITCHED ON.
          * * *   INITIATING DIIS PROCEDURE   * * *
   9  8  0     -548.1157185954    -1.1776189410   0.569170076   0.101725953
  10  9  0     -548.0825694898     0.0331491057   0.502393970   0.169981812
  11 10  0     -548.0919381135    -0.0093686237   0.156358688   0.174992293
  12 11  0     -548.1686150877    -0.0766769742   0.034204088   0.015479208
  13 12  0     -548.1695598976    -0.0009448099   0.002736994   0.002067062
  14 13  0     -548.1695729708    -0.0000130731   0.000924304   0.000535899
  15 14  0     -548.1695720661     0.0000009047   0.000728118   0.001128365
  16 15  0     -548.1695737927    -0.0000017266   0.000104544   0.000160702
 DFT CODE IS SWITCHING BACK TO THE FINE GRID
          * * *   INITIATING DIIS PROCEDURE   * * *
  17 16  0     -548.1726575599    -0.0030837672   0.023290502   0.013540349
  18 17  0     -548.1729185007    -0.0002609408   0.035701397   0.007168069
  19 18  0     -548.1719765176     0.0009419831   0.027516772   0.021019702
  20 19  0     -548.1730785979    -0.0011020803   0.000532266   0.000479255
  21 20  0     -548.1730787565    -0.0000001586   0.000962400   0.000587195
  22 21  0     -548.1730776060     0.0000011505   0.000662804   0.001100657
  23 22  0     -548.1730792937    -0.0000016877   0.000037517   0.000011318
  24 23  0     -548.1730792943    -0.0000000007   0.000012799   0.000007509
  25 24  0     -548.1730792944    -0.0000000001   0.000000504   0.000000339

          -----------------
          DENSITY CONVERGED
          -----------------
     TIME TO FORM FOCK OPERATORS=       2.4 SECONDS (       0.1 SEC/ITER)
     TIME TO SOLVE SCF EQUATIONS=       0.0 SECONDS (       0.0 SEC/ITER)

 FINAL R-PBE ENERGY IS     -548.1730792944 AFTER  25 ITERATIONS
 DFT EXCHANGE + CORRELATION ENERGY =       -42.2106490070
 TOTAL ELECTRON NUMBER             =        31.9999973339

          ------------
          EIGENVECTORS
          ------------

                      1          2          3          4          5
                  -88.2314   -18.8277   -18.8277    -7.8457    -5.8720
                     A          A          A          A          A   
    1  S  1  S    0.997766   0.000002   0.000000  -0.308408  -0.000000
    2  S  1  S    0.008189  -0.000057  -0.000000   1.031869   0.000000
    3  S  1  S   -0.002805  -0.001272  -0.000003   0.027478   0.000000
    4  S  1  S    0.001136   0.007007   0.000015  -0.005976  -0.000000
    5  S  1  X   -0.000000   0.000000  -0.000155  -0.000000   0.994736
    6  S  1  Y    0.000096  -0.000172  -0.000000   0.008394  -0.000001
    7  S  1  Z    0.000000   0.000000   0.000000   0.000000   0.000000
    8  S  1  X    0.000000  -0.000003   0.001358  -0.000000   0.016907
    9  S  1  Y   -0.000176   0.001199   0.000002   0.000737  -0.000000
   10  S  1  Z    0.000000   0.000000   0.000000   0.000000   0.000000
   11  S  1  X    0.000000  -0.000007   0.003414  -0.000000  -0.002608
   12  S  1  Y    0.000057   0.003001   0.000006  -0.000146   0.000000
   13  S  1  Z    0.000000   0.000000   0.000000   0.000000   0.000000
   14  S  1 XX   -0.000084   0.000885   0.000002   0.000465  -0.000000
   15  S  1 YY    0.000014   0.000071   0.000000  -0.000146  -0.000000
   16  S  1 ZZ    0.000070  -0.000956  -0.000002  -0.000319   0.000000
   17  S  1 XY    0.000000  -0.000002   0.000905  -0.000000   0.001095
   18  S  1 XZ    0.000000   0.000000   0.000000   0.000000   0.000000
   19  S  1 YZ    0.000000   0.000000   0.000000   0.000000   0.000000
   20  O  2  S   -0.000004   0.700906   0.703766   0.000028  -0.000029
   21  O  2  S   -0.000075   0.023584   0.023219   0.000060  -0.000018
   22  O  2  S    0.000051  -0.011063  -0.009892  -0.000142  -0.000656
   23  O  2  X    0.000018  -0.000817  -0.000641   0.000140   0.000106
   24  O  2  Y    0.000017  -0.000369  -0.000524   0.000073   0.000096
   25  O  2  Z    0.000000   0.000000   0.000000   0.000000   0.000000
   26  O  2  X   -0.000179   0.002686   0.001407   0.000608   0.000929
   27  O  2  Y   -0.000134   0.000936   0.001473   0.000445   0.000647
   28  O  2  Z    0.000000   0.000000   0.000000   0.000000   0.000000
   29  O  2 XX    0.000089  -0.000259  -0.000100  -0.000254   0.000049
   30  O  2 YY   -0.000009   0.000078  -0.000048   0.000021  -0.000068
   31  O  2 ZZ   -0.000080   0.000181   0.000148   0.000233   0.000020
   32  O  2 XY    0.000125  -0.000217  -0.000218  -0.000368  -0.000075
   33  O  2 XZ    0.000000   0.000000   0.000000   0.000000   0.000000
   34  O  2 YZ    0.000000   0.000000   0.000000   0.000000   0.000000
   35  O  3  S   -0.000004   0.703774  -0.700899   0.000028   0.000029
   36  O  3  S   -0.000075   0.023679  -0.023122   0.000060   0.000018
   37  O  3  S    0.000051  -0.011104   0.009846  -0.000142   0.000656
   38  O  3  X   -0.000018   0.000819  -0.000637  -0.000140   0.000106
   39  O  3  Y    0.000017  -0.000371   0.000523   0.000073  -0.000096
   40  O  3  Z    0.000000   0.000000   0.000000   0.000000   0.000000
   41  O  3  X    0.000179  -0.002692   0.001396  -0.000608   0.000929
   42  O  3  Y   -0.000134   0.000942  -0.001469   0.000445  -0.000647
   43  O  3  Z    0.000000   0.000000   0.000000   0.000000   0.000000
   44  O  3 XX    0.000089  -0.000259   0.000099  -0.000254  -0.000049
   45  O  3 YY   -0.000009   0.000077   0.000049   0.000021   0.000068
   46  O  3 ZZ   -0.000080   0.000182  -0.000148   0.000233  -0.000020
   47  O  3 XY   -0.000125   0.000218  -0.000218   0.000368  -0.000075
   48  O  3 XZ    0.000000   0.000000   0.000000   0.000000   0.000000
   49  O  3 YZ    0.000000   0.000000   0.000000   0.000000   0.000000

                      6          7          8          9         10
                   -5.8696    -5.8674    -0.9388    -0.8893    -0.6466
                     A          A          A          A          A   
    1  S  1  S    0.000000   0.002590   0.043344  -0.000000   0.074562
    2  S  1  S    0.000000  -0.008868  -0.268694   0.000001  -0.475202
    3  S  1  S    0.000000  -0.000461   0.383707  -0.000002   0.720991
    4  S  1  S    0.000000   0.001219   0.088540   0.000004   0.270618
    5  S  1  X    0.000000   0.000001   0.000000   0.080268   0.000000
    6  S  1  Y    0.000000   0.994911  -0.043002  -0.000000   0.025321
    7  S  1  Z    0.995001   0.000000   0.000000   0.000000   0.000000
    8  S  1  X    0.000000   0.000000  -0.000000  -0.183522   0.000000
    9  S  1  Y    0.000000   0.016064   0.096922   0.000000  -0.058773
   10  S  1  Z    0.015805   0.000000   0.000000   0.000000   0.000000
   11  S  1  X    0.000000  -0.000000   0.000003  -0.000435  -0.000002
   12  S  1  Y    0.000000  -0.002752  -0.008945   0.000002  -0.030525
   13  S  1  Z   -0.003149   0.000000   0.000000   0.000000   0.000000
   14  S  1 XX    0.000000   0.000039   0.027934   0.000000  -0.008581
   15  S  1 YY    0.000000   0.000466  -0.003862   0.000000  -0.002214
   16  S  1 ZZ    0.000000  -0.000505  -0.024072  -0.000000   0.010795
   17  S  1 XY    0.000000   0.000000   0.000000  -0.048090  -0.000000
   18  S  1 XZ   -0.000000   0.000000   0.000000   0.000000   0.000000
   19  S  1 YZ    0.000401   0.000000   0.000000   0.000000   0.000000
   20  O  2  S    0.000000  -0.000022  -0.144400   0.169044   0.104749
   21  O  2  S    0.000000   0.000018   0.296065  -0.352130  -0.224285
   22  O  2  S    0.000000  -0.000500   0.295156  -0.351141  -0.269057
   23  O  2  X    0.000000   0.000062  -0.070207   0.057422  -0.084620
   24  O  2  Y    0.000000   0.000009  -0.042817   0.040560  -0.058236
   25  O  2  Z   -0.000055   0.000000   0.000000   0.000000   0.000000
   26  O  2  X    0.000000   0.000665  -0.035306   0.024302  -0.040526
   27  O  2  Y    0.000000   0.000271  -0.020844   0.018822  -0.024098
   28  O  2  Z   -0.000024   0.000000   0.000000   0.000000   0.000000
   29  O  2 XX    0.000000  -0.000124   0.006356  -0.003874   0.002875
   30  O  2 YY    0.000000   0.000146  -0.002484   0.001935   0.001036
   31  O  2 ZZ    0.000000  -0.000021  -0.003873   0.001939  -0.003911
   32  O  2 XY    0.000000   0.000122   0.008978  -0.007397   0.004007
   33  O  2 XZ    0.000175   0.000000   0.000000   0.000000   0.000000
   34  O  2 YZ    0.000107   0.000000   0.000000   0.000000   0.000000
   35  O  3  S    0.000000  -0.000022  -0.144400  -0.169044   0.104750
   36  O  3  S    0.000000   0.000018   0.296065   0.352130  -0.224285
   37  O  3  S    0.000000  -0.000500   0.295161   0.351135  -0.269059
   38  O  3  X    0.000000  -0.000062   0.070207   0.057422   0.084620
   39  O  3  Y    0.000000   0.000009  -0.042817  -0.040560  -0.058236
   40  O  3  Z   -0.000055   0.000000   0.000000   0.000000   0.000000
   41  O  3  X    0.000000  -0.000665   0.035307   0.024300   0.040526
   42  O  3  Y    0.000000   0.000271  -0.020845  -0.018821  -0.024098
   43  O  3  Z   -0.000024   0.000000   0.000000   0.000000   0.000000
   44  O  3 XX    0.000000  -0.000124   0.006357   0.003874   0.002875
   45  O  3 YY    0.000000   0.000146  -0.002484  -0.001935   0.001036
   46  O  3 ZZ    0.000000  -0.000021  -0.003873  -0.001939  -0.003911
   47  O  3 XY    0.000000  -0.000122  -0.008978  -0.007397  -0.004007
   48  O  3 XZ   -0.000175   0.000000   0.000000   0.000000   0.000000
   49  O  3 YZ    0.000107   0.000000   0.000000   0.000000   0.000000

                     11         12         13         14         15
                   -0.4292    -0.4003    -0.3908    -0.3066    -0.2894
                     A          A          A          A          A   
    1  S  1  S    0.000000  -0.011729   0.000000   0.000000   0.015278
    2  S  1  S   -0.000000   0.074784   0.000000   0.000000  -0.099293
    3  S  1  S    0.000000  -0.088677   0.000000   0.000000   0.128460
    4  S  1  S   -0.000001  -0.186457   0.000000   0.000000   0.245041
    5  S  1  X   -0.193293  -0.000000   0.000000   0.000000  -0.000002
    6  S  1  Y    0.000000  -0.221362   0.000000   0.000000   0.056527
    7  S  1  Z    0.000000   0.000000  -0.224239  -0.000000   0.000000
    8  S  1  X    0.520872   0.000000   0.000000   0.000000   0.000004
    9  S  1  Y   -0.000001   0.599080   0.000000   0.000000  -0.156311
   10  S  1  Z    0.000000   0.000000   0.612260   0.000001   0.000000
   11  S  1  X    0.047206   0.000001   0.000000   0.000000   0.000010
   12  S  1  Y   -0.000000   0.134831   0.000000   0.000000   0.016688
   13  S  1  Z    0.000000   0.000000   0.194854   0.000000   0.000000
   14  S  1 XX   -0.000000  -0.005215   0.000000   0.000000  -0.102827
   15  S  1 YY    0.000000   0.027714   0.000000   0.000000   0.066111
   16  S  1 ZZ    0.000000  -0.022500   0.000000   0.000000   0.036717
   17  S  1 XY    0.043731   0.000000   0.000000   0.000000  -0.000006
   18  S  1 XZ    0.000000   0.000000  -0.000000   0.079163   0.000000
   19  S  1 YZ    0.000000   0.000000   0.031107   0.000000   0.000000
   20  O  2  S    0.059180   0.029087   0.000000   0.000000  -0.001756
   21  O  2  S   -0.127005  -0.064183   0.000000   0.000000   0.008269
   22  O  2  S   -0.186847  -0.089032   0.000000   0.000000  -0.031106
   23  O  2  X   -0.263427  -0.294925   0.000000   0.000000  -0.009581
   24  O  2  Y   -0.233203   0.032779   0.000000   0.000000   0.462086
   25  O  2  Z    0.000000   0.000000   0.282213   0.474171   0.000000
   26  O  2  X   -0.145461  -0.187256   0.000000   0.000000  -0.003944
   27  O  2  Y   -0.136754   0.024356   0.000000   0.000000   0.333445
   28  O  2  Z    0.000000   0.000000   0.177016   0.336272   0.000000
   29  O  2 XX    0.003614   0.014036   0.000000   0.000000   0.005446
   30  O  2 YY    0.003341  -0.008772   0.000000   0.000000  -0.008871
   31  O  2 ZZ   -0.006955  -0.005265   0.000000   0.000000   0.003424
   32  O  2 XY    0.011409   0.002399   0.000000   0.000000  -0.009910
   33  O  2 XZ    0.000000   0.000000  -0.012547  -0.011657   0.000000
   34  O  2 YZ    0.000000   0.000000  -0.007875  -0.008439   0.000000
   35  O  3  S   -0.059180   0.029087   0.000000   0.000000  -0.001756
   36  O  3  S    0.127003  -0.064184   0.000000   0.000000   0.008269
   37  O  3  S    0.186848  -0.089030   0.000000   0.000000  -0.031099
   38  O  3  X   -0.263427   0.294926   0.000000   0.000000   0.009639
   39  O  3  Y    0.233204   0.032779   0.000000   0.000000   0.462138
   40  O  3  Z    0.000000   0.000000   0.282214  -0.474171   0.000000
   41  O  3  X   -0.145459   0.187257   0.000000   0.000000   0.003984
   42  O  3  Y    0.136754   0.024356   0.000000   0.000000   0.333480
   43  O  3  Z    0.000000   0.000000   0.177016  -0.336272   0.000000
   44  O  3 XX   -0.003614   0.014036   0.000000   0.000000   0.005448
   45  O  3 YY   -0.003341  -0.008772   0.000000   0.000000  -0.008872
   46  O  3 ZZ    0.006955  -0.005265   0.000000   0.000000   0.003424
   47  O  3 XY    0.011409  -0.002399   0.000000   0.000000   0.009911
   48  O  3 XZ    0.000000   0.000000   0.012547  -0.011657   0.000000
   49  O  3 YZ    0.000000   0.000000  -0.007875   0.008439   0.000000

                     16         17         18         19         20
                   -0.2881    -0.2275    -0.1129    -0.0801     0.2175
                     A          A          A          A          A   
    1  S  1  S   -0.000001   0.000000   0.028953   0.000000   0.000000
    2  S  1  S    0.000008   0.000000  -0.194565  -0.000002   0.000000
    3  S  1  S   -0.000012   0.000000   0.334155   0.000003   0.000000
    4  S  1  S   -0.000018   0.000000   0.328497   0.000002   0.000000
    5  S  1  X   -0.019966   0.000000   0.000002  -0.230383   0.000000
    6  S  1  Y   -0.000004   0.000000  -0.204475  -0.000002   0.000000
    7  S  1  Z    0.000000  -0.211382   0.000000   0.000000   0.252889
    8  S  1  X    0.054028   0.000000  -0.000004   0.700130   0.000000
    9  S  1  Y    0.000012   0.000000   0.620343   0.000005   0.000000
   10  S  1  Z    0.000000   0.613680   0.000000   0.000000  -1.001298
   11  S  1  X    0.115209   0.000000  -0.000011   0.607030   0.000000
   12  S  1  Y    0.000000   0.000000   0.420873   0.000004   0.000000
   13  S  1  Z    0.000000   0.231058   0.000000   0.000000   1.300493
   14  S  1 XX    0.000009   0.000000  -0.085700  -0.000002   0.000000
   15  S  1 YY   -0.000005   0.000000  -0.024571  -0.000000   0.000000
   16  S  1 ZZ   -0.000003   0.000000   0.110271   0.000002   0.000000
   17  S  1 XY   -0.071744   0.000000   0.000002  -0.158881   0.000000
   18  S  1 XZ    0.000000  -0.000000   0.000000   0.000000   0.000000
   19  S  1 YZ    0.000000  -0.043417   0.000000   0.000000  -0.083460
   20  O  2  S    0.002578   0.000000   0.037929   0.042798   0.000000
   21  O  2  S   -0.002785   0.000000  -0.079696  -0.085003   0.000000
   22  O  2  S   -0.043124   0.000000  -0.241227  -0.323731   0.000000
   23  O  2  X    0.351536   0.000000   0.396765   0.162339   0.000000
   24  O  2  Y   -0.321647   0.000000   0.029237   0.304377   0.000000
   25  O  2  Z    0.000000  -0.399749   0.000000   0.000000  -0.065785
   26  O  2  X    0.242930   0.000000   0.344045   0.159893   0.000000
   27  O  2  Y   -0.218285   0.000000   0.025660   0.261879   0.000000
   28  O  2  Z    0.000000  -0.299370   0.000000   0.000000  -0.126830
   29  O  2 XX   -0.011227   0.000000   0.002800  -0.003315   0.000000
   30  O  2 YY    0.010911   0.000000  -0.004267   0.004971   0.000000
   31  O  2 ZZ    0.000316   0.000000   0.001467  -0.001657   0.000000
   32  O  2 XY    0.002916   0.000000  -0.002426   0.002491   0.000000
   33  O  2 XZ    0.000000   0.002202   0.000000   0.000000   0.009725
   34  O  2 YZ    0.000000   0.001061   0.000000   0.000000   0.004879
   35  O  3  S   -0.002577   0.000000   0.037931  -0.042797   0.000000
   36  O  3  S    0.002784   0.000000  -0.079700   0.084996   0.000000
   37  O  3  S    0.043127   0.000000  -0.241236   0.323730   0.000000
   38  O  3  X    0.351533   0.000000  -0.396769   0.162328   0.000000
   39  O  3  Y    0.321572   0.000000   0.029243  -0.304376   0.000000
   40  O  3  Z    0.000000  -0.399749   0.000000   0.000000  -0.065786
   41  O  3  X    0.242928   0.000000  -0.344047   0.159888   0.000000
   42  O  3  Y    0.218230   0.000000   0.025666  -0.261880   0.000000
   43  O  3  Z    0.000000  -0.299370   0.000000   0.000000  -0.126830
   44  O  3 XX    0.011226   0.000000   0.002800   0.003315   0.000000
   45  O  3 YY   -0.010910   0.000000  -0.004267  -0.004971   0.000000
   46  O  3 ZZ   -0.000317   0.000000   0.001467   0.001657   0.000000
   47  O  3 XY    0.002915   0.000000   0.002426   0.002491   0.000000
   48  O  3 XZ    0.000000  -0.002202   0.000000   0.000000  -0.009725
   49  O  3 YZ    0.000000   0.001061   0.000000   0.000000   0.004879

                     21         22         23         24         25
                    0.2188     0.2259     0.2460     0.4735     0.4831
                     A          A          A          A          A   
    1  S  1  S    0.021669   0.000002  -0.061337   0.000000   0.000597
    2  S  1  S   -0.158383  -0.000016   0.454974   0.000000  -0.004577
    3  S  1  S    0.538190   0.000063  -1.828324   0.000000   0.030036
    4  S  1  S   -0.454950  -0.000076   2.166318   0.000000  -0.076206
    5  S  1  X   -0.000006   0.256154   0.000006   0.000000  -0.000000
    6  S  1  Y    0.247353   0.000005   0.044044   0.000000   0.032439
    7  S  1  Z    0.000000   0.000000   0.000000  -0.000000   0.000000
    8  S  1  X    0.000024  -1.003844  -0.000024   0.000000   0.000001
    9  S  1  Y   -0.973229  -0.000019  -0.180351   0.000000  -0.131238
   10  S  1  Z    0.000000   0.000000   0.000000   0.000000   0.000000
   11  S  1  X   -0.000034   1.494490   0.000041   0.000000  -0.000001
   12  S  1  Y    1.271386   0.000010   0.634510   0.000000   0.053223
   13  S  1  Z    0.000000   0.000000   0.000000   0.000000   0.000000
   14  S  1 XX    0.092555   0.000002  -0.101663   0.000000  -0.415408
   15  S  1 YY   -0.096088  -0.000001  -0.043660   0.000000   0.875327
   16  S  1 ZZ    0.003533  -0.000001   0.145322   0.000000  -0.459918
   17  S  1 XY    0.000001  -0.004427   0.000002   0.000000   0.000000
   18  S  1 XZ    0.000000   0.000000   0.000000   0.877032   0.000000
   19  S  1 YZ    0.000000   0.000000   0.000000  -0.000002   0.000000
   20  O  2  S    0.003299   0.013048   0.029782   0.000000  -0.003967
   21  O  2  S    0.021820   0.023869  -0.045452   0.000000   0.009582
   22  O  2  S   -0.175346  -0.437553  -0.449289   0.000000   0.017311
   23  O  2  X   -0.058631  -0.202509  -0.067457   0.000000   0.158083
   24  O  2  Y   -0.065109  -0.055375  -0.116488   0.000000  -0.265633
   25  O  2  Z    0.000000   0.000000   0.000000  -0.310779   0.000000
   26  O  2  X    0.047027  -0.025688   0.206177   0.000000  -0.127226
   27  O  2  Y   -0.103985   0.076417   0.060802   0.000000   0.125735
   28  O  2  Z    0.000000   0.000000   0.000000   0.169835   0.000000
   29  O  2 XX   -0.014124  -0.014278  -0.020416   0.000000   0.037663
   30  O  2 YY    0.009578  -0.000784  -0.000968   0.000000  -0.030235
   31  O  2 ZZ    0.004546   0.015063   0.021385   0.000000  -0.007428
   32  O  2 XY   -0.000341  -0.025047  -0.029765   0.000000  -0.027599
   33  O  2 XZ    0.000000   0.000000   0.000000  -0.040146   0.000000
   34  O  2 YZ    0.000000   0.000000   0.000000  -0.035754   0.000000
   35  O  3  S    0.003300  -0.013049   0.029782   0.000000  -0.003967
   36  O  3  S    0.021818  -0.023876  -0.045462   0.000000   0.009581
   37  O  3  S   -0.175363   0.437583  -0.449256   0.000000   0.017310
   38  O  3  X    0.058638  -0.202517   0.067442   0.000000  -0.158082
   39  O  3  Y   -0.065112   0.055378  -0.116485   0.000000  -0.265633
   40  O  3  Z    0.000000   0.000000   0.000000   0.310780   0.000000
   41  O  3  X   -0.047023  -0.025670  -0.206171   0.000000   0.127226
   42  O  3  Y   -0.103982  -0.076427   0.060796   0.000000   0.125735
   43  O  3  Z    0.000000   0.000000   0.000000  -0.169836   0.000000
   44  O  3 XX   -0.014125   0.014279  -0.020416   0.000000   0.037662
   45  O  3 YY    0.009578   0.000785  -0.000968   0.000000  -0.030235
   46  O  3 ZZ    0.004547  -0.015064   0.021384   0.000000  -0.007427
   47  O  3 XY    0.000342  -0.025049   0.029764   0.000000   0.027599
   48  O  3 XZ    0.000000   0.000000   0.000000  -0.040146   0.000000
   49  O  3 YZ    0.000000   0.000000   0.000000   0.035754   0.000000

                     26         27         28         29         30
                    0.4884     0.6133     0.6474     0.7960     0.7999
                     A          A          A          A          A   
    1  S  1  S    0.000000   0.005411  -0.000000   0.015859   0.000000
    2  S  1  S    0.000000  -0.044162   0.000000  -0.129082   0.000000
    3  S  1  S    0.000000   0.333083  -0.000000   0.508420   0.000000
    4  S  1  S    0.000000  -0.826950  -0.000003   0.035380   0.000000
    5  S  1  X    0.000000   0.000000  -0.064400   0.000000   0.000000
    6  S  1  Y    0.000000   0.041394   0.000000  -0.037544   0.000000
    7  S  1  Z    0.022717   0.000000   0.000000   0.000000   0.000000
    8  S  1  X    0.000000  -0.000001   0.283579   0.000000   0.000000
    9  S  1  Y    0.000000  -0.167340  -0.000001   0.249756   0.000000
   10  S  1  Z   -0.090817   0.000000   0.000000   0.000000  -0.000000
   11  S  1  X    0.000000  -0.000002   0.367004   0.000001   0.000000
   12  S  1  Y    0.000000  -0.265214  -0.000001   0.053525   0.000000
   13  S  1  Z    0.047467   0.000000   0.000000   0.000000   0.000000
   14  S  1 XX    0.000000  -0.778363   0.000001  -0.325043   0.000000
   15  S  1 YY    0.000000  -0.085554  -0.000001   0.187708   0.000000
   16  S  1 ZZ    0.000000   0.863917  -0.000001   0.137335   0.000000
   17  S  1 XY    0.000000   0.000000   0.936843   0.000003   0.000000
   18  S  1 XZ    0.000001   0.000000   0.000000   0.000000  -0.495012
   19  S  1 YZ    0.932340   0.000000   0.000000   0.000000  -0.000000
   20  O  2  S    0.000000  -0.065459   0.070709   0.022118   0.000000
   21  O  2  S    0.000000   0.292650  -0.316138  -0.158113   0.000000
   22  O  2  S    0.000000   0.110480  -0.078365   0.094287   0.000000
   23  O  2  X    0.000000   0.065621   0.030861  -0.581859   0.000000
   24  O  2  Y    0.000000  -0.107115  -0.131330  -0.142663   0.000000
   25  O  2  Z   -0.228664   0.000000   0.000000   0.000000  -0.570130
   26  O  2  X    0.000000  -0.409407   0.358140   0.770668   0.000000
   27  O  2  Y    0.000000  -0.114379   0.372022   0.156742   0.000000
   28  O  2  Z    0.133993   0.000000   0.000000   0.000000   0.744063
   29  O  2 XX    0.000000   0.004975   0.043590   0.038386   0.000000
   30  O  2 YY    0.000000  -0.025287  -0.028262  -0.030441   0.000000
   31  O  2 ZZ    0.000000   0.020312  -0.015328  -0.007945   0.000000
   32  O  2 XY    0.000000  -0.018658   0.024774   0.008392   0.000000
   33  O  2 XZ   -0.037253   0.000000   0.000000   0.000000   0.038139
   34  O  2 YZ   -0.006613   0.000000   0.000000   0.000000   0.029738
   35  O  3  S    0.000000  -0.065459  -0.070708   0.022117   0.000000
   36  O  3  S    0.000000   0.292656   0.316133  -0.158107   0.000000
   37  O  3  S    0.000000   0.110473   0.078371   0.094283   0.000000
   38  O  3  X    0.000000  -0.065616   0.030857   0.581853   0.000000
   39  O  3  Y    0.000000  -0.107113   0.131332  -0.142668   0.000000
   40  O  3  Z   -0.228663   0.000000   0.000000   0.000000   0.570130
   41  O  3  X    0.000000   0.409401   0.358146  -0.770658   0.000000
   42  O  3  Y    0.000000  -0.114380  -0.372024   0.156747   0.000000
   43  O  3  Z    0.133992   0.000000   0.000000   0.000000  -0.744062
   44  O  3 XX    0.000000   0.004975  -0.043590   0.038386   0.000000
   45  O  3 YY    0.000000  -0.025287   0.028262  -0.030440   0.000000
   46  O  3 ZZ    0.000000   0.020312   0.015328  -0.007945   0.000000
   47  O  3 XY    0.000000   0.018658   0.024774  -0.008392   0.000000
   48  O  3 XZ    0.037253   0.000000   0.000000   0.000000   0.038139
   49  O  3 YZ   -0.006613   0.000000   0.000000   0.000000  -0.029738

                     31         32         33         34         35
                    0.8199     0.8336     0.8394     0.8515     1.3741
                     A          A          A          A          A   
    1  S  1  S    0.000000   0.008063   0.000000   0.000000   0.000000
    2  S  1  S   -0.000001  -0.065873   0.000000  -0.000001  -0.000001
    3  S  1  S    0.000002   0.262385   0.000000   0.000004   0.000006
    4  S  1  S    0.000001   0.018759   0.000000   0.000000  -0.000007
    5  S  1  X   -0.032597   0.000001   0.000000  -0.060131  -0.066645
    6  S  1  Y   -0.000000  -0.029201   0.000000  -0.000001  -0.000000
    7  S  1  Z    0.000000   0.000000  -0.005007   0.000000   0.000000
    8  S  1  X    0.224848  -0.000007   0.000000   0.399573   0.369241
    9  S  1  Y    0.000001   0.181136   0.000000   0.000003   0.000002
   10  S  1  Z    0.000000   0.000000   0.035636   0.000000   0.000000
   11  S  1  X    0.062364   0.000004   0.000000  -0.404615   0.854487
   12  S  1  Y   -0.000001  -0.426227   0.000000  -0.000007  -0.000004
   13  S  1  Z    0.000000   0.000000  -0.497253   0.000000   0.000000
   14  S  1 XX    0.000001   0.372344   0.000000   0.000006  -0.000001
   15  S  1 YY   -0.000002  -0.441195   0.000000  -0.000007  -0.000000
   16  S  1 ZZ    0.000001   0.068851   0.000000   0.000001   0.000001
   17  S  1 XY   -0.391900   0.000003   0.000000  -0.093781   0.399975
   18  S  1 XZ    0.000000   0.000000   0.000000   0.000000   0.000000
   19  S  1 YZ    0.000000   0.000000  -0.364961   0.000000   0.000000
   20  O  2  S    0.008717   0.006077   0.000000   0.007725  -0.079038
   21  O  2  S   -0.098915  -0.019575   0.000000  -0.076890   1.172466
   22  O  2  S    0.087712   0.043130   0.000000   0.155658  -1.665194
   23  O  2  X   -0.072929   0.082749   0.000000  -0.628802  -0.057989
   24  O  2  Y   -0.605454  -0.559371   0.000000   0.085469  -0.117389
   25  O  2  Z    0.000000   0.000000  -0.600669   0.000000   0.000000
   26  O  2  X    0.027741  -0.073674   0.000000   0.829832   0.360345
   27  O  2  Y    0.736376   0.826828   0.000000  -0.099811   0.428302
   28  O  2  Z    0.000000   0.000000   0.849491   0.000000   0.000000
   29  O  2 XX   -0.023313  -0.020841   0.000000   0.023298   0.077003
   30  O  2 YY    0.023879   0.037415   0.000000  -0.000317  -0.001026
   31  O  2 ZZ   -0.000566  -0.016573   0.000000  -0.022981  -0.075976
   32  O  2 XY    0.007627   0.051046   0.000000   0.020764   0.124131
   33  O  2 XZ    0.000000   0.000000   0.036471   0.000000   0.000000
   34  O  2 YZ    0.000000   0.000000   0.015600   0.000000   0.000000
   35  O  3  S   -0.008717   0.006077   0.000000  -0.007727   0.079037
   36  O  3  S    0.098911  -0.019575   0.000000   0.076906  -1.172463
   37  O  3  S   -0.087709   0.043131   0.000000  -0.155672   1.665195
   38  O  3  X   -0.072926  -0.082731   0.000000  -0.628809  -0.057988
   39  O  3  Y    0.605447  -0.559375   0.000000  -0.085484   0.117388
   40  O  3  Z    0.000000   0.000000  -0.600669   0.000000   0.000000
   41  O  3  X    0.027736   0.073650   0.000000   0.829839   0.360345
   42  O  3  Y   -0.736366   0.826833   0.000000   0.099834  -0.428300
   43  O  3  Z    0.000000   0.000000   0.849492   0.000000   0.000000
   44  O  3 XX    0.023313  -0.020841   0.000000  -0.023298  -0.077002
   45  O  3 YY   -0.023879   0.037415   0.000000   0.000318   0.001026
   46  O  3 ZZ    0.000566  -0.016574   0.000000   0.022980   0.075976
   47  O  3 XY    0.007626  -0.051047   0.000000   0.020763   0.124130
   48  O  3 XZ    0.000000   0.000000  -0.036471   0.000000   0.000000
   49  O  3 YZ    0.000000   0.000000   0.015600   0.000000   0.000000

                     36         37         38         39         40
                    1.4961     2.0839     2.0865     2.0881     2.0919
                     A          A          A          A          A   
    1  S  1  S    0.000778   0.000000   0.000000   0.000000  -0.000457
    2  S  1  S   -0.006046  -0.000000   0.000000   0.000000   0.003532
    3  S  1  S    0.433352   0.000000   0.000000   0.000000  -0.012517
    4  S  1  S   -1.694562  -0.000000   0.000000   0.000000   0.006736
    5  S  1  X   -0.000001   0.016533   0.000000   0.000000   0.000004
    6  S  1  Y    0.050658  -0.000000   0.000000   0.000000   0.001843
    7  S  1  Z    0.000000   0.000000  -0.000000  -0.009762   0.000000
    8  S  1  X    0.000004  -0.054617   0.000000   0.000000  -0.000016
    9  S  1  Y   -0.271572   0.000000   0.000000   0.000000  -0.007719
   10  S  1  Z    0.000000   0.000000   0.000001   0.028734   0.000000
   11  S  1  X   -0.000009  -0.065031   0.000000   0.000000  -0.000009
   12  S  1  Y   -0.713586  -0.000000   0.000000   0.000000   0.001317
   13  S  1  Z    0.000000   0.000000   0.000001   0.022999   0.000000
   14  S  1 XX   -0.315785   0.000000   0.000000   0.000000   0.018758
   15  S  1 YY   -0.030543  -0.000000   0.000000   0.000000   0.023962
   16  S  1 ZZ    0.346329   0.000000   0.000000   0.000000  -0.042720
   17  S  1 XY   -0.000002   0.064684   0.000000   0.000000   0.000011
   18  S  1 XZ    0.000000   0.000000   0.033559  -0.000002   0.000000
   19  S  1 YZ    0.000000   0.000000   0.000000   0.010198   0.000000
   20  O  2  S    0.073156   0.002843   0.000000   0.000000   0.001364
   21  O  2  S   -1.198673  -0.041688   0.000000   0.000000  -0.005410
   22  O  2  S    1.828375   0.067930   0.000000   0.000000  -0.001058
   23  O  2  X    0.140619  -0.010415   0.000000   0.000000   0.008501
   24  O  2  Y    0.008555   0.029808   0.000000   0.000000   0.000806
   25  O  2  Z    0.000000   0.000000   0.007517   0.012786   0.000000
   26  O  2  X   -0.664251   0.010479   0.000000   0.000000  -0.007698
   27  O  2  Y   -0.189167  -0.048049   0.000000   0.000000   0.001154
   28  O  2  Z    0.000000   0.000000  -0.011351  -0.021246   0.000000
   29  O  2 XX   -0.130270  -0.541649   0.000000   0.000000  -0.154516
   30  O  2 YY    0.037198   0.164937   0.000000   0.000000  -0.450589
   31  O  2 ZZ    0.093072   0.376712   0.000000   0.000000   0.605105
   32  O  2 XY   -0.119743   0.439708   0.000000   0.000000   0.323076
   33  O  2 XZ    0.000000   0.000000   0.511610  -0.178336   0.000000
   34  O  2 YZ    0.000000   0.000000  -0.488260   0.684677   0.000000
   35  O  3  S    0.073156  -0.002843   0.000000   0.000000   0.001363
   36  O  3  S   -1.198675   0.041688   0.000000   0.000000  -0.005389
   37  O  3  S    1.828372  -0.067929   0.000000   0.000000  -0.001091
   38  O  3  X   -0.140623  -0.010415   0.000000   0.000000  -0.008498
   39  O  3  Y    0.008554  -0.029808   0.000000   0.000000   0.000796
   40  O  3  Z    0.000000   0.000000  -0.007516   0.012787   0.000000
   41  O  3  X    0.664257   0.010479   0.000000   0.000000   0.007690
   42  O  3  Y   -0.189162   0.048050   0.000000   0.000000   0.001173
   43  O  3  Z    0.000000   0.000000   0.011350  -0.021247   0.000000
   44  O  3 XX   -0.130271   0.541651   0.000000   0.000000  -0.154441
   45  O  3 YY    0.037198  -0.164931   0.000000   0.000000  -0.450848
   46  O  3 ZZ    0.093073  -0.376720   0.000000   0.000000   0.605289
   47  O  3 XY    0.119744   0.439713   0.000000   0.000000  -0.323082
   48  O  3 XZ    0.000000   0.000000   0.511626   0.178292   0.000000
   49  O  3 YZ    0.000000   0.000000   0.488318   0.684637   0.000000

                     41         42         43         44         45
                    2.0922     2.1217     2.1381     2.1989     2.4112
                     A          A          A          A          A   
    1  S  1  S    0.000000   0.000000   0.000000  -0.001374  -0.022151
    2  S  1  S   -0.000001   0.000000   0.000000   0.009732   0.161825
    3  S  1  S    0.000002   0.000000   0.000000   0.031651  -0.241371
    4  S  1  S   -0.000001   0.000000   0.000000  -0.214992  -0.680625
    5  S  1  X    0.022022   0.000000   0.000000  -0.000000  -0.000000
    6  S  1  Y   -0.000000   0.000000   0.000000   0.037408   0.097965
    7  S  1  Z    0.000000   0.029983  -0.000000   0.000000   0.000000
    8  S  1  X   -0.084770   0.000000   0.000000   0.000000   0.000000
    9  S  1  Y    0.000001   0.000000   0.000000  -0.127772  -0.436297
   10  S  1  Z    0.000000  -0.086970   0.000000   0.000000   0.000000
   11  S  1  X   -0.045631   0.000000   0.000000  -0.000001  -0.000003
   12  S  1  Y   -0.000000   0.000000   0.000000  -0.172469  -0.147260
   13  S  1  Z    0.000000  -0.087405   0.000000   0.000000   0.000000
   14  S  1 XX   -0.000003   0.000000   0.000000   0.191732  -0.407788
   15  S  1 YY   -0.000005   0.000000   0.000000  -0.251434   0.055835
   16  S  1 ZZ    0.000008   0.000000   0.000000   0.059702   0.351953
   17  S  1 XY    0.054334   0.000000   0.000000  -0.000000  -0.000001
   18  S  1 XZ    0.000000   0.000001   0.254652   0.000000   0.000000
   19  S  1 YZ    0.000000  -0.176281   0.000001   0.000000   0.000000
   20  O  2  S    0.002828   0.000000   0.000000   0.006840   0.015224
   21  O  2  S   -0.052887   0.000000   0.000000  -0.132037  -0.451874
   22  O  2  S    0.083214   0.000000   0.000000   0.228120   0.781777
   23  O  2  X    0.006436   0.000000   0.000000   0.049320   0.085599
   24  O  2  Y    0.025873   0.000000   0.000000  -0.028731   0.053432
   25  O  2  Z    0.000000  -0.044116   0.033098   0.000000   0.000000
   26  O  2  X   -0.022384   0.000000   0.000000  -0.144203  -0.425309
   27  O  2  Y   -0.046672   0.000000   0.000000   0.055552  -0.252359
   28  O  2  Z    0.000000   0.087278  -0.061858   0.000000   0.000000
   29  O  2 XX   -0.180803   0.000000   0.000000   0.589064   0.372381
   30  O  2 YY    0.682569   0.000000   0.000000  -0.549951   0.002322
   31  O  2 ZZ   -0.501766   0.000000   0.000000  -0.039113  -0.374703
   32  O  2 XY   -0.029680   0.000000   0.000000  -0.274566   0.588911
   33  O  2 XZ    0.000000  -0.688469   0.492030   0.000000   0.000000
   34  O  2 YZ    0.000000  -0.182317   0.513368   0.000000   0.000000
   35  O  3  S   -0.002828   0.000000   0.000000   0.006840   0.015224
   36  O  3  S    0.052888   0.000000   0.000000  -0.132037  -0.451873
   37  O  3  S   -0.083213   0.000000   0.000000   0.228119   0.781773
   38  O  3  X    0.006439   0.000000   0.000000  -0.049320  -0.085600
   39  O  3  Y   -0.025873   0.000000   0.000000  -0.028732   0.053431
   40  O  3  Z    0.000000  -0.044116  -0.033098   0.000000   0.000000
   41  O  3  X   -0.022387   0.000000   0.000000   0.144203   0.425309
   42  O  3  Y    0.046672   0.000000   0.000000   0.055552  -0.252357
   43  O  3  Z    0.000000   0.087278   0.061857   0.000000   0.000000
   44  O  3 XX    0.180862   0.000000   0.000000   0.589062   0.372381
   45  O  3 YY   -0.682400   0.000000   0.000000  -0.549950   0.002322
   46  O  3 ZZ    0.501538   0.000000   0.000000  -0.039113  -0.374703
   47  O  3 XY   -0.029558   0.000000   0.000000   0.274566  -0.588910
   48  O  3 XZ    0.000000   0.688472   0.492026   0.000000   0.000000
   49  O  3 YZ    0.000000  -0.182321  -0.513366   0.000000   0.000000

                     46
                    2.5111
                     A   
    1  S  1  S    0.000000
    2  S  1  S   -0.000000
    3  S  1  S    0.000002
    4  S  1  S   -0.000004
    5  S  1  X   -0.155285
    6  S  1  Y    0.000000
    7  S  1  Z    0.000000
    8  S  1  X    0.682736
    9  S  1  Y   -0.000000
   10  S  1  Z    0.000000
   11  S  1  X    0.158125
   12  S  1  Y   -0.000002
   13  S  1  Z    0.000000
   14  S  1 XX   -0.000001
   15  S  1 YY   -0.000000
   16  S  1 ZZ    0.000001
   17  S  1 XY    0.534531
   18  S  1 XZ    0.000000
   19  S  1 YZ    0.000000
   20  O  2  S   -0.009311
   21  O  2  S    0.382072
   22  O  2  S   -0.670355
   23  O  2  X   -0.060667
   24  O  2  Y   -0.037479
   25  O  2  Z    0.000000
   26  O  2  X    0.387296
   27  O  2  Y    0.256321
   28  O  2  Z    0.000000
   29  O  2 XX   -0.446751
   30  O  2 YY    0.098758
   31  O  2 ZZ    0.347993
   32  O  2 XY   -0.586547
   33  O  2 XZ    0.000000
   34  O  2 YZ    0.000000
   35  O  3  S    0.009311
   36  O  3  S   -0.382074
   37  O  3  S    0.670360
   38  O  3  X   -0.060668
   39  O  3  Y    0.037479
   40  O  3  Z    0.000000
   41  O  3  X    0.387299
   42  O  3  Y   -0.256322
   43  O  3  Z    0.000000
   44  O  3 XX    0.446752
   45  O  3 YY   -0.098758
   46  O  3 ZZ   -0.347993
   47  O  3 XY   -0.586547
   48  O  3 XZ    0.000000
   49  O  3 YZ    0.000000
 ...... END OF RHF CALCULATION ......
 STEP CPU TIME =     2.49 TOTAL CPU TIME =          2.6 (      0.0 MIN)
 TOTAL WALL CLOCK TIME=          2.7 SECONDS, CPU UTILIZATION IS    98.51%

     ---------------------------------------------------------------------
     PROPERTIES FOR THE PBE      DFT FUNCTIONAL (RHF  TYPE) DENSITY MATRIX
     ---------------------------------------------------------------------

          -----------------
          ENERGY COMPONENTS
          -----------------

         WAVEFUNCTION NORMALIZATION =       1.0000000000

                ONE ELECTRON ENERGY =    -932.2860136448
                TWO ELECTRON ENERGY =     295.2286799505
           NUCLEAR REPULSION ENERGY =      88.8842543999
                                      ------------------
                       TOTAL ENERGY =    -548.1730792944

 ELECTRON-ELECTRON POTENTIAL ENERGY =     295.2286799505
  NUCLEUS-ELECTRON POTENTIAL ENERGY =   -1478.9274233930
   NUCLEUS-NUCLEUS POTENTIAL ENERGY =      88.8842543999
                                      ------------------
             TOTAL POTENTIAL ENERGY =   -1094.8144890427
               TOTAL KINETIC ENERGY =     546.6414097482
                 VIRIAL RATIO (V/T) =       2.0028019640

          ---------------------------------------
          MULLIKEN AND LOWDIN POPULATION ANALYSES
          ---------------------------------------

     ATOMIC MULLIKEN POPULATION IN EACH MOLECULAR ORBITAL

                      1          2          3          4          5

                  2.000000   2.000000   2.000000   2.000000   2.000000

    1             1.999987   0.000852   0.000595   2.000368   2.000285
    2             0.000006   0.995492   1.003784  -0.000184  -0.000143
    3             0.000006   1.003655   0.995621  -0.000184  -0.000143

                      6          7          8          9         10

                  2.000000   2.000000   2.000000   2.000000   2.000000

    1             2.000003   2.000120   0.550952   0.187479   1.270050
    2            -0.000002  -0.000060   0.724518   0.906266   0.364974
    3            -0.000002  -0.000060   0.724529   0.906254   0.364976

                     11         12         13         14         15

                  2.000000   2.000000   2.000000   2.000000   2.000000

    1             0.652022   1.091862   1.193312   0.036228   0.195481
    2             0.673990   0.454068   0.403343   0.981886   0.902148
    3             0.673988   0.454070   0.403345   0.981886   0.902370

                     16

                  2.000000

    1             0.089979
    2             0.955124
    3             0.954898

               ----- POPULATIONS IN EACH AO -----
                             MULLIKEN      LOWDIN
              1  S  1  S      1.99985     1.99929
              2  S  1  S      1.99275     1.88946
              3  S  1  S      1.37434     0.70898
              4  S  1  S      0.52802     0.46477
              5  S  1  X      1.99336     1.95694
              6  S  1  Y      1.99444     1.96416
              7  S  1  Z      1.99405     1.96225
              8  S  1  X      0.80086     0.69562
              9  S  1  Y      0.97708     0.89461
             10  S  1  Z      0.91587     0.83359
             11  S  1  X      0.07280     0.22101
             12  S  1  Y      0.16168     0.30640
             13  S  1  Z      0.27817     0.38335
             14  S  1 XX      0.01922     0.28852
             15  S  1 YY      0.06230     0.29141
             16  S  1 ZZ      0.06334     0.29335
             17  S  1 XY      0.03623     0.07641
             18  S  1 XZ      0.00522     0.04192
             19  S  1 YZ      0.00000     0.00508
             20  O  2  S      1.99574     1.97313
             21  O  2  S      0.97138     0.71518
             22  O  2  S      0.99380     0.56536
             23  O  2  X      0.82943     0.78953
             24  O  2  Y      1.03241     1.00047
             25  O  2  Z      0.82738     0.79685
             26  O  2  X      0.50416     0.59414
             27  O  2  Y      0.64560     0.70129
             28  O  2  Z      0.55526     0.58666
             29  O  2 XX      0.00131     0.21116
             30  O  2 YY      0.00266     0.20633
             31  O  2 ZZ      0.00350     0.21176
             32  O  2 XY      0.00181     0.00619
             33  O  2 XZ      0.00078     0.00240
             34  O  2 YZ      0.00000     0.00100
             35  O  3  S      1.99574     1.97313
             36  O  3  S      0.97138     0.71518
             37  O  3  S      0.99380     0.56536
             38  O  3  X      0.82943     0.78953
             39  O  3  Y      1.03241     1.00047
             40  O  3  Z      0.82738     0.79685
             41  O  3  X      0.50416     0.59414
             42  O  3  Y      0.64560     0.70129
             43  O  3  Z      0.55526     0.58666
             44  O  3 XX      0.00131     0.21116
             45  O  3 YY      0.00266     0.20633
             46  O  3 ZZ      0.00350     0.21176
             47  O  3 XY      0.00181     0.00619
             48  O  3 XZ      0.00078     0.00240
             49  O  3 YZ      0.00000     0.00100

          ----- MULLIKEN ATOMIC OVERLAP POPULATIONS -----
          (OFF-DIAGONAL ELEMENTS NEED TO BE MULTIPLIED BY 2)

             1           2           3

    1   14.7562263
    2    0.2566744   8.1273726
    3    0.2566764  -0.0188347   8.1273691

          TOTAL MULLIKEN AND LOWDIN ATOMIC POPULATIONS
       ATOM         MULL.POP.    CHARGE          LOW.POP.     CHARGE
    1 S            15.269577    0.730423        15.277105    0.722895
    2 O             8.365212   -0.365212         8.361447   -0.361447
    3 O             8.365211   -0.365211         8.361447   -0.361447

          MULLIKEN SPHERICAL HARMONIC POPULATIONS
       ATOM           S       P       D      F      G      H      I    TOTAL
    1 S             5.89    9.19    0.19   0.00   0.00   0.00   0.00   15.27
    2 O             3.96    4.39    0.01   0.00   0.00   0.00   0.00    8.37
    3 O             3.96    4.39    0.01   0.00   0.00   0.00   0.00    8.37

          -------------------------------
          BOND ORDER AND VALENCE ANALYSIS     BOND ORDER THRESHOLD=0.050
          -------------------------------

                   BOND                       BOND                       BOND
  ATOM PAIR DIST  ORDER      ATOM PAIR DIST  ORDER      ATOM PAIR DIST  ORDER
    1   2  1.750  1.633        1   3  1.750  1.633        2   3  2.952  0.485

                       TOTAL       BONDED        FREE
      ATOM            VALENCE     VALENCE     VALENCE
    1 S                 3.266       3.266      -0.000
    2 O                 2.118       2.118      -0.000
    3 O                 2.118       2.118      -0.000

          ---------------------
          ELECTROSTATIC MOMENTS
          ---------------------

 POINT   1           X           Y           Z (BOHR)    CHARGE
                 0.000000   -0.000000    0.000000       -0.00 (A.U.)
         DX          DY          DZ         /D/  (DEBYE)
    -0.000001   -2.322002    0.000000    2.322002
 ...... END OF PROPERTY EVALUATION ......
 STEP CPU TIME =     0.00 TOTAL CPU TIME =          2.6 (      0.0 MIN)
 TOTAL WALL CLOCK TIME=          2.7 SECONDS, CPU UTILIZATION IS    98.14%
                580000  WORDS OF DYNAMIC MEMORY USED
 EXECUTION OF GAMESS TERMINATED NORMALLY Sun Sep 29 10:55:35 2019
 DDI: 263640 bytes (0.3 MB / 0 MWords) used by master data server.

 ----------------------------------------
 CPU timing information for all processes
 ========================================
 0: 2.575 + 0.79 = 2.654
 ----------------------------------------
 ddikick.x: exited gracefully.
----- accounting info -----
Files used on the master node crcfe02.crc.nd.edu were:
-rw-r--r-- 1 cdrisko campus     208 Sep 29 10:55 /afs/crc.nd.edu/user/c/cdrisko/SO2.F05
-rw-r--r-- 1 cdrisko campus   37566 Sep 29 10:55 /afs/crc.nd.edu/user/c/cdrisko/SO2.F07
-rw-r--r-- 1 cdrisko campus 3960352 Sep 29 10:55 /afs/crc.nd.edu/user/c/cdrisko/SO2.F08
-rw-r--r-- 1 cdrisko campus 1766880 Sep 29 10:55 /afs/crc.nd.edu/user/c/cdrisko/SO2.F10
Sun Sep 29 10:55:38 EDT 2019
0.460u 0.225s 0:06.35 10.7%	0+0k 0+24io 0pf+0w
